-4.000000000000000083e-02 0.000000000000000000e+00
-3.984999999999999654e-02 0.000000000000000000e+00
-3.969999999999999918e-02 0.000000000000000000e+00
-3.955000000000000182e-02 0.000000000000000000e+00
-3.939999999999999752e-02 0.000000000000000000e+00
-3.925000000000000017e-02 0.000000000000000000e+00
-3.910000000000000281e-02 0.000000000000000000e+00
-3.894999999999999851e-02 0.000000000000000000e+00
-3.880000000000000115e-02 0.000000000000000000e+00
-3.864999999999999686e-02 0.000000000000000000e+00
-3.849999999999999950e-02 0.000000000000000000e+00
-3.835000000000000214e-02 0.000000000000000000e+00
-3.819999999999999785e-02 0.000000000000000000e+00
-3.805000000000000049e-02 0.000000000000000000e+00
-3.790000000000000313e-02 0.000000000000000000e+00
-3.774999999999999883e-02 0.000000000000000000e+00
-3.760000000000000148e-02 0.000000000000000000e+00
-3.744999999999999718e-02 0.000000000000000000e+00
-3.729999999999999982e-02 0.000000000000000000e+00
-3.715000000000000246e-02 0.000000000000000000e+00
-3.699999999999999817e-02 0.000000000000000000e+00
-3.685000000000000081e-02 0.000000000000000000e+00
-3.670000000000000345e-02 0.000000000000000000e+00
-3.654999999999999916e-02 0.000000000000000000e+00
-3.640000000000000180e-02 0.000000000000000000e+00
-3.624999999999999750e-02 0.000000000000000000e+00
-3.610000000000000014e-02 0.000000000000000000e+00
-3.595000000000000279e-02 0.000000000000000000e+00
-3.579999999999999849e-02 0.000000000000000000e+00
-3.565000000000000113e-02 0.000000000000000000e+00
-3.549999999999999684e-02 0.000000000000000000e+00
-3.534999999999999948e-02 0.000000000000000000e+00
-3.520000000000000212e-02 0.000000000000000000e+00
-3.504999999999999782e-02 0.000000000000000000e+00
-3.490000000000000047e-02 0.000000000000000000e+00
-3.475000000000000311e-02 0.000000000000000000e+00
-3.459999999999999881e-02 0.000000000000000000e+00
-3.445000000000000145e-02 0.000000000000000000e+00
-3.429999999999999716e-02 0.000000000000000000e+00
-3.414999999999999980e-02 0.000000000000000000e+00
-3.400000000000000244e-02 0.000000000000000000e+00
-3.384999999999999815e-02 0.000000000000000000e+00
-3.370000000000000079e-02 0.000000000000000000e+00
-3.355000000000000343e-02 0.000000000000000000e+00
-3.339999999999999913e-02 0.000000000000000000e+00
-3.325000000000000178e-02 0.000000000000000000e+00
-3.309999999999999748e-02 0.000000000000000000e+00
-3.295000000000000012e-02 0.000000000000000000e+00
-3.280000000000000276e-02 0.000000000000000000e+00
-3.264999999999999847e-02 -0.000000000000000000e+00
-3.250000000000000111e-02 0.000000000000000000e+00
-3.234999999999999681e-02 -0.000000000000000000e+00
-3.219999999999999946e-02 -0.000000000000000000e+00
-3.205000000000000210e-02 1.401298464324817071e-45
-3.189999999999999780e-02 1.261168617892335364e-44
-3.175000000000000044e-02 -2.732532005433393288e-43
-3.160000000000000309e-02 8.113518108440690841e-43
-3.144999999999999879e-02 1.736489056991313314e-41
-3.130000000000000143e-02 -1.602328742016855328e-40
-3.115000000000000061e-02 -4.043012316285318965e-40
-3.099999999999999978e-02 1.208777151167851968e-38
-3.084999999999999895e-02 -2.269909152109201803e-38
-3.070000000000000159e-02 -5.874212221779540869e-37
-3.055000000000000077e-02 2.833729520579600030e-36
-3.039999999999999994e-02 2.082046442244419297e-35
-3.024999999999999911e-02 -1.653669151936226023e-34
-3.009999999999999828e-02 -5.785429168909610058e-34
-2.995000000000000093e-02 6.955735824389428801e-33
-2.980000000000000010e-02 1.395914529154439400e-32
-2.964999999999999927e-02 -2.351680362520598850e-31
-2.949999999999999845e-02 -3.540214942374298322e-31
-2.935000000000000109e-02 6.655293168705910947e-30
-2.920000000000000026e-02 1.092642951100625295e-29
-2.904999999999999943e-02 -1.578758201493346992e-28
-2.889999999999999861e-02 -3.626108880706962226e-28
-2.875000000000000125e-02 3.017916045043265729e-27
-2.860000000000000042e-02 1.060900820981642134e-26
-2.844999999999999959e-02 -4.142716602314951982e-26
-2.829999999999999877e-02 -2.442116886895045941e-25
-2.815000000000000141e-02 2.466138687535157277e-25
-2.800000000000000058e-02 4.056624513942689740e-24
-2.784999999999999976e-02 4.762001058425067087e-24
-2.769999999999999893e-02 -4.102613448109173765e-23
-2.755000000000000157e-02 -1.496298238377752315e-22
-2.740000000000000074e-02 7.830990020604051175e-23
-2.724999999999999992e-02 1.680413274459445122e-21
-2.709999999999999909e-02 3.792684500866719809e-21
-2.695000000000000173e-02 -3.322577119627198703e-21
-2.680000000000000090e-02 -3.841101708564921325e-20
-2.665000000000000008e-02 -9.388835994600713777e-20
-2.649999999999999925e-02 -5.667799551947864420e-20
-2.634999999999999842e-02 3.471329098039902034e-19
-2.620000000000000107e-02 1.486304594414881823e-18
-2.605000000000000024e-02 3.675036902939381346e-18
-2.589999999999999941e-02 7.130094220957023066e-18
-2.574999999999999858e-02 1.209124063928058992e-17
-2.560000000000000123e-02 1.889149328225964299e-17
-2.545000000000000040e-02 2.786450206741234641e-17
-2.529999999999999957e-02 3.930239823577099019e-17
-2.514999999999999875e-02 5.355788332872205980e-17
-2.500000000000000139e-02 7.106051885580924295e-17
-2.485000000000000056e-02 9.222537743096674849e-17
-2.469999999999999973e-02 1.174883799282875718e-16
-2.454999999999999891e-02 1.473815225956515173e-16
-2.440000000000000155e-02 1.824664610689820908e-16
-2.425000000000000072e-02 2.233175895656361147e-16
-2.409999999999999989e-02 2.706073331317252958e-16
-2.394999999999999907e-02 3.250724780824628670e-16
-2.380000000000000171e-02 3.874744011583120375e-16
-2.365000000000000088e-02 4.586786112126890920e-16
-2.350000000000000006e-02 5.396410378661297119e-16
-2.334999999999999923e-02 6.313638005045745395e-16
-2.319999999999999840e-02 7.349690589644579126e-16
-2.305000000000000104e-02 8.516923696180278384e-16
-2.290000000000000022e-02 9.828432454017394654e-16
-2.274999999999999939e-02 1.129877365375008512e-15
-2.259999999999999856e-02 1.294387680874265097e-15
-2.245000000000000120e-02 1.478076092848779922e-15
-2.230000000000000038e-02 1.682825873177654519e-15
-2.214999999999999955e-02 1.910685041648231379e-15
-2.199999999999999872e-02 2.163855354527779648e-15
-2.185000000000000137e-02 2.444764090605774931e-15
-2.170000000000000054e-02 2.756036840260468745e-15
-2.154999999999999971e-02 3.100510952106926184e-15
-2.139999999999999888e-02 3.481298636951596359e-15
-2.125000000000000153e-02 3.901756474606211250e-15
-2.110000000000000070e-02 4.365526071469253908e-15
-2.094999999999999987e-02 4.876580012063347000e-15
-2.079999999999999905e-02 5.439196659805071998e-15
-2.065000000000000169e-02 6.058027919640749520e-15
-2.050000000000000086e-02 6.738121260903067941e-15
-2.035000000000000003e-02 7.484915905662820751e-15
-2.019999999999999921e-02 8.304324567408316593e-15
-2.004999999999999838e-02 9.202733451045379265e-15
-1.990000000000000102e-02 1.018703571069876426e-14
-1.975000000000000019e-02 1.126470810619388530e-14
-1.959999999999999937e-02 1.244380253272734174e-14
-1.944999999999999854e-02 1.373302225383217154e-14
-1.930000000000000118e-02 1.514177102928879193e-14
-1.915000000000000036e-02 1.668017429094868082e-14
-1.899999999999999953e-02 1.835916469306204946e-14
-1.884999999999999870e-02 2.019052615799109968e-14
-1.870000000000000134e-02 2.218693876895622835e-14
-1.855000000000000052e-02 2.436207363772611989e-14
-1.839999999999999969e-02 2.673063356219921444e-14
-1.824999999999999886e-02 2.930844450596201134e-14
-1.810000000000000150e-02 3.211252336092484949e-14
-1.795000000000000068e-02 3.516114740402358219e-14
-1.779999999999999985e-02 3.847397796402987624e-14
-1.764999999999999902e-02 4.207210616133036374e-14
-1.750000000000000167e-02 4.597817149253925761e-14
-1.735000000000000084e-02 5.021647702697917826e-14
-1.720000000000000001e-02 5.481305716931693384e-14
-1.704999999999999918e-02 5.979584367802118217e-14
-1.689999999999999836e-02 6.519474359239357808e-14
-1.675000000000000100e-02 7.104178492223570118e-14
-1.660000000000000017e-02 7.737125556125240555e-14
-1.644999999999999934e-02 8.421982864792801338e-14
-1.629999999999999852e-02 9.162671841958860974e-14
-1.615000000000000116e-02 9.963382929020075940e-14
-1.600000000000000033e-02 1.082859388094881137e-13
-1.584999999999999951e-02 1.176308535169937053e-13
-1.569999999999999868e-02 1.277195986774601333e-13
-1.554999999999999959e-02 1.386065876874190139e-13
-1.540000000000000049e-02 1.503498795732069460e-13
-1.524999999999999967e-02 1.630113009637099153e-13
-1.510000000000000057e-02 1.766567442459607284e-13
-1.494999999999999975e-02 1.913563437479920415e-13
-1.480000000000000066e-02 2.071847467893794814e-13
-1.464999999999999983e-02 2.242213305216761432e-13
-1.450000000000000074e-02 2.425505271890643355e-13
-1.434999999999999991e-02 2.622620274162629217e-13
-1.420000000000000082e-02 2.834511054691790655e-13
-1.404999999999999999e-02 3.062188632003970401e-13
-1.389999999999999916e-02 3.306726637300472227e-13
-1.375000000000000007e-02 3.569262669710776548e-13
-1.359999999999999924e-02 3.851003446252859730e-13
-1.345000000000000015e-02 4.153226970237539062e-13
-1.329999999999999932e-02 4.477286868077162696e-13
-1.315000000000000023e-02 4.824615641892127105e-13
-1.299999999999999940e-02 5.196729006319567024e-13
-1.285000000000000031e-02 5.595229141119872907e-13
-1.269999999999999948e-02 6.021810112187553354e-13
-1.255000000000000039e-02 6.478263021511554420e-13
-1.239999999999999956e-02 6.966479801882863310e-13
-1.225000000000000047e-02 7.488459722107543293e-13
-1.209999999999999964e-02 8.046312097512164918e-13
-1.195000000000000055e-02 8.642256289943806014e-13
-1.179999999999999973e-02 9.278613034152671801e-13
-1.165000000000000063e-02 9.957790885264938829e-13
-1.149999999999999981e-02 1.068227646096320260e-12
-1.135000000000000071e-02 1.145462630997018394e-12
-1.119999999999999989e-02 1.227753467468450932e-12
-1.105000000000000079e-02 1.315398202687834139e-12
-1.089999999999999997e-02 1.408754840212522730e-12
-1.074999999999999914e-02 1.508285358588212777e-12
-1.060000000000000005e-02 1.614600814159317110e-12
-1.044999999999999922e-02 1.728465352617003514e-12
-1.030000000000000013e-02 1.850692342431070614e-12
-1.014999999999999930e-02 1.981836569853179242e-12
-1.000000000000000021e-02 2.121600204546547630e-12
-9.850001000000000589e-03 2.267962944182966289e-12
-9.700001999999999236e-03 2.416266622548568499e-12
-9.550001000000000670e-03 2.558853736539523638e-12
-9.400000999999999843e-03 2.686334878501672740e-12
-9.250002000000000224e-03 2.791944193197837265e-12
-9.100000999999999923e-03 2.880400128482674127e-12
-8.950001000000000831e-03 2.981686295436269951e-12
-8.800001999999999477e-03 3.167685731775282676e-12
-8.650000999999999177e-03 3.565332707886059715e-12
-8.500001999999999558e-03 4.354325493921562540e-12
-8.349999999999999784e-03 5.732012520881513140e-12
-8.200001000000000165e-03 7.825874497047191625e-12
-8.050002000000000546e-03 1.053943043949345792e-11
-7.900000000000000772e-03 1.333497375022307807e-11
-7.750001000000000285e-03 1.498927371113012441e-11
-7.600001999999999799e-03 1.340478856387550266e-11
-7.449998999999999684e-03 5.610415344109442870e-12
-7.300001000000000406e-03 -1.187470347746577559e-11
-7.150001999999999920e-03 -4.213738385994147961e-11
-7.000003000000000301e-03 -8.630742648341183099e-11
-6.850000000000000186e-03 -1.413518468940111461e-10
-6.700002000000000041e-03 -1.974512081615031889e-10
-6.550003000000000422e-03 -2.354293149320341172e-10
-6.400000000000000307e-03 -2.249215536043180919e-10
-6.250000999999999821e-03 -1.240571256833078451e-10
-6.100002999999999675e-03 1.186934439623144044e-10
-5.950000000000000427e-03 5.602423525097321999e-10
-5.800000999999999941e-03 1.256538983973598533e-09
-5.650002999999999796e-03 2.255243769511139362e-09
-5.499999999999999681e-03 3.589129660142020839e-09
-5.350001000000000062e-03 5.272171588188712121e-09
-5.200001999999999576e-03 7.299965520957130138e-09
-5.049999999999999802e-03 9.655175325917753071e-09
-4.900001000000000183e-03 1.231729651607338383e-08
-4.750001999999999697e-03 1.527453719063487370e-08
-4.599999999999999922e-03 1.853459785650102276e-08
-4.450001000000000304e-03 2.213099037362553645e-08
-4.300001999999999817e-03 2.612259564216401486e-08
-4.149998999999999702e-03 3.058620023921321263e-08
-4.000001000000000424e-03 3.560415606784772535e-08
-3.850001999999999938e-03 4.125127262000205519e-08
-3.699998999999999823e-03 4.758571847673920274e-08
-3.550000000000000204e-03 5.464751495765085565e-08
-3.400002000000000059e-03 6.246565931178338360e-08
-3.250003000000000006e-03 7.107157529162577703e-08
-3.099999999999999891e-03 8.051388533658609958e-08
-2.950002000000000180e-03 9.086884489306612522e-08
-2.800003000000000127e-03 1.022421187713007384e-07
-2.650000000000000012e-03 1.147612778140683076e-07
-2.500000999999999959e-03 1.285620925273178727e-07
-2.350002999999999814e-03 1.437749261867793393e-07
-2.200000000000000133e-03 1.605173594043662888e-07
-2.050001000000000080e-03 1.788968830851445091e-07
-1.900002000000000028e-03 1.990228781778569100e-07
-1.750000000000000036e-03 2.210228160492988536e-07
-1.600000999999999984e-03 2.450554461574938614e-07
-1.450001999999999932e-03 2.713151445732364664e-07
-1.299999999999999940e-03 3.000256754148722393e-07
-1.150001000000000105e-03 3.314267189580277773e-07
-1.000002000000000052e-03 3.657605986973067047e-07
-8.499994999999999990e-04 4.032660285702149849e-07
-7.000007000000000148e-04 4.441831720214395318e-07
-5.500019000000000305e-04 4.887677391707256902e-07
-3.999992999999999973e-04 5.373078693082788959e-07
-2.500005000000000131e-04 5.901354711568274070e-07
-1.000017000000000017e-04 6.476270755229052156e-07
5.000085000000000087e-05 7.101945129761588760e-07
1.999996999999999886e-04 7.782710440551454667e-07
3.499985000000000270e-04 8.523022643203148618e-07
4.999972999999999571e-04 9.327471843789680861e-07
6.499998000000000104e-04 1.020090167003218085e-06
7.999985999999999946e-04 1.114858719120093156e-06
9.499975000000000129e-04 1.217637418449157849e-06
1.100000000000000066e-03 1.329073029410210438e-06
1.249998999999999902e-03 1.449867454539344180e-06
1.399997999999999954e-03 1.580766138431499712e-06
1.549999999999999946e-03 1.722548404359258711e-06
1.699998999999999998e-03 1.876029159575409722e-06
1.849998000000000050e-03 2.042070946117746644e-06
2.000000000000000042e-03 2.221602471763617359e-06
2.149999000000000094e-03 2.415634071439853869e-06
2.299998000000000146e-03 2.625262368383118883e-06
2.449999999999999921e-03 2.851665612979559228e-06
2.599998999999999973e-03 3.096092314081033692e-06
2.749998000000000026e-03 3.359856236784253269e-06
2.900001000000000141e-03 3.644338676167535596e-06
3.049998999999999853e-03 3.951005965063814074e-06
3.199997999999999905e-03 4.281427663954673335e-06
3.350001000000000020e-03 4.637291112885577604e-06
3.500000000000000073e-03 5.020406206313055009e-06
3.649997999999999784e-03 5.432698344520758837e-06
3.800000999999999900e-03 5.876201612409204245e-06
3.950000000000000386e-03 6.353057415253715590e-06
4.099999000000000005e-03 6.865524028398795053e-06
4.249997000000000150e-03 7.415994787152158096e-06
4.400000000000000265e-03 8.007019459910225123e-06
4.549998999999999884e-03 8.641316526336595416e-06
4.699998000000000370e-03 9.321771358372643590e-06
4.850000000000000144e-03 1.005143531074281782e-05
4.999998999999999763e-03 1.083351889974437654e-05
5.149998000000000249e-03 1.167139635072089732e-05
5.300000000000000024e-03 1.256862651644041762e-05
5.449998999999999642e-03 1.352897379547357559e-05
5.599998000000000128e-03 1.455642086511943489e-05
5.749999999999999903e-03 1.565518505231011659e-05
5.899999000000000389e-03 1.682970287220086902e-05
6.049998000000000008e-03 1.808464730856940150e-05
6.200001000000000123e-03 1.942491508089005947e-05
6.349999000000000268e-03 2.085564483422785997e-05
6.499997999999999887e-03 2.238223532913252711e-05
6.650001000000000002e-03 2.401037454546894878e-05
6.799999999999999621e-03 2.574605059635359794e-05
6.949997999999999766e-03 2.759555354714393616e-05
7.100000999999999882e-03 2.956547359644901007e-05
7.250000000000000368e-03 3.166268652421422303e-05
7.399998999999999987e-03 3.389438643353059888e-05
7.550000999999999761e-03 3.626810575951822102e-05
7.700000000000000247e-03 3.879173891618847847e-05
7.849998999999999866e-03 4.147355139139108360e-05
7.999997999999999485e-03 4.432216883287765086e-05
8.149999999999999259e-03 4.734658068628050387e-05
8.299999000000000612e-03 5.055617657490074635e-05
8.449998000000000231e-03 5.396074629970826209e-05
8.600000000000000006e-03 5.757046528742648661e-05
8.749998999999999624e-03 6.139590550446882844e-05
8.899997999999999243e-03 6.544808275066316128e-05
9.050000000000000752e-03 6.973851122893393040e-05
9.199999000000000371e-03 7.427913806168362498e-05
9.349997999999999990e-03 7.908233965281397104e-05
9.500000999999999238e-03 8.416088530793786049e-05
9.649998999999999383e-03 8.952803909778594971e-05
9.799998000000000736e-03 9.519757441012188792e-05
9.950000999999999984e-03 1.011838321574032307e-04
1.009999999999999960e-02 1.075015679816715419e-04
1.025000000000000043e-02 1.141659595305100083e-04
1.039999999999999952e-02 1.211926719406619668e-04
1.055000000000000035e-02 1.285979815293103456e-04
1.069999999999999944e-02 1.363987103104591370e-04
1.085000000000000027e-02 1.446121314074844122e-04
1.099999999999999936e-02 1.532558526378124952e-04
1.115000000000000019e-02 1.623479911359027028e-04
1.129999999999999928e-02 1.719074352877214551e-04
1.145000000000000011e-02 1.819536119000986218e-04
1.159999999999999920e-02 1.925062679219990969e-04
1.175000000000000003e-02 2.035854122368618846e-04
1.190000000000000085e-02 2.152115484932437539e-04
1.204999999999999995e-02 2.274060243507847190e-04
1.220000000000000077e-02 2.401908132014796138e-04
1.234999999999999987e-02 2.535880194045603275e-04
1.250000000000000069e-02 2.676198200788348913e-04
1.264999999999999979e-02 2.823088725563138723e-04
1.280000000000000061e-02 2.976787509396672249e-04
1.294999999999999971e-02 3.137536696158349514e-04
1.310000000000000053e-02 3.305577556602656841e-04
1.324999999999999963e-02 3.481148160062730312e-04
1.340000000000000045e-02 3.664492687676101923e-04
1.354999999999999954e-02 3.855865506920963526e-04
1.370000000000000037e-02 4.055526223964989185e-04
1.384999999999999946e-02 4.263729788362979889e-04
1.400000000000000029e-02 4.480724455788731575e-04
1.414999999999999938e-02 4.706763138528913260e-04
1.430000000000000021e-02 4.942112718708813190e-04
1.444999999999999930e-02 5.187044152989983559e-04
1.460000000000000013e-02 5.441817338578402996e-04
1.474999999999999922e-02 5.706680240109562874e-04
1.490000000000000005e-02 5.981885478831827641e-04
1.504999999999999914e-02 6.267703138291835785e-04
1.519999999999999997e-02 6.564404466189444065e-04
1.535000000000000080e-02 6.872242083773016930e-04
1.549999999999999989e-02 7.191449403762817383e-04
1.565000000000000072e-02 7.522266823798418045e-04
1.580000000000000154e-02 7.864952785894274712e-04
1.594999999999999890e-02 8.219765149988234043e-04
1.609999999999999973e-02 8.586930925957858562e-04
1.625000000000000056e-02 8.966649766080081463e-04
1.640000000000000138e-02 9.359128889627754688e-04
1.654999999999999874e-02 9.764597634784877300e-04
1.669999999999999957e-02 1.018327777273952961e-03
1.685000000000000039e-02 1.061534858308732510e-03
1.700000000000000122e-02 1.106095383875072002e-03
1.714999999999999858e-02 1.152024837210774422e-03
1.729999999999999941e-02 1.199341029860079288e-03
1.745000000000000023e-02 1.248060725629329681e-03
1.760000000000000106e-02 1.298195216804742813e-03
1.774999999999999842e-02 1.349751604720950127e-03
1.789999999999999925e-02 1.402738504111766815e-03
1.805000000000000007e-02 1.457167789340019226e-03
1.820000000000000090e-02 1.513049472123384476e-03
1.835000000000000173e-02 1.570387161336839199e-03
1.849999999999999908e-02 1.629180274903774261e-03
1.864999999999999991e-02 1.689429976977407932e-03
1.880000000000000074e-02 1.751141040585935116e-03
1.895000000000000157e-02 1.814315328374505043e-03
1.909999999999999892e-02 1.878947368822991848e-03
1.924999999999999975e-02 1.945026917383074760e-03
1.940000000000000058e-02 2.012545708566904068e-03
1.955000000000000140e-02 2.081497572362422943e-03
1.969999999999999876e-02 2.151872729882597923e-03
1.984999999999999959e-02 2.223652089014649391e-03
2.000000000000000042e-02 2.296811901032924652e-03
2.015000000000000124e-02 2.371329348534345627e-03
2.029999999999999860e-02 2.447182545438408852e-03
2.044999999999999943e-02 2.524344949051737785e-03
2.060000000000000026e-02 2.602781169116497040e-03
2.075000000000000108e-02 2.682451158761978149e-03
2.089999999999999844e-02 2.763315336778759956e-03
2.104999999999999927e-02 2.845334820449352264e-03
2.120000000000000009e-02 2.928466070443391800e-03
2.135000000000000092e-02 3.012658096849918365e-03
2.149999999999999828e-02 3.097857115790247917e-03
2.164999999999999911e-02 3.184008877724409103e-03
2.179999999999999993e-02 3.271059133112430573e-03
2.195000000000000076e-02 3.358948742970824242e-03
2.210000000000000159e-02 3.447613678872585297e-03
2.224999999999999895e-02 3.536986187100410461e-03
2.239999999999999977e-02 3.626996185630559921e-03
2.255000000000000060e-02 3.717571729794144630e-03
2.270000000000000143e-02 3.808635752648115158e-03
2.284999999999999878e-02 3.900106996297836304e-03
2.299999999999999961e-02 3.991900011897087097e-03
2.315000000000000044e-02 4.083925392478704453e-03
2.330000000000000127e-02 4.176089540123939514e-03
2.344999999999999862e-02 4.268295131623744965e-03
2.359999999999999945e-02 4.360443446785211563e-03
2.375000000000000028e-02 4.452431574463844299e-03
2.390000000000000110e-02 4.544152412563562393e-03
2.404999999999999846e-02 4.635494202375411987e-03
2.419999999999999929e-02 4.726345650851726532e-03
2.435000000000000012e-02 4.816594067960977554e-03
2.450000000000000094e-02 4.906124901026487350e-03
2.464999999999999830e-02 4.994817543774843216e-03
2.479999999999999913e-02 5.082544870674610138e-03
2.494999999999999996e-02 5.169183947145938873e-03
2.510000000000000078e-02 5.254609044641256332e-03
2.525000000000000161e-02 5.338691640645265579e-03
2.539999999999999897e-02 5.421295762062072754e-03
2.554999999999999979e-02 5.502280313521623611e-03
2.570000000000000062e-02 5.581506062299013138e-03
2.585000000000000145e-02 5.658833775669336319e-03
2.599999999999999881e-02 5.734120495617389679e-03
2.614999999999999963e-02 5.807217210531234741e-03
2.630000000000000046e-02 5.877973977476358414e-03
2.645000000000000129e-02 5.946241784840822220e-03
2.659999999999999865e-02 6.011872086673974991e-03
2.674999999999999947e-02 6.074714940041303635e-03
2.690000000000000030e-02 6.134616211056709290e-03
2.705000000000000113e-02 6.191421765834093094e-03
2.719999999999999848e-02 6.244977470487356186e-03
2.734999999999999931e-02 6.295127794146537781e-03
2.750000000000000014e-02 6.341715808957815170e-03
2.765000000000000097e-02 6.384583655744791031e-03
2.779999999999999832e-02 6.423571147024631500e-03
2.794999999999999915e-02 6.458516698330640793e-03
2.809999999999999998e-02 6.489257328212261200e-03
2.825000000000000080e-02 6.515630520880222321e-03
2.840000000000000163e-02 6.537474691867828369e-03
2.854999999999999899e-02 6.554627791047096252e-03
2.869999999999999982e-02 6.566926836967468262e-03
2.885000000000000064e-02 6.574206985533237457e-03
2.900000000000000147e-02 6.576306652277708054e-03
2.914999999999999883e-02 6.573067046701908112e-03
2.929999999999999966e-02 6.564328912645578384e-03
2.945000000000000048e-02 6.549929734319448471e-03
2.960000000000000131e-02 6.529705133289098740e-03
2.974999999999999867e-02 6.503494456410408020e-03
2.989999999999999949e-02 6.471138447523117065e-03
3.005000000000000032e-02 6.432476919144392014e-03
3.020000000000000115e-02 6.387346424162387848e-03
3.034999999999999851e-02 6.335582118481397629e-03
3.049999999999999933e-02 6.277022883296012878e-03
3.065000000000000016e-02 6.211509462445974350e-03
3.080000000000000099e-02 6.138882599771022797e-03
3.094999999999999835e-02 6.058983039110898972e-03
3.109999999999999917e-02 5.971650127321481705e-03
3.125000000000000000e-02 5.876726470887660980e-03
3.139999999999999736e-02 5.774056538939476013e-03
3.155000000000000165e-02 5.663483403623104095e-03
3.169999999999999901e-02 5.544851068407297134e-03
3.185000000000000331e-02 5.418003536760807037e-03
3.200000000000000067e-02 5.282783415168523788e-03
3.214999999999999802e-02 5.139033310115337372e-03
3.230000000000000232e-02 4.986595362424850464e-03
3.244999999999999968e-02 4.825314506888389587e-03
3.259999999999999704e-02 4.655035678297281265e-03
3.275000000000000133e-02 4.475601483136415482e-03
3.289999999999999869e-02 4.286855459213256836e-03
3.305000000000000299e-02 4.088643472641706467e-03
3.320000000000000034e-02 3.880815580487251282e-03
3.334999999999999770e-02 3.663222305476665497e-03
3.350000000000000200e-02 3.435710677877068520e-03
3.364999999999999936e-02 3.198127960786223412e-03
3.379999999999999671e-02 2.950324676930904388e-03
3.395000000000000101e-02 2.692153910174965858e-03
3.409999999999999837e-02 2.423468511551618576e-03
3.425000000000000266e-02 2.144119003787636757e-03
3.440000000000000002e-02 1.853957073763012886e-03
3.454999999999999738e-02 1.552837551571428776e-03
3.470000000000000168e-02 1.240618410520255566e-03
3.484999999999999903e-02 9.171598940156400204e-04
3.500000000000000333e-02 5.823241081088781357e-04
3.515000000000000069e-02 2.359765639994293451e-04
3.529999999999999805e-02 -1.220137710333801806e-04
3.545000000000000234e-02 -4.917744663543999195e-04
3.559999999999999970e-02 -8.734287112019956112e-04
3.574999999999999706e-02 -1.267094514332711697e-03
3.590000000000000135e-02 -1.672885962761938572e-03
3.604999999999999871e-02 -2.090914174914360046e-03
3.620000000000000301e-02 -2.521286020055413246e-03
3.635000000000000037e-02 -2.964101033285260201e-03
3.649999999999999772e-02 -3.419448854401707649e-03
3.665000000000000202e-02 -3.887412371113896370e-03
3.679999999999999938e-02 -4.368068650364875793e-03
3.694999999999999674e-02 -4.861487075686454773e-03
3.710000000000000103e-02 -5.367723759263753891e-03
3.724999999999999839e-02 -5.886822007596492767e-03
3.740000000000000269e-02 -6.418813951313495636e-03
3.755000000000000004e-02 -6.963722873479127884e-03
3.769999999999999740e-02 -7.521559484302997589e-03
3.785000000000000170e-02 -8.092319592833518982e-03
3.799999999999999906e-02 -8.675982244312763214e-03
3.815000000000000335e-02 -9.272513911128044128e-03
3.830000000000000071e-02 -9.881864301860332489e-03
3.844999999999999807e-02 -1.050396636128425598e-02
3.860000000000000236e-02 -1.113873347640037537e-02
3.874999999999999972e-02 -1.178606040775775909e-02
3.889999999999999708e-02 -1.244581863284111023e-02
3.905000000000000138e-02 -1.311785727739334106e-02
3.919999999999999873e-02 -1.380200032144784927e-02
3.935000000000000303e-02 -1.449805218726396561e-02
3.950000000000000039e-02 -1.520579122006893158e-02
3.964999999999999775e-02 -1.592497155070304871e-02
3.980000000000000204e-02 -1.665531471371650696e-02
3.994999999999999940e-02 -1.739651523530483246e-02
4.009999999999999676e-02 -1.814824342727661133e-02
4.025000000000000105e-02 -1.891014166176319122e-02
4.039999999999999841e-02 -1.968181692063808441e-02
4.055000000000000271e-02 -2.046284265816211700e-02
4.070000000000000007e-02 -2.125276252627372742e-02
4.084999999999999742e-02 -2.205108106136322021e-02
4.100000000000000172e-02 -2.285727672278881073e-02
4.114999999999999908e-02 -2.367078512907028198e-02
4.130000000000000338e-02 -2.449100464582443237e-02
4.145000000000000073e-02 -2.531730011105537415e-02
4.159999999999999809e-02 -2.614899724721908569e-02
4.175000000000000239e-02 -2.698539011180400848e-02
4.189999999999999974e-02 -2.782572805881500244e-02
4.204999999999999710e-02 -2.866922877728939056e-02
4.220000000000000140e-02 -2.951506339013576508e-02
4.234999999999999876e-02 -3.036237321794033051e-02
4.250000000000000305e-02 -3.121025301516056061e-02
4.265000000000000041e-02 -3.205776214599609375e-02
4.279999999999999777e-02 -3.290392458438873291e-02
4.295000000000000207e-02 -3.374771773815155029e-02
4.309999999999999942e-02 -3.458808362483978271e-02
4.324999999999999678e-02 -3.542393073439598083e-02
4.340000000000000108e-02 -3.625411912798881531e-02
4.354999999999999843e-02 -3.707749024033546448e-02
4.370000000000000273e-02 -3.789284452795982361e-02
4.385000000000000009e-02 -3.869894891977310181e-02
4.399999999999999745e-02 -3.949452936649322510e-02
4.415000000000000174e-02 -4.027829319238662720e-02
4.429999999999999910e-02 -4.104891791939735413e-02
4.445000000000000340e-02 -4.180504009127616882e-02
4.460000000000000075e-02 -4.254528135061264038e-02
4.474999999999999811e-02 -4.326822981238365173e-02
4.490000000000000241e-02 -4.397246614098548889e-02
4.504999999999999977e-02 -4.465653002262115479e-02
4.519999999999999712e-02 -4.531895741820335388e-02
4.535000000000000142e-02 -4.595827311277389526e-02
4.549999999999999878e-02 -4.657297953963279724e-02
4.565000000000000308e-02 -4.716156795620918274e-02
4.580000000000000043e-02 -4.772252961993217468e-02
4.594999999999999779e-02 -4.825435578823089600e-02
4.610000000000000209e-02 -4.875553771853446960e-02
4.624999999999999944e-02 -4.922455549240112305e-02
4.639999999999999680e-02 -4.965991154313087463e-02
4.655000000000000110e-02 -5.006010085344314575e-02
4.669999999999999846e-02 -5.042364448308944702e-02
4.685000000000000275e-02 -5.074907839298248291e-02
4.700000000000000011e-02 -5.103495717048645020e-02
4.714999999999999747e-02 -5.127985775470733643e-02
4.730000000000000177e-02 -5.148238316178321838e-02
4.744999999999999912e-02 -5.164117738604545593e-02
4.760000000000000342e-02 -5.175491422414779663e-02
4.775000000000000078e-02 -5.182231590151786804e-02
4.789999999999999813e-02 -5.184213444590568542e-02
4.805000000000000243e-02 -5.181318521499633789e-02
4.819999999999999979e-02 -5.173432454466819763e-02
4.834999999999999715e-02 -5.160446837544441223e-02
4.850000000000000144e-02 -5.142259225249290466e-02
4.864999999999999880e-02 -5.118773505091667175e-02