-4.000000000000000083e-02 0.000000000000000000e+00
-3.984999999999999654e-02 0.000000000000000000e+00
-3.969999999999999918e-02 0.000000000000000000e+00
-3.955000000000000182e-02 0.000000000000000000e+00
-3.939999999999999752e-02 0.000000000000000000e+00
-3.925000000000000017e-02 0.000000000000000000e+00
-3.910000000000000281e-02 0.000000000000000000e+00
-3.894999999999999851e-02 0.000000000000000000e+00
-3.880000000000000115e-02 0.000000000000000000e+00
-3.864999999999999686e-02 0.000000000000000000e+00
-3.849999999999999950e-02 0.000000000000000000e+00
-3.835000000000000214e-02 0.000000000000000000e+00
-3.819999999999999785e-02 0.000000000000000000e+00
-3.805000000000000049e-02 0.000000000000000000e+00
-3.790000000000000313e-02 0.000000000000000000e+00
-3.774999999999999883e-02 0.000000000000000000e+00
-3.760000000000000148e-02 0.000000000000000000e+00
-3.744999999999999718e-02 -0.000000000000000000e+00
-3.729999999999999982e-02 0.000000000000000000e+00
-3.715000000000000246e-02 -1.261168617892335364e-44
-3.699999999999999817e-02 4.119817485114962189e-43
-3.685000000000000081e-02 -9.621315256054194009e-42
-3.670000000000000345e-02 1.280100160145363642e-40
-3.654999999999999916e-02 5.806798667361679716e-40
-3.640000000000000180e-02 -7.635354154497904971e-38
-3.624999999999999750e-02 1.925873042252858585e-36
-3.610000000000000014e-02 -2.480449774550346214e-35
-3.595000000000000279e-02 9.606957744807390624e-35
-3.579999999999999849e-02 2.141113368854871381e-33
-3.565000000000000113e-02 -3.574813502700920875e-32
-3.549999999999999684e-02 1.285478304262624016e-31
-3.534999999999999948e-02 1.880137386456602821e-30
-3.520000000000000212e-02 -1.956364903723245863e-29
-3.504999999999999782e-02 -1.869492372926290769e-29
-3.490000000000000047e-02 1.016424550403929942e-27
-3.475000000000000311e-02 -1.668248606733990122e-27
-3.459999999999999881e-02 -3.428244972307490488e-26
-3.445000000000000145e-02 8.166197495103330234e-26
-3.429999999999999716e-02 9.239881437275529542e-25
-3.414999999999999980e-02 -1.630420677139181778e-24
-3.400000000000000244e-02 -2.070073251673251621e-23
-3.384999999999999815e-02 3.008235667867338345e-24
-3.370000000000000079e-02 3.350285953586395369e-22
-3.355000000000000343e-02 6.454181742608701454e-22
-3.339999999999999913e-02 -2.518003215890338894e-21
-3.325000000000000178e-02 -1.355333979639715342e-20
-3.309999999999999748e-02 -1.730321931615138794e-20
-3.295000000000000012e-02 5.143359611888428968e-20
-3.280000000000000276e-02 3.022698904027759099e-19
-3.264999999999999847e-02 8.365149838741706002e-19
-3.250000000000000111e-02 1.724771252436875342e-18
-3.234999999999999681e-02 3.048684989766265601e-18
-3.219999999999999946e-02 4.915754468619413188e-18
-3.205000000000000210e-02 7.426095012894836148e-18
-3.189999999999999780e-02 1.068205492055463942e-17
-3.175000000000000044e-02 1.481311070493021706e-17
-3.160000000000000309e-02 1.995308529988162297e-17
-3.144999999999999879e-02 2.624099467915451899e-17
-3.130000000000000143e-02 3.384324772965987302e-17
-3.115000000000000061e-02 4.293579238513261446e-17
-3.099999999999999978e-02 5.370680892620610691e-17
-3.084999999999999895e-02 6.637401790754920766e-17
-3.070000000000000159e-02 8.116875858543584708e-17
-3.055000000000000077e-02 9.834520370976886929e-17
-3.039999999999999994e-02 1.181905702415613868e-16
-3.024999999999999911e-02 1.410097834243800472e-16
-3.009999999999999828e-02 1.671328618528539070e-16
-2.995000000000000093e-02 1.969056993719281402e-16
-2.980000000000000010e-02 2.306804499294237221e-16
-2.964999999999999927e-02 2.688683744910122173e-16
-2.949999999999999845e-02 3.120516758590329487e-16
-2.935000000000000109e-02 3.611695018137541218e-16
-2.920000000000000026e-02 4.176035483806047124e-16
-2.904999999999999943e-02 4.826932658167693881e-16
-2.889999999999999861e-02 5.562430953905508121e-16
-2.875000000000000125e-02 6.340928877210686918e-16
-2.860000000000000042e-02 7.066894875918338075e-16
-2.844999999999999959e-02 7.629657742722582847e-16
-2.829999999999999877e-02 8.047543035437268021e-16
-2.815000000000000141e-02 8.720117900501520459e-16
-2.800000000000000058e-02 1.064946996012046052e-15
-2.784999999999999976e-02 1.528065224538650152e-15
-2.769999999999999893e-02 2.350202179407252095e-15
-2.755000000000000157e-02 3.364856805934310878e-15
-2.740000000000000074e-02 3.935219781736913267e-15
-2.724999999999999992e-02 2.956904350954721664e-15
-2.709999999999999909e-02 -6.136318010285162026e-16
-2.695000000000000173e-02 -6.611381415071301490e-15
-2.680000000000000090e-02 -1.246806494446849392e-14
-2.665000000000000008e-02 -1.346595276556289064e-14
-2.649999999999999925e-02 -6.278294178893020425e-15
-2.634999999999999842e-02 4.025082354144069244e-15
-2.620000000000000107e-02 -1.814513979608162186e-15
-2.605000000000000024e-02 -4.979615556162907131e-14
-2.589999999999999941e-02 -1.347544986837409531e-13
-2.574999999999999858e-02 -1.413023208640326600e-13
-2.560000000000000123e-02 2.568927329974629581e-13
-2.545000000000000040e-02 1.639743028858386964e-12
-2.529999999999999957e-02 4.667020242488106874e-12
-2.514999999999999875e-02 9.475185393237328668e-12
-2.500000000000000139e-02 1.447359853495866489e-11
-2.485000000000000056e-02 1.459324848462895119e-11
-2.469999999999999973e-02 -4.931541828546992523e-13
-2.454999999999999891e-02 -4.697245370444136370e-11
-2.440000000000000155e-02 -1.443384994859187032e-10
-2.425000000000000072e-02 -3.071554399713960493e-10
-2.409999999999999989e-02 -5.286844850793670503e-10
-2.394999999999999907e-02 -7.550927105803850736e-10
-2.380000000000000171e-02 -8.515624316807191008e-10
-2.365000000000000088e-02 -5.656332624504045725e-10
-2.350000000000000006e-02 5.020558413448839019e-10
-2.334999999999999923e-02 2.905163665190002575e-09
-2.319999999999999840e-02 7.321117045933078771e-09
-2.305000000000000104e-02 1.447031028334322400e-08
-2.290000000000000022e-02 2.498386741933700250e-08
-2.274999999999999939e-02 3.923753411072539166e-08
-2.259999999999999856e-02 5.719177664786911919e-08
-2.245000000000000120e-02 7.829621750943260849e-08
-2.230000000000000038e-02 1.015191628539469093e-07
-2.214999999999999955e-02 1.255404384892244707e-07
-2.199999999999999872e-02 1.490963938977074577e-07
-2.185000000000000137e-02 1.713996056196265272e-07
-2.170000000000000054e-02 1.924978789702436188e-07
-2.154999999999999971e-02 2.134175502988000517e-07
-2.139999999999999888e-02 2.359824406994448509e-07
-2.125000000000000153e-02 2.623107491217524512e-07
-2.110000000000000070e-02 2.941351908702927176e-07
-2.094999999999999987e-02 3.322028874208626803e-07
-2.079999999999999905e-02 3.760269464692100883e-07
-2.065000000000000169e-02 4.241492774781363551e-07
-2.050000000000000086e-02 4.748629578443797072e-07
-2.035000000000000003e-02 5.271157874631171580e-07
-2.019999999999999921e-02 5.811880328110419214e-07
-2.004999999999999838e-02 6.387942335095431190e-07
-1.990000000000000102e-02 7.025070090094232000e-07
-1.975000000000000019e-02 7.747439099148323294e-07
-1.959999999999999937e-02 8.568105158701655455e-07
-1.944999999999999854e-02 9.485025884714559652e-07
-1.930000000000000118e-02 1.048501644618227147e-06
-1.915000000000000036e-02 1.155385916717932560e-06
-1.899999999999999953e-02 1.268743744731182232e-06
-1.884999999999999870e-02 1.389799876960751135e-06
-1.870000000000000134e-02 1.521192643849644810e-06
-1.855000000000000052e-02 1.665988634158566128e-06
-1.839999999999999969e-02 1.826462039389298297e-06
-1.824999999999999886e-02 2.003355120905325748e-06
-1.810000000000000150e-02 2.196091145378886722e-06
-1.795000000000000068e-02 2.403826101726735942e-06
-1.779999999999999985e-02 2.626682999107288197e-06
-1.764999999999999902e-02 2.866407385226921178e-06
-1.750000000000000167e-02 3.126096544292522594e-06
-1.735000000000000084e-02 3.409239980101119727e-06
-1.720000000000000001e-02 3.718653488249401562e-06
-1.704999999999999918e-02 4.055867066199425608e-06
-1.689999999999999836e-02 4.421300673129735515e-06
-1.675000000000000100e-02 4.815211013919906691e-06
-1.660000000000000017e-02 5.238930498308036476e-06
-1.644999999999999934e-02 5.695559138985117897e-06
-1.629999999999999852e-02 6.189499345055082813e-06
-1.615000000000000116e-02 6.725102593918563798e-06
-1.600000000000000033e-02 7.305557573999976739e-06
-1.584999999999999951e-02 7.932940206956118345e-06
-1.569999999999999868e-02 8.609226824773941189e-06
-1.554999999999999959e-02 9.337197298009414226e-06
-1.540000000000000049e-02 1.012061784422257915e-05
-1.524999999999999967e-02 1.096404594136402011e-05
-1.510000000000000057e-02 1.187274847325170413e-05
-1.494999999999999975e-02 1.285244343307567760e-05
-1.480000000000000066e-02 1.390844499837839976e-05
-1.464999999999999983e-02 1.504486408521188423e-05
-1.450000000000000074e-02 1.626519951969385147e-05
-1.434999999999999991e-02 1.757426070980727673e-05
-1.420000000000000082e-02 1.897937727335374802e-05
-1.404999999999999999e-02 2.048912938334979117e-05
-1.389999999999999916e-02 2.211097489634994417e-05
-1.375000000000000007e-02 2.385077277722302824e-05
-1.359999999999999924e-02 2.571487493696622550e-05
-1.345000000000000015e-02 2.771186154859606177e-05
-1.329999999999999932e-02 2.985146420542150736e-05
-1.315000000000000023e-02 3.214235039195045829e-05
-1.299999999999999940e-02 3.459242725512012839e-05
-1.285000000000000031e-02 3.721154644154012203e-05
-1.269999999999999948e-02 4.001239722128957510e-05
-1.255000000000000039e-02 4.300759610487148166e-05
-1.239999999999999956e-02 4.620685649570077658e-05
-1.225000000000000047e-02 4.961897502653300762e-05
-1.209999999999999964e-02 5.325653546606190503e-05
-1.195000000000000055e-02 5.713661448680795729e-05
-1.179999999999999973e-02 6.127577944425866008e-05
-1.165000000000000063e-02 6.568615935975685716e-05
-1.149999999999999981e-02 7.037855539238080382e-05
-1.135000000000000071e-02 7.536871999036520720e-05
-1.119999999999999989e-02 8.067769522313028574e-05
-1.105000000000000079e-02 8.632557000964879990e-05
-1.089999999999999997e-02 9.232767479261383414e-05
-1.074999999999999914e-02 9.869902714854106307e-05
-1.060000000000000005e-02 1.054606764228083193e-04
-1.044999999999999922e-02 1.126382267102599144e-04
-1.030000000000000013e-02 1.202544372063130140e-04
-1.014999999999999930e-02 1.283270539715886116e-04
-1.000000000000000021e-02 1.368756638839840889e-04
-9.850001000000000589e-03 1.459279010305181146e-04
-9.700001999999999236e-03 1.555156341055408120e-04
-9.550001000000000670e-03 1.656661770539358258e-04
-9.400000999999999843e-03 1.764012267813086510e-04
-9.250002000000000224e-03 1.877446193248033524e-04
-9.100000999999999923e-03 1.997279032366350293e-04
-8.950001000000000831e-03 2.123857120750471950e-04
-8.800001999999999477e-03 2.257488522445783019e-04
-8.650000999999999177e-03 2.398450596956536174e-04
-8.500001999999999558e-03 2.547059848438948393e-04
-8.349999999999999784e-03 2.703691425267606974e-04
-8.200001000000000165e-03 2.868720330297946930e-04
-8.050002000000000546e-03 3.042475145775824785e-04
-7.900000000000000772e-03 3.225271648261696100e-04
-7.750001000000000285e-03 3.417471307329833508e-04
-7.600001999999999799e-03 3.619488561525940895e-04
-7.449998999999999684e-03 3.831743088085204363e-04
-7.300001000000000406e-03 4.054637392982840538e-04
-7.150001999999999920e-03 4.288575146347284317e-04
-7.000003000000000301e-03 4.533974279183894396e-04
-6.850000000000000186e-03 4.791249521076679230e-04
-6.700002000000000041e-03 5.060805124230682850e-04
-6.550003000000000422e-03 5.343063967302441597e-04
-6.400000000000000307e-03 5.638487054966390133e-04
-6.250000999999999821e-03 5.947550525888800621e-04
-6.100002999999999675e-03 6.270709563978016376e-04
-5.950000000000000427e-03 6.608407129533588886e-04
-5.800000999999999941e-03 6.961103063076734543e-04
-5.650002999999999796e-03 7.329264772124588490e-04
-5.499999999999999681e-03 7.713333470746874809e-04
-5.350001000000000062e-03 8.113729418255388737e-04
-5.200001999999999576e-03 8.530904888175427914e-04
-5.049999999999999802e-03 8.965368615463376045e-04
-4.900001000000000183e-03 9.417633991688489914e-04
-4.750001999999999697e-03 9.888150962069630623e-04
-4.599999999999999922e-03 1.037732115946710110e-03
-4.450001000000000304e-03 1.088555436581373215e-03
-4.300001999999999817e-03 1.141329645179212093e-03
-4.149998999999999702e-03 1.196098630316555500e-03
-4.000001000000000424e-03 1.252902788110077381e-03
-3.850001999999999938e-03 1.311781466938555241e-03
-3.699998999999999823e-03 1.372775295749306679e-03
-3.550000000000000204e-03 1.435924321413040161e-03
-3.400002000000000059e-03 1.501263119280338287e-03
-3.250003000000000006e-03 1.568821724504232407e-03
-3.099999999999999891e-03 1.638629357330501080e-03
-2.950002000000000180e-03 1.710715121589601040e-03
-2.800003000000000127e-03 1.785106607712805271e-03
-2.650000000000000012e-03 1.861828262917697430e-03
-2.500000999999999959e-03 1.940902322530746460e-03
-2.350002999999999814e-03 2.022348344326019287e-03
-2.200000000000000133e-03 2.106180181726813316e-03
-2.050001000000000080e-03 2.192404353991150856e-03
-1.900002000000000028e-03 2.281025052070617676e-03
-1.750000000000000036e-03 2.372046932578086853e-03
-1.600000999999999984e-03 2.465472323819994926e-03
-1.450001999999999932e-03 2.561295870691537857e-03
-1.299999999999999940e-03 2.659505000337958336e-03
-1.150001000000000105e-03 2.760082716122269630e-03
-1.000002000000000052e-03 2.863010158762335777e-03
-8.499994999999999990e-04 2.968261251226067543e-03
-7.000007000000000148e-04 3.075802465900778770e-03
-5.500019000000000305e-04 3.185594687238335609e-03
-3.999992999999999973e-04 3.297595540061593056e-03
-2.500005000000000131e-04 3.411759156733751297e-03
-1.000017000000000017e-04 3.528029192239046097e-03
5.000085000000000087e-05 3.646339755505323410e-03
1.999996999999999886e-04 3.766618901863694191e-03
3.499985000000000270e-04 3.888789098709821701e-03
4.999972999999999571e-04 4.012766759842634201e-03
6.499998000000000104e-04 4.138459451496601105e-03
7.999985999999999946e-04 4.265769384801387787e-03
9.499975000000000129e-04 4.394591320306062698e-03
1.100000000000000066e-03 4.524810239672660828e-03
1.249998999999999902e-03 4.656299017369747162e-03
1.399997999999999954e-03 4.788923542946577072e-03
1.549999999999999946e-03 4.922545049339532852e-03
1.699998999999999998e-03 5.057017784565687180e-03
1.849998000000000050e-03 5.192185286432504654e-03
2.000000000000000042e-03 5.327881779521703720e-03
2.149999000000000094e-03 5.463933106511831284e-03
2.299998000000000146e-03 5.600158590823411942e-03
2.449999999999999921e-03 5.736367311328649521e-03
2.599998999999999973e-03 5.872356705367565155e-03
2.749998000000000026e-03 6.007916294038295746e-03
2.900001000000000141e-03 6.142831407487392426e-03
3.049998999999999853e-03 6.276881322264671326e-03
3.199997999999999905e-03 6.409833207726478577e-03
3.350001000000000020e-03 6.541445385664701462e-03
3.500000000000000073e-03 6.671467330306768417e-03
3.649997999999999784e-03 6.799642462283372879e-03
3.800000999999999900e-03 6.925704888999462128e-03
3.950000000000000386e-03 7.049382198601961136e-03
4.099999000000000005e-03 7.170397788286209106e-03
4.249997000000000150e-03 7.288469932973384857e-03
4.400000000000000265e-03 7.403307128697633743e-03
4.549998999999999884e-03 7.514609023928642273e-03
4.699998000000000370e-03 7.622070610523223877e-03
4.850000000000000144e-03 7.725384086370468140e-03
4.999998999999999763e-03 7.824238389730453491e-03
5.149998000000000249e-03 7.918315008282661438e-03
5.300000000000000024e-03 8.007291704416275024e-03
5.449998999999999642e-03 8.090844377875328064e-03
5.599998000000000128e-03 8.168649859726428986e-03
5.749999999999999903e-03 8.240375667810440063e-03
5.899999000000000389e-03 8.305688388645648956e-03
6.049998000000000008e-03 8.364254608750343323e-03
6.200001000000000123e-03 8.415742777287960052e-03
6.349999000000000268e-03 8.459822274744510651e-03
6.499997999999999887e-03 8.496161550283432007e-03
6.650001000000000002e-03 8.524432778358459473e-03
6.799999999999999621e-03 8.544309064745903015e-03
6.949997999999999766e-03 8.555464446544647217e-03
7.100000999999999882e-03 8.557576686143875122e-03
7.250000000000000368e-03 8.550330996513366699e-03
7.399998999999999987e-03 8.533418178558349609e-03
7.550000999999999761e-03 8.506538346409797668e-03
7.700000000000000247e-03 8.469395339488983154e-03
7.849998999999999866e-03 8.421699516475200653e-03
7.999997999999999485e-03 8.363169617950916290e-03
8.149999999999999259e-03 8.293536491692066193e-03
8.299999000000000612e-03 8.212542161345481873e-03
8.449998000000000231e-03 8.119936101138591766e-03
8.600000000000000006e-03 8.015483617782592773e-03
8.749998999999999624e-03 7.898963987827301025e-03
8.899997999999999243e-03 7.770169526338577271e-03
9.050000000000000752e-03 7.628905121237039566e-03
9.199999000000000371e-03 7.474989630281925201e-03
9.349997999999999990e-03 7.308260072022676468e-03
9.500000999999999238e-03 7.128571160137653351e-03
9.649998999999999383e-03 6.935795769095420837e-03
9.799998000000000736e-03 6.729825399816036224e-03
9.950000999999999984e-03 6.510571576654911041e-03
1.009999999999999960e-02 6.277965847402811050e-03
1.025000000000000043e-02 6.031957920640707016e-03
1.039999999999999952e-02 5.772516597062349319e-03
1.055000000000000035e-02 5.499635823071002960e-03
1.069999999999999944e-02 5.213334225118160248e-03
1.085000000000000027e-02 4.913654178380966187e-03
1.099999999999999936e-02 4.600658547133207321e-03
1.115000000000000019e-02 4.274433478713035583e-03
1.129999999999999928e-02 3.935090266168117523e-03
1.145000000000000011e-02 3.582766279578208923e-03
1.159999999999999920e-02 3.217622404918074608e-03
1.175000000000000003e-02 2.839845372363924980e-03
1.190000000000000085e-02 2.449648920446634293e-03
1.204999999999999995e-02 2.047274028882384300e-03
1.220000000000000077e-02 1.632986008189618587e-03
1.234999999999999987e-02 1.207074499689042568e-03
1.250000000000000069e-02 7.698560366407036781e-04
1.264999999999999979e-02 3.216741897631436586e-04
1.280000000000000061e-02 -1.371021644445136189e-04
1.294999999999999971e-02 -6.060791201889514923e-04
1.310000000000000053e-02 -1.084835734218358994e-03
1.324999999999999963e-02 -1.572923269122838974e-03
1.340000000000000045e-02 -2.069869078695774078e-03
1.354999999999999954e-02 -2.575179096311330795e-03
1.370000000000000037e-02 -3.088336437940597534e-03
1.384999999999999946e-02 -3.608798142522573471e-03
1.400000000000000029e-02 -4.135995171964168549e-03
1.414999999999999938e-02 -4.669337999075651169e-03
1.430000000000000021e-02 -5.208215210586786270e-03
1.444999999999999930e-02 -5.751994904130697250e-03
1.460000000000000013e-02 -6.300026085227727890e-03
1.474999999999999922e-02 -6.851637735962867737e-03
1.490000000000000005e-02 -7.406142540276050568e-03
1.504999999999999914e-02 -7.962833158671855927e-03
1.519999999999999997e-02 -8.520984090864658356e-03
1.535000000000000080e-02 -9.079854935407638550e-03
1.549999999999999989e-02 -9.638695977628231049e-03
1.565000000000000072e-02 -1.019674167037010193e-02
1.580000000000000154e-02 -1.075321529060602188e-02
1.594999999999999890e-02 -1.130732987076044083e-02
1.609999999999999973e-02 -1.185828819870948792e-02
1.625000000000000056e-02 -1.240528840571641922e-02
1.640000000000000138e-02 -1.294751930981874466e-02
1.654999999999999874e-02 -1.348416507244110107e-02
1.669999999999999957e-02 -1.401440519839525223e-02
1.685000000000000039e-02 -1.453742291778326035e-02
1.700000000000000122e-02 -1.505239959806203842e-02
1.714999999999999858e-02 -1.555851660668849945e-02
1.729999999999999941e-02 -1.605495810508728027e-02
1.745000000000000023e-02 -1.654091104865074158e-02
1.760000000000000106e-02 -1.701557263731956482e-02
1.774999999999999842e-02 -1.747814007103443146e-02
1.789999999999999925e-02 -1.792782917618751526e-02
1.805000000000000007e-02 -1.836386509239673615e-02
1.820000000000000090e-02 -1.878548599779605865e-02
1.835000000000000173e-02 -1.919193752110004425e-02
1.849999999999999908e-02 -1.958248578011989594e-02
1.864999999999999991e-02 -1.995641365647315979e-02
1.880000000000000074e-02 -2.031302265822887421e-02
1.895000000000000157e-02 -2.065163850784301758e-02
1.909999999999999892e-02 -2.097160182893276215e-02
1.924999999999999975e-02 -2.127228304743766785e-02
1.940000000000000058e-02 -2.155307680368423462e-02
1.955000000000000140e-02 -2.181340381503105164e-02
1.969999999999999876e-02 -2.205271087586879730e-02
1.984999999999999959e-02 -2.227047272026538849e-02
2.000000000000000042e-02 -2.246619574725627899e-02
2.015000000000000124e-02 -2.263942360877990723e-02
2.029999999999999860e-02 -2.278972603380680084e-02
2.044999999999999943e-02 -2.291671186685562134e-02
2.060000000000000026e-02 -2.302002161741256714e-02
2.075000000000000108e-02 -2.309933304786682129e-02
2.089999999999999844e-02 -2.315435931086540222e-02
2.104999999999999927e-02 -2.318484894931316376e-02
2.120000000000000009e-02 -2.319059334695339203e-02
2.135000000000000092e-02 -2.317142672836780548e-02
2.149999999999999828e-02 -2.312721684575080872e-02
2.164999999999999911e-02 -2.305787801742553711e-02
2.179999999999999993e-02 -2.296335808932781219e-02
2.195000000000000076e-02 -2.284365147352218628e-02
2.210000000000000159e-02 -2.269879169762134552e-02
2.224999999999999895e-02 -2.252885513007640839e-02
2.239999999999999977e-02 -2.233395911753177643e-02
2.255000000000000060e-02 -2.211426757276058197e-02
2.270000000000000143e-02 -2.186998166143894196e-02
2.284999999999999878e-02 -2.160134539008140564e-02
2.299999999999999961e-02 -2.130864374339580536e-02
2.315000000000000044e-02 -2.099220082163810730e-02
2.330000000000000127e-02 -2.065238729119300842e-02
2.344999999999999862e-02 -2.028961107134819031e-02
2.359999999999999945e-02 -1.990431733429431915e-02
2.375000000000000028e-02 -1.949699223041534424e-02
2.390000000000000110e-02 -1.906816102564334869e-02
2.404999999999999846e-02 -1.861838810145854950e-02
2.419999999999999929e-02 -1.814826577901840210e-02
2.435000000000000012e-02 -1.765842549502849579e-02
2.450000000000000094e-02 -1.714953593909740448e-02
2.464999999999999830e-02 -1.662229560315608978e-02
2.479999999999999913e-02 -1.607743278145790100e-02
2.494999999999999996e-02 -1.551571208983659744e-02
2.510000000000000078e-02 -1.493792142719030380e-02
2.525000000000000161e-02 -1.434487663209438324e-02
2.539999999999999897e-02 -1.373741589486598969e-02
2.554999999999999979e-02 -1.311640441417694092e-02
2.570000000000000062e-02 -1.248273346573114395e-02
2.585000000000000145e-02 -1.183731295168399811e-02
2.599999999999999881e-02 -1.118106953799724579e-02
2.614999999999999963e-02 -1.051494479179382324e-02
2.630000000000000046e-02 -9.839895181357860565e-03
2.645000000000000129e-02 -9.156893938779830933e-03
2.659999999999999865e-02 -8.466923609375953674e-03
2.674999999999999947e-02 -7.770975120365619659e-03
2.690000000000000030e-02 -7.070047780871391296e-03
2.705000000000000113e-02 -6.365147884935140610e-03
2.719999999999999848e-02 -5.657283589243888855e-03
2.734999999999999931e-02 -4.947461187839508057e-03
2.750000000000000014e-02 -4.236686509102582932e-03
2.765000000000000097e-02 -3.525963984429836273e-03
2.779999999999999832e-02 -2.816293854266405106e-03
2.794999999999999915e-02 -2.108669839799404144e-03
2.809999999999999998e-02 -1.404075999744236469e-03
2.825000000000000080e-02 -7.034866721369326115e-04
2.840000000000000163e-02 -7.862671736802440137e-06
2.854999999999999899e-02 6.818523397669196129e-04
2.869999999999999982e-02 1.364731462672352791e-03
2.885000000000000064e-02 2.039863262325525284e-03
2.900000000000000147e-02 2.706353552639484406e-03
2.914999999999999883e-02 3.363330382853746414e-03
2.929999999999999966e-02 4.009948112070560455e-03
2.945000000000000048e-02 4.645385779440402985e-03
2.960000000000000131e-02 5.268848501145839691e-03
2.974999999999999867e-02 5.879568867385387421e-03
2.989999999999999949e-02 6.476807873696088791e-03
3.005000000000000032e-02 7.059856783598661423e-03
3.020000000000000115e-02 7.628036197274923325e-03
3.034999999999999851e-02 8.180700242519378662e-03
3.049999999999999933e-02 8.717238903045654297e-03
3.065000000000000016e-02 9.237076155841350555e-03
3.080000000000000099e-02 9.739669971168041229e-03
3.094999999999999835e-02 1.022451557219028473e-02
3.109999999999999917e-02 1.069114543497562408e-02
3.125000000000000000e-02 1.113912649452686310e-02
3.139999999999999736e-02 1.156806573271751404e-02
3.155000000000000165e-02 1.197760831564664841e-02
3.169999999999999901e-02 1.236743573099374771e-02
3.185000000000000331e-02 1.273727230727672577e-02
3.200000000000000067e-02 1.308687962591648102e-02
3.214999999999999802e-02 1.341605745255947113e-02
3.230000000000000232e-02 1.372464280575513840e-02
3.244999999999999968e-02 1.401251088827848434e-02
3.259999999999999704e-02 1.427957788109779358e-02
3.275000000000000133e-02 1.452579535543918610e-02
3.289999999999999869e-02 1.475115306675434113e-02
3.305000000000000299e-02 1.495568174868822098e-02
3.320000000000000034e-02 1.513944659382104874e-02
3.334999999999999770e-02 1.530254445970058441e-02
3.350000000000000200e-02 1.544510759413242340e-02
3.364999999999999936e-02 1.556730456650257111e-02
3.379999999999999671e-02 1.566933654248714447e-02
3.395000000000000101e-02 1.575143821537494659e-02
3.409999999999999837e-02 1.581387408077716827e-02
3.425000000000000266e-02 1.585694029927253723e-02
3.440000000000000002e-02 1.588095724582672119e-02
3.454999999999999738e-02 1.588627882301807404e-02
3.470000000000000168e-02 1.587327942252159119e-02
3.484999999999999903e-02 1.584236510097980499e-02
3.500000000000000333e-02 1.579396054148674011e-02
3.515000000000000069e-02 1.572851464152336121e-02
3.529999999999999805e-02 1.564650237560272217e-02
3.545000000000000234e-02 1.554840896278619766e-02
3.559999999999999970e-02 1.543474290519952774e-02
3.574999999999999706e-02 1.530602946877479553e-02
3.590000000000000135e-02 1.516280788928270340e-02
3.604999999999999871e-02 1.500563137233257294e-02
3.620000000000000301e-02 1.483506802469491959e-02
3.635000000000000037e-02 1.465169712901115417e-02
3.649999999999999772e-02 1.445610541850328445e-02
3.665000000000000202e-02 1.424888614565134048e-02
3.679999999999999938e-02 1.403063908219337463e-02
3.694999999999999674e-02 1.380197238177061081e-02
3.710000000000000103e-02 1.356349419802427292e-02
3.724999999999999839e-02 1.331581827253103256e-02
3.740000000000000269e-02 1.305955834686756134e-02
3.755000000000000004e-02 1.279532816261053085e-02
3.769999999999999740e-02 1.252373773604631424e-02
3.785000000000000170e-02 1.224539428949356079e-02
3.799999999999999906e-02 1.196089852601289749e-02
3.815000000000000335e-02 1.167085301131010056e-02
3.830000000000000071e-02 1.137584820389747620e-02
3.844999999999999807e-02 1.107647083699703217e-02
3.860000000000000236e-02 1.077329553663730621e-02
3.874999999999999972e-02 1.046688854694366455e-02
3.889999999999999708e-02 1.015780586749315262e-02
3.905000000000000138e-02 9.846588596701622009e-03
3.919999999999999873e-02 9.533768519759178162e-03
3.935000000000000303e-02 9.219865314662456512e-03
3.950000000000000039e-02 8.905383758246898651e-03
3.964999999999999775e-02 8.590816520154476166e-03
3.980000000000000204e-02 8.276635780930519104e-03
3.994999999999999940e-02 7.963300682604312897e-03
4.009999999999999676e-02 7.651255466043949127e-03
4.025000000000000105e-02 7.340923883020877838e-03
4.039999999999999841e-02 7.032716181129217148e-03
4.055000000000000271e-02 6.727023981511592865e-03
4.070000000000000007e-02 6.424224004149436951e-03
4.084999999999999742e-02 6.124672479927539825e-03
4.100000000000000172e-02 5.828705616295337677e-03
4.114999999999999908e-02 5.536641925573348999e-03
4.130000000000000338e-02 5.248782690614461899e-03
4.145000000000000073e-02 4.965413361787796021e-03
4.159999999999999809e-02 4.686798434704542160e-03
4.175000000000000239e-02 4.413185641169548035e-03
4.189999999999999974e-02 4.144803155213594437e-03
4.204999999999999710e-02 3.881861921399831772e-03
4.220000000000000140e-02 3.624553093686699867e-03
4.234999999999999876e-02 3.373050363734364510e-03
4.250000000000000305e-02 3.127512056380510330e-03
4.265000000000000041e-02 2.888080663979053497e-03
4.279999999999999777e-02 2.654880750924348831e-03
4.295000000000000207e-02 2.428019419312477112e-03
4.309999999999999942e-02 2.207587938755750656e-03
4.324999999999999678e-02 1.993663143366575241e-03
4.340000000000000108e-02 1.786305685527622700e-03
4.354999999999999843e-02 1.585560967214405537e-03
4.370000000000000273e-02 1.391461002640426159e-03
4.385000000000000009e-02 1.204025815241038799e-03
4.399999999999999745e-02 1.023262389935553074e-03
4.415000000000000174e-02 8.491633925586938858e-04
4.429999999999999910e-02 6.817081593908369541e-04
4.445000000000000340e-02 5.208649090491235256e-04
4.460000000000000075e-02 3.665919066406786442e-04
4.474999999999999811e-02 2.188372018281370401e-04
4.490000000000000241e-02 7.753925456199795008e-05
4.504999999999999977e-02 -5.737234459957107902e-05
4.519999999999999712e-02 -1.859770418377593160e-04
4.535000000000000142e-02 -3.083640476688742638e-04
4.549999999999999878e-02 -4.246312309987843037e-04
4.565000000000000308e-02 -5.348826525732874870e-04
4.580000000000000043e-02 -6.392272771336138248e-04
4.594999999999999779e-02 -7.377794245257973671e-04
4.610000000000000209e-02 -8.306597592309117317e-04
4.624999999999999944e-02 -9.179946500808000565e-04
4.639999999999999680e-02 -9.999151807278394699e-04
4.655000000000000110e-02 -1.076556742191314697e-03
4.669999999999999846e-02 -1.148058334365487099e-03
4.685000000000000275e-02 -1.214561052620410919e-03
4.700000000000000011e-02 -1.276207622140645981e-03
4.714999999999999747e-02 -1.333142747171223164e-03
4.730000000000000177e-02 -1.385514158755540848e-03
4.744999999999999912e-02 -1.433471217751502991e-03
4.760000000000000342e-02 -1.477163983508944511e-03
4.775000000000000078e-02 -1.516742748208343983e-03
4.789999999999999813e-02 -1.552358153276145458e-03
4.805000000000000243e-02 -1.584160141646862030e-03
4.819999999999999979e-02 -1.612297608517110348e-03
4.834999999999999715e-02 -1.636918401345610619e-03
4.850000000000000144e-02 -1.658170134760439396e-03