-1.200000e-01 0.000000e+00
-1.190000e-01 0.000000e+00
-1.180000e-01 0.000000e+00
-1.170000e-01 0.000000e+00
-1.160000e-01 0.000000e+00
-1.150000e-01 0.000000e+00
-1.140000e-01 0.000000e+00
-1.130000e-01 0.000000e+00
-1.120000e-01 0.000000e+00
-1.110000e-01 0.000000e+00
-1.100000e-01 0.000000e+00
-1.090000e-01 0.000000e+00
-1.080000e-01 0.000000e+00
-1.070000e-01 0.000000e+00
-1.060000e-01 0.000000e+00
-1.050000e-01 0.000000e+00
-1.040000e-01 0.000000e+00
-1.030000e-01 0.000000e+00
-1.020000e-01 0.000000e+00
-1.010000e-01 0.000000e+00
-1.000000e-01 0.000000e+00
-9.900001e-02 -1.401298e-45
-9.800000e-02 -1.036961e-43
-9.700000e-02 -1.025750e-42
-9.600000e-02 -4.111410e-42
-9.500001e-02 3.286045e-42
-9.400000e-02 1.203267e-40
-9.300000e-02 5.939894e-40
-9.200001e-02 9.311628e-40
-9.100001e-02 -4.613841e-39
-9.000000e-02 -3.401614e-38
-8.900000e-02 -9.490064e-38
-8.800000e-02 -3.466257e-38
-8.700000e-02 7.823785e-37
-8.600000e-02 3.345701e-36
-8.500001e-02 6.157881e-36
-8.400001e-02 -2.858574e-36
-8.300000e-02 -5.283840e-35
-8.200000e-02 -1.601938e-34
-8.100000e-02 -2.046202e-34
-8.000000e-02 2.636282e-34
-7.900000e-02 1.926640e-33
-7.800000e-02 4.497639e-33
-7.700001e-02 3.962022e-33
-7.600001e-02 -9.339693e-33
-7.500000e-02 -4.397784e-32
-7.400000e-02 -8.269569e-32
-7.300000e-02 -4.733205e-32
-7.200000e-02 1.941105e-31
-7.100000e-02 6.845046e-31
-7.000001e-02 1.066140e-30
-6.900001e-02 3.384962e-31
-6.800000e-02 -2.688478e-30
-6.700000e-02 -7.629071e-30
-6.600000e-02 -1.001234e-29
-6.500000e-02 -1.004383e-30
-6.400000e-02 2.613145e-29
-6.300000e-02 6.188931e-29
-6.200000e-02 6.877709e-29
-6.100000e-02 -6.044877e-30
-6.000000e-02 -1.774073e-28
-5.900000e-02 -3.517087e-28
-5.800000e-02 -3.216245e-28
-5.700000e-02 8.429894e-29
-5.600000e-02 7.343650e-28
-5.500000e-02 1.082904e-27
-5.400001e-02 5.901851e-28
-5.300000e-02 -3.578268e-28
-5.200000e-02 -5.605467e-30
-5.100000e-02 3.131357e-27
-5.000000e-02 6.207359e-27
-4.900000e-02 -8.422623e-28
-4.800000e-02 -2.947134e-26
-4.700000e-02 -7.303536e-26
-4.600000e-02 -8.364678e-26
-4.500000e-02 2.268074e-26
-4.400000e-02 2.953887e-25
-4.300000e-02 6.190142e-25
-4.200000e-02 6.239340e-25
-4.100000e-02 -1.791637e-25
-4.000000e-02 -1.919849e-24
-3.900000e-02 -3.723254e-24
-3.800000e-02 -3.514510e-24
-3.700000e-02 9.466526e-25
-3.600000e-02 9.634297e-24
-3.500000e-02 1.775383e-23
-3.400000e-02 1.599110e-23
-3.300000e-02 -3.941798e-24
-3.200000e-02 -3.940841e-23
-3.100000e-02 -6.931261e-23
-3.000000e-02 -5.924849e-23
-2.900000e-02 1.492507e-23
-2.800000e-02 1.342346e-22
-2.700000e-02 2.211939e-22
-2.600000e-02 1.717947e-22
-2.500000e-02 -6.158005e-23
-2.400000e-02 -3.837433e-22
-2.300000e-02 -5.536522e-22
-2.200000e-02 -3.277855e-22
-2.100000e-02 2.963771e-22
-2.000000e-02 9.237963e-22
-1.900000e-02 9.213289e-22
-1.800000e-02 -5.420456e-23
-1.700000e-02 -1.472276e-21
-1.600000e-02 -1.897499e-21
-1.500000e-02 3.287503e-23
-1.400000e-02 3.937838e-21
-1.300000e-02 6.658143e-21
-1.200000e-02 3.527643e-21
-1.100000e-02 -7.595492e-21
-9.999998e-03 -2.171816e-20
-8.999996e-03 -2.601716e-20
-8.000001e-03 -6.879017e-21
-6.999999e-03 3.664745e-20
-5.999997e-03 8.184233e-20
-5.000003e-03 8.657306e-20
-4.000001e-03 1.559636e-20
-2.999999e-03 -1.211815e-19
-1.999997e-03 -2.468969e-19
-1.000002e-03 -2.437420e-19
0.000000e+00 -3.314789e-20
1.000002e-03 3.300814e-19
2.000004e-03 6.271364e-19
2.999999e-03 5.729563e-19
4.000001e-03 2.759188e-20
4.999995e-03 -8.048752e-19
5.999997e-03 -1.373930e-18
6.999999e-03 -1.083054e-18
8.000001e-03 2.164918e-19
9.000003e-03 1.878416e-18
1.000001e-02 2.643642e-18
1.100001e-02 1.454478e-18
1.199999e-02 -1.512463e-18
1.300000e-02 -4.410931e-18
1.400000e-02 -4.573288e-18
1.500000e-02 -5.154726e-19
1.600000e-02 6.130008e-18
1.700000e-02 1.052491e-17
1.800001e-02 7.375678e-18
1.900001e-02 -4.524673e-18
2.000000e-02 -1.911686e-17
2.100000e-02 -2.474227e-17
2.200000e-02 -1.156307e-17
2.300000e-02 1.895074e-17
2.400000e-02 4.969039e-17
2.500001e-02 5.488452e-17
2.600001e-02 1.768926e-17
2.700000e-02 -5.162793e-17
2.800000e-02 -1.118831e-16
2.900000e-02 -1.110087e-16
3.000000e-02 -2.359279e-17
3.100000e-02 1.175413e-16
3.200001e-02 2.239291e-16
3.300001e-02 1.998466e-16
3.400001e-02 1.537031e-17
3.500000e-02 -2.452105e-16
3.600000e-02 -4.078132e-16
3.700000e-02 -3.132884e-16
3.800000e-02 5.193477e-17
3.900000e-02 4.942328e-16
4.000001e-02 6.938311e-16
4.100001e-02 4.140249e-16
4.200000e-02 -2.833778e-16
4.300000e-02 -9.855370e-16
4.400000e-02 -1.136379e-15
4.500000e-02 -4.282491e-16
4.600000e-02 8.706918e-16
4.700001e-02 1.933533e-15
4.800001e-02 1.837242e-15
4.900001e-02 2.544242e-16
5.000000e-02 -2.092402e-15
5.100000e-02 -3.645244e-15
5.200000e-02 -2.941499e-15
5.300000e-02 2.318013e-16
5.400001e-02 4.279045e-15
5.500001e-02 6.443819e-15
5.600001e-02 4.534835e-15
5.700000e-02 -1.259355e-15
5.800000e-02 -7.813173e-15
5.900000e-02 -1.054626e-14
6.000000e-02 -6.410361e-15
6.100000e-02 3.434147e-15
6.200001e-02 1.333258e-14
6.300001e-02 1.609825e-14
6.400001e-02 7.889295e-15
6.500000e-02 -8.104975e-15
6.600000e-02 -2.219460e-14
6.700000e-02 -2.362108e-14
6.800000e-02 -8.138653e-15
6.900001e-02 1.726899e-14
7.000001e-02 3.668088e-14
7.100001e-02 3.456941e-14
7.200000e-02 7.084670e-15
7.300000e-02 -3.240293e-14
7.400000e-02 -5.882367e-14
7.500000e-02 -5.055140e-14
7.600001e-02 -5.488890e-15
7.700001e-02 5.317097e-14
7.800001e-02 8.783768e-14
7.900001e-02 6.987536e-14
8.000000e-02 1.474840e-15
8.100000e-02 -7.972848e-14
8.200000e-02 -1.200540e-13
8.300000e-02 -8.431119e-14
8.400001e-02 1.589604e-14
8.500001e-02 1.213085e-13
8.600001e-02 1.576201e-13
8.700001e-02 8.516514e-14
8.800000e-02 -6.595687e-14
8.900000e-02 -2.029267e-13
9.000000e-02 -2.228561e-13
9.100001e-02 -8.325784e-14
9.200001e-02 1.552669e-13
9.300001e-02 3.492340e-13
9.400001e-02 3.537384e-13
9.500000e-02 1.211016e-13
9.600000e-02 -2.473049e-13
9.700000e-02 -5.398539e-13
9.800000e-02 -5.542793e-13
9.900001e-02 -2.320965e-13
1.000000e-01 2.793316e-13
1.010000e-01 6.901708e-13
1.020000e-01 7.347340e-13
1.030000e-01 3.467766e-13
1.040000e-01 -2.713883e-13
1.050000e-01 -7.472686e-13
1.060000e-01 -7.626326e-13
1.070000e-01 -2.721247e-13
1.080000e-01 4.313447e-13
1.090000e-01 8.706979e-13
1.100000e-01 6.866836e-13
1.110000e-01 -9.434405e-14
1.120000e-01 -1.013813e-12
1.130000e-01 -1.422380e-12
1.140000e-01 -8.929373e-13
1.150000e-01 4.449035e-13
1.160000e-01 1.885951e-12
1.170000e-01 2.510420e-12
1.180000e-01 1.747201e-12
1.190000e-01 -1.987167e-13
1.200000e-01 -2.354134e-12
1.210000e-01 -3.479268e-12
1.220000e-01 -2.808065e-12
1.230000e-01 -5.820628e-13
1.240000e-01 1.992538e-12
1.250000e-01 3.408296e-12
1.260000e-01 2.786263e-12
1.270000e-01 4.996854e-13
1.280000e-01 -1.952548e-12
1.290000e-01 -2.831359e-12
1.300000e-01 -1.312743e-12
1.310000e-01 1.818070e-12
1.320000e-01 4.458516e-12
1.330000e-01 4.414056e-12
1.340000e-01 8.837046e-13
1.350000e-01 -4.732372e-12
1.360000e-01 -9.331739e-12
1.370000e-01 -9.786333e-12
1.380000e-01 -4.894998e-12
1.390000e-01 3.583362e-12
1.400000e-01 1.157892e-11
1.410000e-01 1.483743e-11
1.420000e-01 1.137175e-11
1.430000e-01 2.764067e-12
1.440000e-01 -6.579861e-12
1.450000e-01 -1.192253e-11
1.460000e-01 -1.100619e-11
1.470000e-01 -5.434922e-12
1.480000e-01 3.553940e-13
1.490000e-01 2.048951e-12
1.500000e-01 -1.467871e-12
1.510000e-01 -6.955364e-12
1.520000e-01 -8.611783e-12
1.530000e-01 -1.983305e-12
1.540000e-01 1.235037e-11
1.550000e-01 2.783803e-11
1.560000e-01 3.485217e-11
1.570000e-01 2.617556e-11
1.580000e-01 2.001514e-12
1.590000e-01 -2.874737e-11
1.600000e-01 -5.210158e-11
1.610000e-01 -5.613265e-11
1.620000e-01 -3.760624e-11
1.630000e-01 -4.250190e-12
1.640000e-01 2.901184e-11
1.650000e-01 4.800390e-11
1.660000e-01 4.691684e-11
1.670000e-01 3.103438e-11
1.680000e-01 1.275734e-11
1.690000e-01 3.203422e-12
1.700000e-01 4.604951e-12
1.710000e-01 8.572907e-12
1.720000e-01 1.872369e-12
1.730000e-01 -2.344642e-11
1.740000e-01 -6.195320e-11
1.750000e-01 -9.461402e-11
1.760000e-01 -9.788861e-11
1.770000e-01 -5.777340e-11
1.780000e-01 1.931643e-11
1.790000e-01 1.060047e-10
1.800000e-01 1.654494e-10
1.810000e-01 1.694917e-10
1.820000e-01 1.136135e-10
1.830000e-01 1.996846e-11
1.840000e-01 -7.378700e-11
1.850000e-01 -1.338976e-10
1.860000e-01 -1.470678e-10
1.870000e-01 -1.244650e-10
1.880000e-01 -9.086909e-11
1.890000e-01 -6.588852e-11
1.900000e-01 -4.953107e-11
1.910000e-01 -2.225182e-11
1.920000e-01 3.928820e-11
1.930000e-01 1.400185e-10
1.940000e-01 2.526003e-10
1.950000e-01 3.232224e-10
1.960000e-01 2.971627e-10
1.970000e-01 1.515656e-10
1.980000e-01 -8.346060e-11
1.990000e-01 -3.297786e-10
2.000000e-01 -4.928162e-10
2.010000e-01 -5.050345e-10
2.020000e-01 -3.585087e-10
2.030000e-01 -1.086315e-10
2.040000e-01 1.535531e-10
2.050000e-01 3.452781e-10
2.060000e-01 4.278175e-10
2.070000e-01 4.145693e-10
2.080000e-01 3.486472e-10
2.090000e-01 2.658964e-10
2.100000e-01 1.684891e-10
2.110000e-01 2.775143e-11
2.120000e-01 -1.841048e-10
2.130000e-01 -4.537839e-10
2.140000e-01 -7.070995e-10
2.150000e-01 -8.286841e-10
2.160000e-01 -7.169881e-10
2.170000e-01 -3.467728e-10
2.180000e-01 1.976446e-10
2.190000e-01 7.425459e-10
2.200000e-01 1.094104e-09
2.210000e-01 1.123976e-09
2.220000e-01 8.268565e-10
2.230000e-01 3.190253e-10
2.240000e-01 -2.213363e-10
2.250000e-01 -6.388960e-10
2.260000e-01 -8.641861e-10
2.270000e-01 -9.214463e-10
2.280000e-01 -8.816525e-10
2.290000e-01 -7.944008e-10
2.300000e-01 -6.457773e-10
2.310000e-01 -3.728915e-10
2.320000e-01 7.134582e-11
2.330000e-01 6.449743e-10
2.340000e-01 1.187964e-09
2.350000e-01 1.468150e-09
2.360000e-01 1.288329e-09
2.370000e-01 6.003016e-10
2.380000e-01 -4.404077e-10
2.390000e-01 -1.517659e-09
2.400000e-01 -2.282767e-09
2.410000e-01 -2.504967e-09
2.420000e-01 -2.167415e-09
2.430000e-01 -1.459039e-09
2.440000e-01 -6.691572e-10
2.450000e-01 -4.632206e-11
2.460000e-01 3.024301e-10
2.470000e-01 4.142819e-10
2.480000e-01 3.881837e-10
2.490000e-01 2.740563e-10
2.500000e-01 1.523404e-11
2.510000e-01 -5.149516e-10
2.520000e-01 -1.399329e-09
2.530000e-01 -2.557755e-09
2.540000e-01 -3.712053e-09
2.550000e-01 -4.469996e-09
2.560000e-01 -4.505850e-09
2.570000e-01 -3.738933e-09
2.580000e-01 -2.405017e-09
2.590000e-01 -9.808616e-10
2.600000e-01 2.816591e-11
2.610000e-01 3.043397e-10
2.620000e-01 -1.479918e-10
2.630000e-01 -1.029122e-09
2.640000e-01 -1.927702e-09
2.650000e-01 -2.534819e-09
2.660000e-01 -2.760771e-09
2.670000e-01 -2.732861e-09
2.680000e-01 -2.642366e-09
2.690000e-01 -2.553406e-09
2.700000e-01 -2.334218e-09
2.710000e-01 -1.722128e-09
2.720000e-01 -5.115908e-10
2.730000e-01 1.249191e-09
2.740000e-01 3.227797e-09
2.750000e-01 4.908316e-09
2.760000e-01 5.854190e-09
2.770000e-01 5.924221e-09
2.780000e-01 5.404900e-09
2.790000e-01 4.880803e-09
2.800000e-01 4.936055e-09
2.810000e-01 5.889206e-09
2.820000e-01 7.671815e-09
2.830000e-01 9.789346e-09
2.840000e-01 1.169201e-08
2.850000e-01 1.302033e-08
2.860000e-01 1.378430e-08
2.870000e-01 1.426542e-08
2.880000e-01 1.480248e-08
2.890000e-01 1.557873e-08
2.900000e-01 1.642456e-08
2.910000e-01 1.696799e-08
2.920000e-01 1.681747e-08
2.930000e-01 1.595481e-08
2.940000e-01 1.465651e-08
2.950000e-01 1.340686e-08
2.960000e-01 1.266926e-08
2.970000e-01 1.245007e-08
2.980000e-01 1.237277e-08
2.990000e-01 1.178250e-08
3.000000e-01 9.982614e-09
3.010000e-01 6.794835e-09
3.020000e-01 2.612069e-09
3.030000e-01 -1.895387e-09
3.040000e-01 -5.972652e-09
3.050000e-01 -9.094038e-09
3.060000e-01 -1.145327e-08
3.070000e-01 -1.347598e-08
3.080000e-01 -1.567878e-08
3.090000e-01 -1.838180e-08
3.100000e-01 -2.154229e-08
3.110000e-01 -2.475008e-08
3.120000e-01 -2.764136e-08
3.130000e-01 -2.991601e-08
3.140000e-01 -3.188597e-08
3.150000e-01 -3.383775e-08
3.160000e-01 -3.617060e-08
3.170000e-01 -3.877540e-08
3.180000e-01 -4.117373e-08
3.190000e-01 -4.249887e-08
3.200000e-01 -4.203594e-08
3.210000e-01 -3.953937e-08
3.220000e-01 -3.547666e-08
3.230000e-01 -3.075138e-08
3.240000e-01 -2.634533e-08
3.250000e-01 -2.273441e-08
3.260000e-01 -1.980993e-08
3.270000e-01 -1.701756e-08
3.280000e-01 -1.377893e-08
3.290000e-01 -9.771838e-09
3.300000e-01 -5.280526e-09
3.310000e-01 -6.705250e-10
3.320000e-01 3.637069e-09
3.330000e-01 7.613835e-09
3.340000e-01 1.152512e-08
3.350000e-01 1.581884e-08
3.360000e-01 2.093839e-08
3.370000e-01 2.666093e-08
3.380000e-01 3.238438e-08
3.390000e-01 3.719924e-08
3.400000e-01 4.040066e-08
3.410000e-01 4.170943e-08
3.420000e-01 4.142021e-08
3.430000e-01 4.024423e-08
3.440000e-01 3.895002e-08
3.450000e-01 3.792229e-08
3.460000e-01 3.719288e-08
3.470000e-01 3.623063e-08
3.480000e-01 3.442801e-08
3.490000e-01 3.163586e-08
3.500000e-01 2.818524e-08
3.510000e-01 2.460183e-08
3.520000e-01 2.142951e-08
3.530000e-01 1.890112e-08
3.540000e-01 1.670560e-08
3.550000e-01 1.417447e-08
3.560000e-01 1.077206e-08
3.570000e-01 6.438313e-09
3.580000e-01 1.637090e-09
3.590000e-01 -2.874003e-09
3.600000e-01 -6.320988e-09
3.610000e-01 -8.674760e-09
3.620000e-01 -1.026092e-08
3.630000e-01 -1.175886e-08
3.640000e-01 -1.363060e-08
3.650000e-01 -1.589433e-08
3.660000e-01 -1.805347e-08
3.670000e-01 -1.946000e-08
3.680000e-01 -1.969738e-08
3.690000e-01 -1.885337e-08
3.700000e-01 -1.738545e-08
3.710000e-01 -1.585204e-08
3.720000e-01 -1.465014e-08
3.730000e-01 -1.384478e-08
3.740000e-01 -1.323929e-08
3.750000e-01 -1.255580e-08
3.760000e-01 -1.151068e-08
3.770000e-01 -1.007038e-08
3.780000e-01 -8.465122e-09
3.790000e-01 -7.048950e-09
3.800000e-01 -6.115300e-09
3.810000e-01 -5.666550e-09
3.820000e-01 -5.484935e-09
3.830000e-01 -5.149673e-09
3.840000e-01 -4.328285e-09
3.850000e-01 -2.945285e-09
3.860000e-01 -1.272610e-09
3.870000e-01 1.548415e-10
3.880000e-01 8.767529e-10
3.890000e-01 7.914878e-10
3.900000e-01 2.489742e-10
3.910000e-01 -1.466560e-10
3.920000e-01 4.774847e-12
3.930000e-01 6.273240e-10
3.940000e-01 1.256012e-09
3.950000e-01 1.361968e-09
3.960000e-01 7.498784e-10
3.970000e-01 -4.110916e-10
3.980000e-01 -1.586614e-09
3.990000e-01 -2.320121e-09
4.000000e-01 -2.486559e-09
4.010000e-01 -2.287607e-09
4.020000e-01 -2.102524e-09
4.030000e-01 -2.117758e-09
4.040000e-01 -2.234628e-09
4.050000e-01 -2.107754e-09
4.060000e-01 -1.518174e-09
4.070000e-01 -4.563390e-10
4.080000e-01 8.312782e-10
4.090000e-01 2.030902e-09
4.100000e-01 2.896513e-09
4.110000e-01 3.325340e-09
4.120000e-01 3.342848e-09
4.130000e-01 3.085574e-09
4.140000e-01 2.744514e-09
4.150000e-01 2.502361e-09
4.160000e-01 2.496563e-09
4.170000e-01 2.731667e-09
4.180000e-01 3.117066e-09
4.190000e-01 3.519858e-09
4.200000e-01 3.834657e-09
4.210000e-01 4.108870e-09
4.220001e-01 4.500635e-09
4.230000e-01 5.166157e-09
4.240000e-01 6.052119e-09
4.250000e-01 6.827463e-09
4.260000e-01 7.033236e-09
4.270000e-01 6.409834e-09
4.280000e-01 5.062020e-09
4.290000e-01 3.412424e-09
4.300000e-01 1.920569e-09
4.310000e-01 8.242296e-10
4.320000e-01 5.616130e-11
4.330000e-01 -6.181722e-10
4.340000e-01 -1.358444e-09
4.350000e-01 -2.089394e-09
4.360000e-01 -2.518789e-09
4.370000e-01 -2.333536e-09
4.380000e-01 -1.446722e-09
4.390000e-01 -7.941026e-11
4.400000e-01 1.397666e-09
4.410000e-01 2.728200e-09
4.420000e-01 3.932371e-09
4.430000e-01 5.274501e-09
4.440000e-01 7.082122e-09
4.450000e-01 9.589712e-09
4.460000e-01 1.288544e-08
4.470000e-01 1.693698e-08
4.480000e-01 2.162415e-08
4.490000e-01 2.681088e-08
4.500000e-01 3.241001e-08
4.510000e-01 3.846566e-08
4.520000e-01 4.517148e-08
4.530000e-01 5.279543e-08
4.540000e-01 6.156480e-08
4.550000e-01 7.153270e-08
4.560000e-01 8.250842e-08
4.570000e-01 9.407384e-08
4.580000e-01 1.057632e-07
4.590001e-01 1.172916e-07
4.600000e-01 1.286716e-07
4.610000e-01 1.400889e-07
4.620000e-01 1.515673e-07
4.630000e-01 1.626993e-07
4.640000e-01 1.725739e-07
4.650000e-01 1.799781e-07
4.660000e-01 1.836184e-07
4.670000e-01 1.822332e-07
4.680000e-01 1.745323e-07
4.690000e-01 1.589795e-07
4.700000e-01 1.336005e-07
4.710000e-01 9.582305e-08
4.720000e-01 4.245142e-08
4.730000e-01 -3.030488e-08
4.740000e-01 -1.267634e-07
4.750000e-01 -2.517882e-07
4.760000e-01 -4.108739e-07
4.770000e-01 -6.102379e-07
4.780000e-01 -8.568928e-07
4.790000e-01 -1.158792e-06
4.800000e-01 -1.525019e-06
4.810000e-01 -1.965980e-06
4.820001e-01 -2.493445e-06
4.830000e-01 -3.120377e-06
4.840000e-01 -3.860739e-06
4.850000e-01 -4.729466e-06
4.860000e-01 -5.742710e-06
4.870000e-01 -6.918257e-06
4.880000e-01 -8.275799e-06
4.890000e-01 -9.837001e-06
4.900000e-01 -1.162519e-05
4.910000e-01 -1.366507e-05
4.920000e-01 -1.598243e-05
4.930000e-01 -1.860420e-05
4.940000e-01 -2.155864e-05
4.950000e-01 -2.487567e-05
4.960001e-01 -2.858675e-05
4.970000e-01 -3.272456e-05
4.980000e-01 -3.732238e-05
4.990000e-01 -4.241373e-05
5.000000e-01 -4.803198e-05
5.010000e-01 -5.421044e-05
5.020000e-01 -6.098181e-05
5.030000e-01 -6.837809e-05
5.040000e-01 -7.642967e-05
5.050000e-01 -8.516502e-05
5.060000e-01 -9.460942e-05
5.070000e-01 -1.047844e-04
5.080000e-01 -1.157075e-04
5.090000e-01 -1.273904e-04
5.100001e-01 -1.398383e-04
5.110000e-01 -1.530492e-04
5.120000e-01 -1.670133e-04
5.130000e-01 -1.817119e-04
5.140000e-01 -1.971163e-04
5.150000e-01 -2.131874e-04
5.160000e-01 -2.298735e-04
5.170000e-01 -2.471087e-04
5.180000e-01 -2.648131e-04
5.190001e-01 -2.828909e-04
5.200000e-01 -3.012315e-04
5.210000e-01 -3.197081e-04
5.220000e-01 -3.381776e-04
5.230000e-01 -3.564793e-04
5.240000e-01 -3.744347e-04
5.250000e-01 -3.918479e-04
5.260000e-01 -4.085055e-04
5.270000e-01 -4.241793e-04
5.280000e-01 -4.386250e-04
5.290000e-01 -4.515876e-04
5.300000e-01 -4.627979e-04
5.310000e-01 -4.719780e-04
5.320000e-01 -4.788419e-04
5.330001e-01 -4.831000e-04
5.340000e-01 -4.844617e-04
5.350000e-01 -4.826396e-04
5.360000e-01 -4.773526e-04
5.370000e-01 -4.683315e-04
5.380000e-01 -4.553207e-04
5.390000e-01 -4.380856e-04
5.400000e-01 -4.164150e-04
5.410000e-01 -3.901296e-04
5.420001e-01 -3.590843e-04
5.430000e-01 -3.231710e-04
5.440000e-01 -2.823276e-04
5.450000e-01 -2.365396e-04
5.460000e-01 -1.858440e-04
5.470001e-01 -1.303365e-04
5.480000e-01 -7.016952e-05
5.490000e-01 -5.559103e-06
5.500000e-01 6.321698e-05
5.510000e-01 1.358189e-04
5.520000e-01 2.118468e-04
5.530000e-01 2.908350e-04
5.540000e-01 3.722574e-04
5.550000e-01 4.555302e-04
5.560001e-01 5.400170e-04
5.570000e-01 6.250329e-04
5.580000e-01 7.098539e-04
5.590000e-01 7.937220e-04
5.600000e-01 8.758522e-04
5.610000e-01 9.554427e-04
5.620000e-01 1.031681e-03
5.630000e-01 1.103756e-03
5.640000e-01 1.170871e-03
5.650001e-01 1.232253e-03
5.660000e-01 1.287159e-03
5.670000e-01 1.334892e-03
5.680000e-01 1.374811e-03
5.690000e-01 1.406339e-03
5.700001e-01 1.428974e-03
5.710000e-01 1.442299e-03
5.720000e-01 1.445984e-03
5.730000e-01 1.439793e-03
5.740000e-01 1.423597e-03
5.750000e-01 1.397369e-03
5.760000e-01 1.361194e-03
5.770000e-01 1.315267e-03
5.780000e-01 1.259885e-03
5.790001e-01 1.195455e-03
5.800000e-01 1.122482e-03
5.810000e-01 1.041566e-03
5.820000e-01 9.534012e-04
5.830000e-01 8.587624e-04
5.840001e-01 7.584965e-04
5.850000e-01 6.535113e-04
5.860000e-01 5.447599e-04
5.870000e-01 4.332304e-04
5.880000e-01 3.199331e-04
5.890000e-01 2.058922e-04
5.900000e-01 9.213066e-05
5.910000e-01 -2.034347e-05
5.920000e-01 -1.305537e-04
5.930001e-01 -2.375648e-04
5.940000e-01 -3.404896e-04
5.950000e-01 -4.385080e-04
5.960000e-01 -5.308706e-04
5.970000e-01 -6.169120e-04
5.980000e-01 -6.960467e-04
5.990000e-01 -7.677833e-04
6.000000e-01 -8.317235e-04
6.010000e-01 -8.875711e-04
6.020001e-01 -9.351289e-04
6.030000e-01 -9.742976e-04
6.040000e-01 -1.005076e-03
6.050000e-01 -1.027553e-03
6.060000e-01 -1.041902e-03
6.070001e-01 -1.048377e-03
6.080000e-01 -1.047307e-03
6.090000e-01 -1.039090e-03
6.100000e-01 -1.024184e-03
6.110000e-01 -1.003095e-03
6.120000e-01 -9.763679e-04
6.130000e-01 -9.445746e-04
6.140000e-01 -9.083092e-04
6.150000e-01 -8.681799e-04
6.160001e-01 -8.247990e-04
6.170000e-01 -7.787751e-04
6.180000e-01 -7.307033e-04
6.190000e-01 -6.811579e-04
6.200000e-01 -6.306866e-04
6.210001e-01 -5.798055e-04
6.220000e-01 -5.289948e-04
6.230000e-01 -4.786959e-04
6.240000e-01 -4.293094e-04
6.250001e-01 -3.811914e-04
6.260000e-01 -3.346531e-04
6.270000e-01 -2.899608e-04
6.280000e-01 -2.473375e-04
6.290000e-01 -2.069638e-04
6.300001e-01 -1.689774e-04
6.310000e-01 -1.334757e-04
6.320000e-01 -1.005181e-04
6.330000e-01 -7.013193e-05
6.340000e-01 -4.231631e-05
6.350001e-01 -1.704368e-05
6.360000e-01 5.737247e-06
6.370000e-01 2.609955e-05
6.380000e-01 4.413488e-05
6.390001e-01 5.994820e-05
6.400000e-01 7.365324e-05
6.410000e-01 8.536960e-05
6.420000e-01 9.522271e-05
6.430000e-01 1.033424e-04
6.440001e-01 1.098630e-04
6.450000e-01 1.149202e-04
6.460000e-01 1.186456e-04
6.470000e-01 1.211640e-04
6.480000e-01 1.225931e-04
6.490000e-01 1.230464e-04
6.500000e-01 1.226369e-04
6.510000e-01 1.214751e-04
6.520000e-01 1.196659e-04
6.530001e-01 1.173057e-04
6.540000e-01 1.144814e-04
6.550000e-01 1.112714e-04
6.560000e-01 1.077488e-04
6.570000e-01 1.039829e-04
6.580001e-01 1.000405e-04
6.590000e-01 9.598263e-05
6.600000e-01 9.186269e-05
6.610000e-01 8.772504e-05
6.620001e-01 8.360684e-05
6.630000e-01 7.954168e-05
6.640000e-01 7.556150e-05
6.650000e-01 7.169533e-05
6.660000e-01 6.796644e-05
6.670001e-01 6.439104e-05
6.680000e-01 6.097907e-05
6.690000e-01 5.773676e-05
6.700000e-01 5.466833e-05
6.710000e-01 5.177577e-05
6.720001e-01 4.905817e-05
6.730000e-01 4.651120e-05
6.740000e-01 4.412725e-05
6.750000e-01 4.189645e-05
6.760001e-01 3.980800e-05
6.770000e-01 3.785150e-05
6.780000e-01 3.601726e-05
6.790000e-01 3.429498e-05
6.800000e-01 3.267276e-05
6.810001e-01 3.113832e-05
6.820000e-01 2.968135e-05
6.830000e-01 2.829500e-05
6.840000e-01 2.697480e-05
6.850001e-01 2.571589e-05
6.860000e-01 2.451209e-05
6.870000e-01 2.335719e-05
6.880000e-01 2.224689e-05
6.890000e-01 2.118003e-05
6.900001e-01 2.015804e-05
6.910000e-01 1.918374e-05
6.920000e-01 1.825960e-05
6.930000e-01 1.738665e-05
6.940000e-01 1.656430e-05
6.950001e-01 1.579171e-05
6.960000e-01 1.506925e-05
6.970000e-01 1.439892e-05
6.980000e-01 1.378220e-05
6.990001e-01 1.321826e-05
7.000000e-01 1.270339e-05
7.010000e-01 1.223322e-05
7.020000e-01 1.180450e-05
7.030000e-01 1.141498e-05
7.040001e-01 1.106184e-05
7.050000e-01 1.074059e-05
7.060000e-01 1.044534e-05
7.070000e-01 1.016970e-05
7.080001e-01 9.907422e-06
7.090001e-01 9.653167e-06
7.100000e-01 9.403247e-06
7.110000e-01 9.155817e-06
7.120000e-01 8.909941e-06
7.130001e-01 8.664076e-06
7.140000e-01 8.415695e-06
7.150000e-01 8.162472e-06
7.160000e-01 7.903306e-06
7.170000e-01 7.638554e-06
7.180001e-01 7.369490e-06
7.190000e-01 7.098286e-06
7.200000e-01 6.828528e-06
7.210000e-01 6.564699e-06
7.220001e-01 6.310677e-06
7.230000e-01 6.068274e-06
7.240000e-01 5.837985e-06
7.250000e-01 5.620810e-06
7.260000e-01 5.419357e-06
7.270001e-01 5.236816e-06
7.280000e-01 5.075183e-06
7.290000e-01 4.934339e-06
7.300000e-01 4.812334e-06
7.310000e-01 4.706168e-06
7.320001e-01 4.612681e-06
7.330000e-01 4.529726e-06
7.340000e-01 4.456785e-06
7.350000e-01 4.394127e-06
7.360001e-01 4.340583e-06
7.370000e-01 4.292206e-06
7.380000e-01 4.243538e-06
7.390000e-01 4.190498e-06
7.400000e-01 4.131876e-06
7.410001e-01 4.068052e-06
7.420000e-01 3.998814e-06
7.430000e-01 3.922601e-06
7.440000e-01 3.837699e-06
7.450001e-01 3.743545e-06
7.460001e-01 3.640916e-06
7.470000e-01 3.531524e-06
7.480000e-01 3.417657e-06
7.490000e-01 3.301778e-06
7.500001e-01 3.185838e-06
7.510000e-01 3.071005e-06
7.520000e-01 2.958480e-06
7.530000e-01 2.850581e-06
7.540000e-01 2.750458e-06
7.550001e-01 2.660118e-06
7.560000e-01 2.579191e-06
7.570000e-01 2.506096e-06
7.580000e-01 2.440718e-06
7.590001e-01 2.385365e-06
7.600001e-01 2.342799e-06
7.610000e-01 2.313520e-06
7.620000e-01 2.294738e-06
7.630000e-01 2.281839e-06
7.640001e-01 2.270476e-06
7.650000e-01 2.257952e-06
7.660000e-01 2.243628e-06
7.670000e-01 2.228452e-06
7.680001e-01 2.213410e-06
7.690001e-01 2.197379e-06
7.700000e-01 2.176585e-06
7.710000e-01 2.146623e-06
7.720000e-01 2.105567e-06
7.730001e-01 2.055016e-06
7.740000e-01 1.997902e-06
7.750000e-01 1.935582e-06
7.760000e-01 1.867251e-06
7.770000e-01 1.791853e-06
7.780001e-01 1.710057e-06
7.790000e-01 1.624444e-06
7.800000e-01 1.538569e-06
7.810000e-01 1.456025e-06
7.820001e-01 1.379815e-06
7.830001e-01 1.311685e-06
7.840000e-01 1.251875e-06
7.850000e-01 1.200215e-06
7.860000e-01 1.157782e-06
7.870001e-01 1.127170e-06
7.880000e-01 1.110572e-06
7.890000e-01 1.107731e-06
7.900000e-01 1.116100e-06
7.910001e-01 1.132983e-06
7.920001e-01 1.157208e-06
7.930000e-01 1.188660e-06
7.940000e-01 1.226905e-06
7.950000e-01 1.270674e-06
7.960001e-01 1.318222e-06
7.970001e-01 1.367428e-06
7.980000e-01 1.415363e-06
7.990000e-01 1.458494e-06
8.000000e-01 1.493830e-06
8.010001e-01 1.519707e-06
8.020000e-01 1.535079e-06
8.030000e-01 1.538282e-06
8.040000e-01 1.527259e-06
8.050001e-01 1.501231e-06
8.060001e-01 1.461686e-06
8.070000e-01 1.411346e-06
8.080000e-01 1.352302e-06
8.090000e-01 1.285421e-06
8.100001e-01 1.211270e-06
8.110000e-01 1.130892e-06
8.120000e-01 1.045678e-06
8.130000e-01 9.571949e-07
8.140000e-01 8.677158e-07
8.150001e-01 7.805654e-07
8.160000e-01 6.991615e-07
8.170000e-01 6.255282e-07
8.180000e-01 5.601997e-07
8.190001e-01 5.038278e-07
8.200001e-01 4.583952e-07
8.210000e-01 4.263584e-07
8.220000e-01 4.086537e-07
8.230000e-01 4.040915e-07
8.240001e-01 4.106461e-07
8.250000e-01 4.269067e-07
8.260000e-01 4.521222e-07
8.270000e-01 4.854205e-07
8.280001e-01 5.254799e-07
8.290001e-01 5.706680e-07
8.300000e-01 6.188512e-07
8.310000e-01 6.669840e-07
8.320000e-01 7.117113e-07
8.330001e-01 7.509843e-07
8.340001e-01 7.849277e-07
8.350000e-01 8.144691e-07
8.360000e-01 8.391386e-07
8.370000e-01 8.566408e-07
8.380001e-01 8.647772e-07
8.390000e-01 8.633668e-07
8.400000e-01 8.539684e-07
8.410000e-01 8.380973e-07
8.420001e-01 8.162032e-07
8.430001e-01 7.882375e-07
8.440000e-01 7.546572e-07
8.450000e-01 7.166809e-07
8.460000e-01 6.761817e-07
8.470001e-01 6.357023e-07
8.480000e-01 5.981069e-07
8.490000e-01 5.652859e-07
8.500000e-01 5.369895e-07
8.510001e-01 5.114920e-07
8.520001e-01 4.879174e-07
8.530000e-01 4.676789e-07
8.540000e-01 4.532435e-07
8.550000e-01 4.455569e-07
8.560001e-01 4.430803e-07
8.570001e-01 4.432639e-07
8.580000e-01 4.444607e-07
8.590000e-01 4.461899e-07
8.600000e-01 4.481554e-07
8.610001e-01 4.496920e-07
8.620000e-01 4.500871e-07
8.630000e-01 4.488448e-07
8.640000e-01 4.454313e-07
8.650001e-01 4.392555e-07
8.660001e-01 4.302520e-07
8.670000e-01 4.191162e-07
8.680000e-01 4.064385e-07
8.690000e-01 3.917163e-07
8.700001e-01 3.739025e-07
8.710001e-01 3.531941e-07
8.720000e-01 3.317928e-07
8.730000e-01 3.123670e-07
8.740000e-01 2.959304e-07
8.750001e-01 2.817473e-07
8.760000e-01 2.693556e-07
8.770000e-01 2.602222e-07
8.780000e-01 2.571011e-07
8.790001e-01 2.620145e-07
