-4.000000000000000083e-02 0.000000000000000000e+00
-3.984999999999999654e-02 0.000000000000000000e+00
-3.969999999999999918e-02 0.000000000000000000e+00
-3.955000000000000182e-02 0.000000000000000000e+00
-3.939999999999999752e-02 0.000000000000000000e+00
-3.925000000000000017e-02 0.000000000000000000e+00
-3.910000000000000281e-02 0.000000000000000000e+00
-3.894999999999999851e-02 -0.000000000000000000e+00
-3.880000000000000115e-02 0.000000000000000000e+00
-3.864999999999999686e-02 -1.303207571822079876e-43
-3.849999999999999950e-02 4.852696581956841517e-42
-3.835000000000000214e-02 3.554337502821325508e-40
-3.819999999999999785e-02 -1.361976487987551947e-38
-3.805000000000000049e-02 -2.381716150162535313e-37
-3.790000000000000313e-02 7.716765268065519008e-36
-3.774999999999999883e-02 1.235767594071959905e-34
-3.760000000000000148e-02 -2.067506851342256792e-33
-3.744999999999999718e-02 -1.327576283448622599e-32
-3.729999999999999982e-02 -3.276958280530243746e-31
-3.715000000000000246e-02 1.323349948675495373e-29
-3.699999999999999817e-02 -1.725076756787656937e-28
-3.685000000000000081e-02 1.878351771041093579e-27
-3.670000000000000345e-02 -7.933382301185254758e-27
-3.654999999999999916e-02 -1.812857210682701277e-25
-3.640000000000000180e-02 2.920962802631379978e-24
-3.624999999999999750e-02 -1.089339207311053034e-23
-3.610000000000000014e-02 -9.537470970173696686e-23
-3.595000000000000279e-02 8.047148132271940074e-22
-3.579999999999999849e-02 1.609094190175713557e-21
-3.565000000000000113e-02 -1.974623424742853336e-20
-3.549999999999999684e-02 -5.491914458090094897e-20
-3.534999999999999948e-02 1.538014006800438531e-19
-3.520000000000000212e-02 1.141573868808533897e-18
-3.504999999999999782e-02 3.332065693893510279e-18
-3.490000000000000047e-02 7.028091270900659011e-18
-3.475000000000000311e-02 1.289703201555422141e-17
-3.459999999999999881e-02 2.198626215831246287e-17
-3.445000000000000145e-02 3.450214340967266253e-17
-3.429999999999999716e-02 4.520428558422253968e-17
-3.414999999999999980e-02 3.877200010083463821e-17
-3.400000000000000244e-02 1.135373964001811130e-17
-3.384999999999999815e-02 5.767477778101072960e-17
-3.370000000000000079e-02 4.678267788012723492e-16
-3.355000000000000343e-02 1.473216453072145188e-15
-3.339999999999999913e-02 2.077448676545421216e-15
-3.325000000000000178e-02 -1.530392553440349749e-15
-3.309999999999999748e-02 -1.416245694666178750e-14
-3.295000000000000012e-02 -3.007254953954832666e-14
-3.280000000000000276e-02 -1.389778371460028902e-14
-3.264999999999999847e-02 9.546782310000667682e-14
-3.250000000000000111e-02 3.022078030531782922e-13
-3.234999999999999681e-02 3.865696011993297043e-13
-3.219999999999999946e-02 -1.651811554290866235e-13
-3.205000000000000210e-02 -1.753893796689609541e-12
-3.189999999999999780e-02 -3.606570337516545877e-12
-3.175000000000000044e-02 -2.850293568876227646e-12
-3.160000000000000309e-02 4.296965127464913436e-12
-3.144999999999999879e-02 1.770186601468548560e-11
-3.130000000000000143e-02 2.722110731268045924e-11
-3.115000000000000061e-02 1.322965174910262220e-11
-3.099999999999999978e-02 -3.809475998539646469e-11
-3.084999999999999895e-02 -1.085157033675621108e-10
-3.070000000000000159e-02 -1.340177968600642089e-10
-3.055000000000000077e-02 -3.416727664684593435e-11
-3.039999999999999994e-02 2.118147324203789594e-10
-3.024999999999999911e-02 4.916128615306547545e-10
-3.009999999999999828e-02 5.690355409093683647e-10
-2.995000000000000093e-02 2.128213577590187811e-10
-2.980000000000000010e-02 -6.248603856562340297e-10
-2.964999999999999927e-02 -1.730874776839641527e-09
-2.949999999999999845e-02 -2.765404794047299220e-09
-2.935000000000000109e-02 -3.566825501621906369e-09
-2.920000000000000026e-02 -4.445279255804734930e-09
-2.904999999999999943e-02 -6.273230823694575520e-09
-2.889999999999999861e-02 -1.029672258567870813e-08
-2.875000000000000125e-02 -1.773095625878795545e-08
-2.860000000000000042e-02 -2.930349829455280997e-08
-2.844999999999999959e-02 -4.497005434700440674e-08
-2.829999999999999877e-02 -6.400706098474984174e-08
-2.815000000000000141e-02 -8.547372942757647252e-08
-2.800000000000000058e-02 -1.086874590328079648e-07
-2.784999999999999976e-02 -1.332383874341758201e-07
-2.769999999999999893e-02 -1.585048039487446658e-07
-2.755000000000000157e-02 -1.833026885833533015e-07
-2.740000000000000074e-02 -2.063500943449980696e-07
-2.724999999999999992e-02 -2.273168888677901123e-07
-2.709999999999999909e-02 -2.473265681146585848e-07
-2.695000000000000173e-02 -2.681868238596507581e-07
-2.680000000000000090e-02 -2.911304477493104059e-07
-2.665000000000000008e-02 -3.165444297792419093e-07
-2.649999999999999925e-02 -3.448882353040971793e-07
-2.634999999999999842e-02 -3.773043033561407356e-07
-2.620000000000000107e-02 -4.148102448198187631e-07
-2.605000000000000024e-02 -4.571696194943797309e-07
-2.589999999999999941e-02 -5.033238608120882418e-07
-2.574999999999999858e-02 -5.530120006369543262e-07
-2.560000000000000123e-02 -6.070183644624194130e-07
-2.545000000000000040e-02 -6.652153388131409883e-07
-2.529999999999999957e-02 -7.254218985508487094e-07
-2.514999999999999875e-02 -7.859883339733642060e-07
-2.500000000000000139e-02 -8.496569421367894392e-07
-2.485000000000000056e-02 -9.228822364093502983e-07
-2.469999999999999973e-02 -1.009761376735696103e-06
-2.454999999999999891e-02 -1.107659727495047264e-06
-2.440000000000000155e-02 -1.210836330756137613e-06
-2.425000000000000072e-02 -1.317980604653712362e-06
-2.409999999999999989e-02 -1.433442434972675983e-06
-2.394999999999999907e-02 -1.560144482937175781e-06
-2.380000000000000171e-02 -1.694460820544918533e-06
-2.365000000000000088e-02 -1.831448685152281541e-06
-2.350000000000000006e-02 -1.973593043658183888e-06
-2.334999999999999923e-02 -2.129455424437765032e-06
-2.319999999999999840e-02 -2.302224629602278583e-06
-2.305000000000000104e-02 -2.484018523318809457e-06
-2.290000000000000022e-02 -2.665568445081589743e-06
-2.274999999999999939e-02 -2.849137672455981374e-06
-2.259999999999999856e-02 -3.046511437787557952e-06
-2.245000000000000120e-02 -3.264482074882835150e-06
-2.230000000000000038e-02 -3.498845671856543049e-06
-2.214999999999999955e-02 -3.746294851225684397e-06
-2.199999999999999872e-02 -4.017049377580406144e-06
-2.185000000000000137e-02 -4.328700015321373940e-06
-2.170000000000000054e-02 -4.688673016062239185e-06
-2.154999999999999971e-02 -5.090172180644003674e-06
-2.139999999999999888e-02 -5.527799203264294192e-06
-2.125000000000000153e-02 -6.010604465700453147e-06
-2.110000000000000070e-02 -6.553714683832367882e-06
-2.094999999999999987e-02 -7.160399945860262960e-06
-2.079999999999999905e-02 -7.819729034963529557e-06
-2.065000000000000169e-02 -8.522148164047393948e-06
-2.050000000000000086e-02 -9.270491318602580577e-06
-2.035000000000000003e-02 -1.007258106255903840e-05
-2.019999999999999921e-02 -1.092869933927431703e-05
-2.004999999999999838e-02 -1.183260610559955239e-05
-1.990000000000000102e-02 -1.278327817999524996e-05
-1.975000000000000019e-02 -1.379009427182609215e-05
-1.959999999999999937e-02 -1.486603650846518576e-05
-1.944999999999999854e-02 -1.602029442437924445e-05
-1.930000000000000118e-02 -1.725880792946554720e-05
-1.915000000000000036e-02 -1.858780160546302795e-05
-1.899999999999999953e-02 -2.001373286475427449e-05
-1.884999999999999870e-02 -2.154206231352873147e-05
-1.870000000000000134e-02 -2.317862345080357045e-05
-1.855000000000000052e-02 -2.493009014870040119e-05
-1.839999999999999969e-02 -2.680018951650708914e-05
-1.824999999999999886e-02 -2.878768827940803021e-05
-1.810000000000000150e-02 -3.089256642851978540e-05
-1.795000000000000068e-02 -3.312380431452766061e-05
-1.779999999999999985e-02 -3.549685789039358497e-05
-1.764999999999999902e-02 -3.802312858169898391e-05
-1.750000000000000167e-02 -4.070693466928787529e-05
-1.735000000000000084e-02 -4.355516284704208374e-05
-1.720000000000000001e-02 -4.658508987631648779e-05
-1.704999999999999918e-02 -4.981760139344260097e-05
-1.689999999999999836e-02 -5.326473547029308975e-05
-1.675000000000000100e-02 -5.692899867426604033e-05
-1.660000000000000017e-02 -6.081448373151943088e-05
-1.644999999999999934e-02 -6.493345426861196756e-05
-1.629999999999999852e-02 -6.930090603418648243e-05
-1.615000000000000116e-02 -7.392768020508810878e-05
-1.600000000000000033e-02 -7.882250793045386672e-05
-1.584999999999999951e-02 -8.399835496675223112e-05
-1.569999999999999868e-02 -8.947352034738287330e-05
-1.554999999999999959e-02 -9.526838402962312102e-05
-1.540000000000000049e-02 -1.014037115965038538e-04
-1.524999999999999967e-02 -1.079003995982930064e-04
-1.510000000000000057e-02 -1.147769216913729906e-04
-1.494999999999999975e-02 -1.220474659930914640e-04
-1.480000000000000066e-02 -1.297261187573894858e-04
-1.464999999999999983e-02 -1.378329179715365171e-04
-1.450000000000000074e-02 -1.463920489186421037e-04
-1.434999999999999991e-02 -1.554237387608736753e-04
-1.420000000000000082e-02 -1.649427867960184813e-04
-1.404999999999999999e-02 -1.749677030602470040e-04
-1.389999999999999916e-02 -1.855279842857271433e-04
-1.375000000000000007e-02 -1.966586132766678929e-04
-1.359999999999999924e-02 -2.083895815303549170e-04
-1.345000000000000015e-02 -2.207448414992541075e-04
-1.329999999999999932e-02 -2.337503974558785558e-04
-1.315000000000000023e-02 -2.474382927175611258e-04
-1.299999999999999940e-02 -2.618416619952768087e-04
-1.285000000000000031e-02 -2.769897400867193937e-04
-1.269999999999999948e-02 -2.929098845925182104e-04
-1.255000000000000039e-02 -3.096318687312304974e-04
-1.239999999999999956e-02 -3.271892201155424118e-04
-1.225000000000000047e-02 -3.456193662714213133e-04
-1.209999999999999964e-02 -3.649647114798426628e-04
-1.195000000000000055e-02 -3.852712397929280996e-04
-1.179999999999999973e-02 -4.065830144099891186e-04
-1.165000000000000063e-02 -4.289392381906509399e-04
-1.149999999999999981e-02 -4.523797542788088322e-04
-1.135000000000000071e-02 -4.769517690874636173e-04
-1.119999999999999989e-02 -5.027070874348282814e-04
-1.105000000000000079e-02 -5.296934396028518677e-04
-1.089999999999999997e-02 -5.579534918069839478e-04
-1.074999999999999914e-02 -5.875336355529725552e-04
-1.060000000000000005e-02 -6.184903904795646667e-04
-1.044999999999999922e-02 -6.508858641609549522e-04
-1.030000000000000013e-02 -6.847810000181198120e-04
-1.014999999999999930e-02 -7.202352862805128098e-04
-1.000000000000000021e-02 -7.573111215606331825e-04
-9.850001000000000589e-03 -7.960756192915141582e-04
-9.700001999999999236e-03 -8.365974645130336285e-04
-9.550001000000000670e-03 -8.789458079263567924e-04
-9.400000999999999843e-03 -9.231910808011889458e-04
-9.250002000000000224e-03 -9.694040054455399513e-04
-9.100000999999999923e-03 -1.017655478790402412e-03
-8.950001000000000831e-03 -1.068020937964320183e-03
-8.800001999999999477e-03 -1.120585598982870579e-03
-8.650000999999999177e-03 -1.175442710518836975e-03
-8.500001999999999558e-03 -1.232684589922428131e-03
-8.349999999999999784e-03 -1.292399130761623383e-03
-8.200001000000000165e-03 -1.354676438495516777e-03
-8.050002000000000546e-03 -1.419615233317017555e-03
-7.900000000000000772e-03 -1.487320056185126305e-03
-7.750001000000000285e-03 -1.557894051074981689e-03
-7.600001999999999799e-03 -1.631438732147216797e-03
-7.449998999999999684e-03 -1.708060037344694138e-03
-7.300001000000000406e-03 -1.787871355190873146e-03
-7.150001999999999920e-03 -1.870991894975304604e-03
-7.000003000000000301e-03 -1.957544824108481407e-03
-6.850000000000000186e-03 -2.047657268121838570e-03
-6.700002000000000041e-03 -2.141459845006465912e-03
-6.550003000000000422e-03 -2.239085035398602486e-03
-6.400000000000000307e-03 -2.340668346732854843e-03
-6.250000999999999821e-03 -2.446351340040564537e-03
-6.100002999999999675e-03 -2.556280931457877159e-03
-5.950000000000000427e-03 -2.670604269951581955e-03
-5.800000999999999941e-03 -2.789465943351387978e-03
-5.650002999999999796e-03 -2.913015894591808319e-03
-5.499999999999999681e-03 -3.041415940970182419e-03
-5.350001000000000062e-03 -3.174837678670883179e-03
-5.200001999999999576e-03 -3.313453868031501770e-03
-5.049999999999999802e-03 -3.457435872405767441e-03
-4.900001000000000183e-03 -3.606957150623202324e-03
-4.750001999999999697e-03 -3.762197447940707207e-03
-4.599999999999999922e-03 -3.923340700566768646e-03
-4.450001000000000304e-03 -4.090572707355022430e-03
-4.300001999999999817e-03 -4.264082293957471848e-03
-4.149998999999999702e-03 -4.444060847163200378e-03
-4.000001000000000424e-03 -4.630701150745153427e-03
-3.850001999999999938e-03 -4.824199713766574860e-03
-3.699998999999999823e-03 -5.024759098887443542e-03
-3.550000000000000204e-03 -5.232587922364473343e-03
-3.400002000000000059e-03 -5.447895731776952744e-03
-3.250003000000000006e-03 -5.670886952430009842e-03
-3.099999999999999891e-03 -5.901766940951347351e-03
-2.950002000000000180e-03 -6.140746176242828369e-03
-2.800003000000000127e-03 -6.388036999851465225e-03
-2.650000000000000012e-03 -6.643848959356546402e-03
-2.500000999999999959e-03 -6.908385083079338074e-03
-2.350002999999999814e-03 -7.181847002357244492e-03
-2.200000000000000133e-03 -7.464441005140542984e-03
-2.050001000000000080e-03 -7.756374776363372803e-03
-1.900002000000000028e-03 -8.057852275669574738e-03
-1.750000000000000036e-03 -8.369074203073978424e-03
-1.600000999999999984e-03 -8.690235204994678497e-03
-1.450001999999999932e-03 -9.021522477269172668e-03
-1.299999999999999940e-03 -9.363111108541488647e-03
-1.150001000000000105e-03 -9.715175256133079529e-03
-1.000002000000000052e-03 -1.007788535207509995e-02
-8.499994999999999990e-04 -1.045140158385038376e-02
-7.000007000000000148e-04 -1.083587016910314560e-02
-5.500019000000000305e-04 -1.123142521828413010e-02
-3.999992999999999973e-04 -1.163819432258605957e-02
-2.500005000000000131e-04 -1.205629855394363403e-02
-1.000017000000000017e-04 -1.248584035784006119e-02
5.000085000000000087e-05 -1.292690727859735489e-02
1.999996999999999886e-04 -1.337956637144088745e-02
3.499985000000000270e-04 -1.384386979043483734e-02
4.999972999999999571e-04 -1.431985292583703995e-02
6.499998000000000104e-04 -1.480752881616353989e-02
7.999985999999999946e-04 -1.530689094215631485e-02
9.499975000000000129e-04 -1.581790857017040253e-02
1.100000000000000066e-03 -1.634052768349647522e-02
1.249998999999999902e-03 -1.687466911971569061e-02
1.399997999999999954e-03 -1.742023415863513947e-02
1.549999999999999946e-03 -1.797709986567497253e-02
1.699998999999999998e-03 -1.854510977864265442e-02
1.849998000000000050e-03 -1.912407390773296356e-02
2.000000000000000042e-03 -1.971376501023769379e-02
2.149999000000000094e-03 -2.031392417848110199e-02
2.299998000000000146e-03 -2.092427015304565430e-02
2.449999999999999921e-03 -2.154448442161083221e-02
2.599998999999999973e-03 -2.217420749366283417e-02
2.749998000000000026e-03 -2.281304076313972473e-02
2.900001000000000141e-03 -2.346055209636688232e-02
3.049998999999999853e-03 -2.411627210676670074e-02
3.199997999999999905e-03 -2.477968856692314148e-02
3.350001000000000020e-03 -2.545025199651718140e-02
3.500000000000000073e-03 -2.612736448645591736e-02
3.649997999999999784e-03 -2.681038714945316315e-02
3.800000999999999900e-03 -2.749863266944885254e-02
3.950000000000000386e-03 -2.819137275218963623e-02
4.099999000000000005e-03 -2.888783812522888184e-02
4.249997000000000150e-03 -2.958721481263637543e-02
4.400000000000000265e-03 -3.028863854706287384e-02
4.549998999999999884e-03 -3.099120222032070160e-02
4.699998000000000370e-03 -3.169395774602890015e-02
4.850000000000000144e-03 -3.239591047167778015e-02
4.999998999999999763e-03 -3.309602662920951843e-02
5.149998000000000249e-03 -3.379321470856666565e-02
5.300000000000000024e-03 -3.448634594678878784e-02
5.449998999999999642e-03 -3.517424315214157104e-02
5.599998000000000128e-03 -3.585568070411682129e-02
5.749999999999999903e-03 -3.652941063046455383e-02
5.899999000000000389e-03 -3.719413653016090393e-02
6.049998000000000008e-03 -3.784852474927902222e-02
6.200001000000000123e-03 -3.849120810627937317e-02
6.349999000000000268e-03 -3.912076726555824280e-02
6.499997999999999887e-03 -3.973576426506042480e-02
6.650001000000000002e-03 -4.033472388982772827e-02
6.799999999999999621e-03 -4.091614857316017151e-02
6.949997999999999766e-03 -4.147851467132568359e-02
7.100000999999999882e-03 -4.202025011181831360e-02
7.250000000000000368e-03 -4.253977909684181213e-02
7.399998999999999987e-03 -4.303550720214843750e-02
7.550000999999999761e-03 -4.350582510232925415e-02
7.700000000000000247e-03 -4.394910484552383423e-02
7.849998999999999866e-03 -4.436371847987174988e-02
7.999997999999999485e-03 -4.474802315235137939e-02
8.149999999999999259e-03 -4.510037973523139954e-02
8.299999000000000612e-03 -4.541914910078048706e-02
8.449998000000000231e-03 -4.570269957184791565e-02
8.600000000000000006e-03 -4.594940319657325745e-02
8.749998999999999624e-03 -4.615765064954757690e-02
8.899997999999999243e-03 -4.632584378123283386e-02
9.050000000000000752e-03 -4.645241051912307739e-02
9.199999000000000371e-03 -4.653580859303474426e-02
9.349997999999999990e-03 -4.657453298568725586e-02
9.500000999999999238e-03 -4.656711593270301819e-02
9.649998999999999383e-03 -4.651211574673652649e-02
9.799998000000000736e-03 -4.640814661979675293e-02
9.950000999999999984e-03 -4.625386744737625122e-02
1.009999999999999960e-02 -4.604800045490264893e-02
1.025000000000000043e-02 -4.578931629657745361e-02
1.039999999999999952e-02 -4.547666385769844055e-02
1.055000000000000035e-02 -4.510894045233726501e-02
1.069999999999999944e-02 -4.468512907624244690e-02
1.085000000000000027e-02 -4.420428723096847534e-02
1.099999999999999936e-02 -4.366556182503700256e-02
1.115000000000000019e-02 -4.306818544864654541e-02
1.129999999999999928e-02 -4.241148009896278381e-02
1.145000000000000011e-02 -4.169485718011856079e-02
1.159999999999999920e-02 -4.091782867908477783e-02
1.175000000000000003e-02 -4.008000344038009644e-02
1.190000000000000085e-02 -3.918110206723213196e-02
1.204999999999999995e-02 -3.822095692157745361e-02
1.220000000000000077e-02 -3.719949722290039062e-02
1.234999999999999987e-02 -3.611677885055541992e-02
1.250000000000000069e-02 -3.497297316789627075e-02
1.264999999999999979e-02 -3.376837447285652161e-02
1.280000000000000061e-02 -3.250339627265930176e-02
1.294999999999999971e-02 -3.117856569588184357e-02
1.310000000000000053e-02 -2.979454770684242249e-02
1.324999999999999963e-02 -2.835212275385856628e-02
1.340000000000000045e-02 -2.685219608247280121e-02
1.354999999999999954e-02 -2.529580146074295044e-02
1.370000000000000037e-02 -2.368410490453243256e-02
1.384999999999999946e-02 -2.201839722692966461e-02
1.400000000000000029e-02 -2.030008658766746521e-02
1.414999999999999938e-02 -1.853070780634880066e-02
1.430000000000000021e-02 -1.671192422509193420e-02
1.444999999999999930e-02 -1.484552398324012756e-02
1.460000000000000013e-02 -1.293341349810361862e-02
1.474999999999999922e-02 -1.097761094570159912e-02
1.490000000000000005e-02 -8.980247192084789276e-03
1.504999999999999914e-02 -6.943563465029001236e-03
1.519999999999999997e-02 -4.869909025728702545e-03
1.535000000000000080e-02 -2.761740237474441528e-03
1.549999999999999989e-02 -6.216151523403823376e-04
1.565000000000000072e-02 1.547813881188631058e-03
1.580000000000000154e-02 3.743808018043637276e-03
1.594999999999999890e-02 5.963543895632028580e-03
1.609999999999999973e-02 8.204113692045211792e-03
1.625000000000000056e-02 1.046253554522991180e-02
1.640000000000000138e-02 1.273576263338327408e-02
1.654999999999999874e-02 1.502068899571895599e-02
1.669999999999999957e-02 1.731415465474128723e-02
1.685000000000000039e-02 1.961294934153556824e-02
1.700000000000000122e-02 2.191381901502609253e-02
1.714999999999999858e-02 2.421347238123416901e-02
1.729999999999999941e-02 2.650859393179416656e-02
1.745000000000000023e-02 2.879584766924381256e-02
1.760000000000000106e-02 3.107188642024993896e-02
1.774999999999999842e-02 3.333335742354393005e-02
1.789999999999999925e-02 3.557690978050231934e-02
1.805000000000000007e-02 3.779920190572738647e-02
1.820000000000000090e-02 3.999690338969230652e-02
1.835000000000000173e-02 4.216673225164413452e-02
1.849999999999999908e-02 4.430542886257171631e-02
1.864999999999999991e-02 4.640977084636688232e-02
1.880000000000000074e-02 4.847657680511474609e-02
1.895000000000000157e-02 5.050273239612579346e-02
1.909999999999999892e-02 5.248517543077468872e-02
1.924999999999999975e-02 5.442092940211296082e-02
1.940000000000000058e-02 5.630707740783691406e-02
1.955000000000000140e-02 5.814080312848091125e-02
1.969999999999999876e-02 5.991937965154647827e-02
1.984999999999999959e-02 6.164016574621200562e-02
2.000000000000000042e-02 6.330063194036483765e-02
2.015000000000000124e-02 6.489835679531097412e-02
2.029999999999999860e-02 6.643103063106536865e-02
2.044999999999999943e-02 6.789646297693252563e-02
2.060000000000000026e-02 6.929259747266769409e-02
2.075000000000000108e-02 7.061748951673507690e-02
2.089999999999999844e-02 7.186932861804962158e-02
2.104999999999999927e-02 7.304646819829940796e-02
2.120000000000000009e-02 7.414737343788146973e-02
2.135000000000000092e-02 7.517068088054656982e-02
2.149999999999999828e-02 7.611513882875442505e-02
2.164999999999999911e-02 7.697967439889907837e-02
2.179999999999999993e-02 7.776336371898651123e-02
2.195000000000000076e-02 7.846540957689285278e-02
2.210000000000000159e-02 7.908518612384796143e-02
2.224999999999999895e-02 7.962222397327423096e-02
2.239999999999999977e-02 8.007620275020599365e-02
2.255000000000000060e-02 8.044695109128952026e-02
2.270000000000000143e-02 8.073444664478302002e-02
2.284999999999999878e-02 8.093883842229843140e-02
2.299999999999999961e-02 8.106042444705963135e-02
2.315000000000000044e-02 8.109965175390243530e-02
2.330000000000000127e-02 8.105709403753280640e-02
2.344999999999999862e-02 8.093348145484924316e-02
2.359999999999999945e-02 8.072969317436218262e-02
2.375000000000000028e-02 8.044674247503280640e-02
2.390000000000000110e-02 8.008577674627304077e-02
2.404999999999999846e-02 7.964807003736495972e-02
2.419999999999999929e-02 7.913501560688018799e-02
2.435000000000000012e-02 7.854816317558288574e-02
2.450000000000000094e-02 7.788913697004318237e-02
2.464999999999999830e-02 7.715969532728195190e-02
2.479999999999999913e-02 7.636171579360961914e-02
2.494999999999999996e-02 7.549715787172317505e-02
2.510000000000000078e-02 7.456807792186737061e-02
2.525000000000000161e-02 7.357663661241531372e-02
2.539999999999999897e-02 7.252505421638488770e-02
2.554999999999999979e-02 7.141566276550292969e-02
2.570000000000000062e-02 7.025083154439926147e-02
2.585000000000000145e-02 6.903301924467086792e-02
2.599999999999999881e-02 6.776472926139831543e-02
2.614999999999999963e-02 6.644853204488754272e-02
2.630000000000000046e-02 6.508703529834747314e-02
2.645000000000000129e-02 6.368288397789001465e-02
2.659999999999999865e-02 6.223876401782035828e-02
2.674999999999999947e-02 6.075737625360488892e-02
2.690000000000000030e-02 5.924144759774208069e-02
2.705000000000000113e-02 5.769371613860130310e-02
2.719999999999999848e-02 5.611693486571311951e-02
2.734999999999999931e-02 5.451384559273719788e-02
2.750000000000000014e-02 5.288719385862350464e-02
2.765000000000000097e-02 5.123971402645111084e-02
2.779999999999999832e-02 4.957411438226699829e-02
2.794999999999999915e-02 4.789309203624725342e-02
2.809999999999999998e-02 4.619930684566497803e-02
2.825000000000000080e-02 4.449540376663208008e-02
2.840000000000000163e-02 4.278396815061569214e-02
2.854999999999999899e-02 4.106754437088966370e-02
2.869999999999999982e-02 3.934863209724426270e-02
2.885000000000000064e-02 3.762967884540557861e-02
2.900000000000000147e-02 3.591307625174522400e-02
2.914999999999999883e-02 3.420116007328033447e-02
2.929999999999999966e-02 3.249619901180267334e-02
2.945000000000000048e-02 3.080039285123348236e-02
2.960000000000000131e-02 2.911587059497833252e-02
2.974999999999999867e-02 2.744468674063682556e-02
2.989999999999999949e-02 2.578881941735744476e-02
3.005000000000000032e-02 2.415016852319240570e-02
3.020000000000000115e-02 2.253055199980735779e-02
3.034999999999999851e-02 2.093170210719108582e-02
3.049999999999999933e-02 1.935527473688125610e-02
3.065000000000000016e-02 1.780283823609352112e-02
3.080000000000000099e-02 1.627587527036666870e-02
3.094999999999999835e-02 1.477577816694974899e-02
3.109999999999999917e-02 1.330385077744722366e-02
3.125000000000000000e-02 1.186130940914154053e-02
3.139999999999999736e-02 1.044928189367055893e-02
3.155000000000000165e-02 9.068812243640422821e-03
3.169999999999999901e-02 7.720853202044963837e-03
3.185000000000000331e-02 6.406269967555999756e-03
3.200000000000000067e-02 5.125837866216897964e-03
3.214999999999999802e-02 3.880247473716735840e-03
3.230000000000000232e-02 2.670110901817679405e-03
3.244999999999999968e-02 1.495959470048546791e-03
3.259999999999999704e-02 3.582423087209463120e-04
3.275000000000000133e-02 -7.426733500324189663e-04
3.289999999999999869e-02 -1.806499669328331947e-03
3.305000000000000299e-02 -2.833025529980659485e-03
3.320000000000000034e-02 -3.822112921625375748e-03
3.334999999999999770e-02 -4.773693159222602844e-03
3.350000000000000200e-02 -5.687765311449766159e-03
3.364999999999999936e-02 -6.564395502209663391e-03
3.379999999999999671e-02 -7.403715047985315323e-03
3.395000000000000101e-02 -8.205917663872241974e-03
3.409999999999999837e-02 -8.971253409981727600e-03
3.425000000000000266e-02 -9.700025431811809540e-03
3.440000000000000002e-02 -1.039259321987628937e-02
3.454999999999999738e-02 -1.104936935007572174e-02
3.470000000000000168e-02 -1.167081389576196671e-02
3.484999999999999903e-02 -1.225743070244789124e-02
3.500000000000000333e-02 -1.280976459383964539e-02
3.515000000000000069e-02 -1.332840044051408768e-02
3.529999999999999805e-02 -1.381395850330591202e-02
3.545000000000000234e-02 -1.426709443330764771e-02
3.559999999999999970e-02 -1.468849368393421173e-02
3.574999999999999706e-02 -1.507886778563261032e-02
3.590000000000000135e-02 -1.543895434588193893e-02
3.604999999999999871e-02 -1.576951146125793457e-02
3.620000000000000301e-02 -1.607131958007812500e-02
3.635000000000000037e-02 -1.634518243372440338e-02
3.649999999999999772e-02 -1.659191772341728210e-02
3.665000000000000202e-02 -1.681235618889331818e-02
3.679999999999999938e-02 -1.700733043253421783e-02
3.694999999999999674e-02 -1.717768423259258270e-02
3.710000000000000103e-02 -1.732427068054676056e-02
3.724999999999999839e-02 -1.744794100522994995e-02
3.740000000000000269e-02 -1.754955574870109558e-02
3.755000000000000004e-02 -1.762997172772884369e-02
3.769999999999999740e-02 -1.769004389643669128e-02
3.785000000000000170e-02 -1.773062162101268768e-02
3.799999999999999906e-02 -1.775255240499973297e-02
3.815000000000000335e-02 -1.775667816400527954e-02
3.830000000000000071e-02 -1.774382963776588440e-02
3.844999999999999807e-02 -1.771483011543750763e-02
3.860000000000000236e-02 -1.767048984766006470e-02
3.874999999999999972e-02 -1.761160232126712799e-02
3.889999999999999708e-02 -1.753894984722137451e-02
3.905000000000000138e-02 -1.745330356061458588e-02
3.919999999999999873e-02 -1.735541783273220062e-02
3.935000000000000303e-02 -1.724603399634361267e-02
3.950000000000000039e-02 -1.712587103247642517e-02
3.964999999999999775e-02 -1.699563674628734589e-02
3.980000000000000204e-02 -1.685601472854614258e-02
3.994999999999999940e-02 -1.670767366886138916e-02
4.009999999999999676e-02 -1.655126363039016724e-02
4.025000000000000105e-02 -1.638740859925746918e-02
4.039999999999999841e-02 -1.621671393513679504e-02
4.055000000000000271e-02 -1.603976637125015259e-02
4.070000000000000007e-02 -1.585713401436805725e-02
4.084999999999999742e-02 -1.566936634480953217e-02
4.100000000000000172e-02 -1.547699235379695892e-02
4.114999999999999908e-02 -1.528051774948835373e-02
4.130000000000000338e-02 -1.508042495697736740e-02
4.145000000000000073e-02 -1.487717777490615845e-02
4.159999999999999809e-02 -1.467122416943311691e-02
4.175000000000000239e-02 -1.446298882365226746e-02
4.189999999999999974e-02 -1.425287686288356781e-02
4.204999999999999710e-02 -1.404127199202775955e-02
4.220000000000000140e-02 -1.382854022085666656e-02
4.234999999999999876e-02 -1.361502334475517273e-02
4.250000000000000305e-02 -1.340105105191469193e-02
4.265000000000000041e-02 -1.318693533539772034e-02
4.279999999999999777e-02 -1.297297328710556030e-02
4.295000000000000207e-02 -1.275943964719772339e-02
4.309999999999999942e-02 -1.254658866673707962e-02
4.324999999999999678e-02 -1.233466155827045441e-02
4.340000000000000108e-02 -1.212388370186090469e-02
4.354999999999999843e-02 -1.191446371376514435e-02
4.370000000000000273e-02 -1.170659717172384262e-02
4.385000000000000009e-02 -1.150046382099390030e-02
4.399999999999999745e-02 -1.129623036831617355e-02
4.415000000000000174e-02 -1.109404861927032471e-02
4.429999999999999910e-02 -1.089405827224254608e-02
4.445000000000000340e-02 -1.069638971239328384e-02
4.460000000000000075e-02 -1.050115842372179031e-02
4.474999999999999811e-02 -1.030846778303384781e-02
4.490000000000000241e-02 -1.011840905994176865e-02
4.504999999999999977e-02 -9.931062348186969757e-03
4.519999999999999712e-02 -9.746501222252845764e-03
4.535000000000000142e-02 -9.564790874719619751e-03
4.549999999999999878e-02 -9.385984390974044800e-03
4.565000000000000308e-02 -9.210125543177127838e-03
4.580000000000000043e-02 -9.037250652909278870e-03
4.594999999999999779e-02 -8.867392316460609436e-03
4.610000000000000209e-02 -8.700576610863208771e-03
4.624999999999999944e-02 -8.536820299923419952e-03
4.639999999999999680e-02 -8.376132696866989136e-03
4.655000000000000110e-02 -8.218515664339065552e-03
4.669999999999999846e-02 -8.063963614404201508e-03
4.685000000000000275e-02 -7.912469096481800079e-03
4.700000000000000011e-02 -7.764022331684827805e-03
4.714999999999999747e-02 -7.618611212819814682e-03
4.730000000000000177e-02 -7.476217113435268402e-03
4.744999999999999912e-02 -7.336813490837812424e-03
4.760000000000000342e-02 -7.200372871011495590e-03
4.775000000000000078e-02 -7.066864985972642899e-03