-4.000000000000000083e-02 0.000000000000000000e+00
-3.984999999999999654e-02 0.000000000000000000e+00
-3.969999999999999918e-02 0.000000000000000000e+00
-3.955000000000000182e-02 0.000000000000000000e+00
-3.939999999999999752e-02 0.000000000000000000e+00
-3.925000000000000017e-02 0.000000000000000000e+00
-3.910000000000000281e-02 0.000000000000000000e+00
-3.894999999999999851e-02 0.000000000000000000e+00
-3.880000000000000115e-02 0.000000000000000000e+00
-3.864999999999999686e-02 0.000000000000000000e+00
-3.849999999999999950e-02 0.000000000000000000e+00
-3.835000000000000214e-02 0.000000000000000000e+00
-3.819999999999999785e-02 0.000000000000000000e+00
-3.805000000000000049e-02 0.000000000000000000e+00
-3.790000000000000313e-02 0.000000000000000000e+00
-3.774999999999999883e-02 0.000000000000000000e+00
-3.760000000000000148e-02 0.000000000000000000e+00
-3.744999999999999718e-02 -0.000000000000000000e+00
-3.729999999999999982e-02 0.000000000000000000e+00
-3.715000000000000246e-02 -1.961817850054743899e-44
-3.699999999999999817e-02 6.558076813040143892e-43
-3.685000000000000081e-02 -2.112317305123229253e-41
-3.670000000000000345e-02 5.751909806514076631e-40
-3.654999999999999916e-02 -1.171935332982595338e-38
-3.640000000000000180e-02 1.546183196706445747e-37
-3.624999999999999750e-02 -7.378153444434730725e-37
-3.610000000000000014e-02 -1.552683683515718456e-35
-3.595000000000000279e-02 3.497244467200081282e-34
-3.579999999999999849e-02 -2.474535178296912909e-33
-3.565000000000000113e-02 -9.540320967481316582e-33
-3.549999999999999684e-02 2.764470955436146127e-31
-3.534999999999999948e-02 -1.095674240700887358e-30
-3.520000000000000212e-02 -1.054113970246774116e-29
-3.504999999999999782e-02 9.363617407599324651e-29
-3.490000000000000047e-02 1.873227232570943717e-28
-3.475000000000000311e-02 -3.779413337614423687e-27
-3.459999999999999881e-02 -1.551871593542469254e-27
-3.445000000000000145e-02 1.049191166919767740e-25
-3.429999999999999716e-02 4.356996800522640251e-26
-3.414999999999999980e-02 -2.172208769123162244e-24
-3.400000000000000244e-02 -2.989473202882335495e-24
-3.384999999999999815e-02 3.039499053845197525e-23
-3.370000000000000079e-02 9.512891326544458312e-23
-3.355000000000000343e-02 -1.676045307451025687e-22
-3.339999999999999913e-02 -1.391946354683472651e-21
-3.325000000000000178e-02 -2.184807352673806746e-21
-3.309999999999999748e-02 4.415255041880080350e-21
-3.295000000000000012e-02 2.838971103987221182e-20
-3.280000000000000276e-02 7.105332181579336048e-20
-3.264999999999999847e-02 1.177481779199460828e-19
-3.250000000000000111e-02 1.451693703224438039e-19
-3.234999999999999681e-02 1.275053290069831033e-19
-3.219999999999999946e-02 3.020981858021858009e-20
-3.205000000000000210e-02 -1.919000601492262648e-19
-3.189999999999999780e-02 -5.893103517526848890e-19
-3.175000000000000044e-02 -1.220899041986297283e-18
-3.160000000000000309e-02 -2.157321985919176541e-18
-3.144999999999999879e-02 -3.477459436957109091e-18
-3.130000000000000143e-02 -5.270936311072638912e-18
-3.115000000000000061e-02 -7.641189269118837593e-18
-3.099999999999999978e-02 -1.070312155639513993e-17
-3.084999999999999895e-02 -1.458593051277620332e-17
-3.070000000000000159e-02 -1.943416512312505680e-17
-3.055000000000000077e-02 -2.540541322030040277e-17
-3.039999999999999994e-02 -3.267424630949788240e-17
-3.024999999999999911e-02 -4.144147075622086869e-17
-3.009999999999999828e-02 -5.195394703375723702e-17
-2.995000000000000093e-02 -6.453380574241473805e-17
-2.980000000000000010e-02 -7.956249956731097539e-17
-2.964999999999999927e-02 -9.734028514463534745e-17
-2.949999999999999845e-02 -1.177474396612493792e-16
-2.935000000000000109e-02 -1.398615243852584364e-16
-2.920000000000000026e-02 -1.622108989801469771e-16
-2.904999999999999943e-02 -1.848719684647352995e-16
-2.889999999999999861e-02 -2.142297333698753238e-16
-2.875000000000000125e-02 -2.682720368263655881e-16
-2.860000000000000042e-02 -3.743958418757912165e-16
-2.844999999999999959e-02 -5.459711797787571153e-16
-2.829999999999999877e-02 -7.286779335069634104e-16
-2.815000000000000141e-02 -7.358949189153660662e-16
-2.800000000000000058e-02 -2.492259451419810094e-16
-2.784999999999999976e-02 9.839600583426942604e-16
-2.769999999999999893e-02 2.646945349401219269e-15
-2.755000000000000157e-02 3.147768190783664481e-15
-2.740000000000000074e-02 -7.337282615758487694e-16
-2.724999999999999992e-02 -1.276242159913357210e-14
-2.709999999999999909e-02 -3.353755803885832831e-14
-2.695000000000000173e-02 -5.400322252097425335e-14
-2.680000000000000090e-02 -4.867953235605446127e-14
-2.665000000000000008e-02 2.515185732214139658e-14
-2.649999999999999925e-02 2.132262194500661456e-13
-2.634999999999999842e-02 5.267582702493667224e-13
-2.620000000000000107e-02 8.794360639025056159e-13
-2.605000000000000024e-02 1.007068018386847452e-12
-2.589999999999999941e-02 3.895862311139447476e-13
-2.574999999999999858e-02 -1.789994042745990388e-12
-2.560000000000000123e-02 -6.580414164958359180e-12
-2.545000000000000040e-02 -1.493396899199250782e-11
-2.529999999999999957e-02 -2.679030261520942702e-11
-2.514999999999999875e-02 -3.903741913058311752e-11
-2.500000000000000139e-02 -4.175590775923332387e-11
-2.485000000000000056e-02 -1.264674302781099158e-11
-2.469999999999999973e-02 8.887025143566873453e-11
-2.454999999999999891e-02 3.233424916704308316e-10
-2.440000000000000155e-02 7.599700313498658488e-10
-2.425000000000000072e-02 1.439553587445630001e-09
-2.409999999999999989e-02 2.298097934172460555e-09
-2.394999999999999907e-02 3.043138185887528380e-09
-2.380000000000000171e-02 2.989612779558115108e-09
-2.365000000000000088e-02 8.853530131247566715e-10
-2.350000000000000006e-02 -5.217470455676220809e-09
-2.334999999999999923e-02 -1.796988868818516494e-08
-2.319999999999999840e-02 -4.053937630033033201e-08
-2.305000000000000104e-02 -7.618816511012482806e-08
-2.290000000000000022e-02 -1.276409733463879093e-07
-2.274999999999999939e-02 -1.963523317272120039e-07
-2.259999999999999856e-02 -2.818653399572212948e-07
-2.245000000000000120e-02 -3.814985802819137461e-07
-2.230000000000000038e-02 -4.905743367089598905e-07
-2.214999999999999955e-02 -6.032923920429311693e-07
-2.199999999999999872e-02 -7.141671289900841657e-07
-2.185000000000000137e-02 -8.197210945581900887e-07
-2.170000000000000054e-02 -9.199391683978319634e-07
-2.154999999999999971e-02 -1.018922262119303923e-06
-2.139999999999999888e-02 -1.124310642808268312e-06
-2.125000000000000153e-02 -1.245403268512745854e-06
-2.110000000000000070e-02 -1.390400370837596711e-06
-2.094999999999999987e-02 -1.563680257277155761e-06
-2.079999999999999905e-02 -1.764242597346310504e-06
-2.065000000000000169e-02 -1.986209781534853391e-06
-2.050000000000000086e-02 -2.221541762992274016e-06
-2.035000000000000003e-02 -2.464101271471008658e-06
-2.019999999999999921e-02 -2.713374215090880170e-06
-2.004999999999999838e-02 -2.975988763864734210e-06
-1.990000000000000102e-02 -3.263966618760605343e-06
-1.975000000000000019e-02 -3.590158712540869601e-06
-1.959999999999999937e-02 -3.962894425058038905e-06
-1.944999999999999854e-02 -4.382612587505718693e-06
-1.930000000000000118e-02 -4.842554972128709778e-06
-1.915000000000000036e-02 -5.333588433131808415e-06
-1.899999999999999953e-02 -5.850850357091985643e-06
-1.884999999999999870e-02 -6.398570349119836465e-06
-1.870000000000000134e-02 -6.990089332248317078e-06
-1.855000000000000052e-02 -7.642698619747534394e-06
-1.839999999999999969e-02 -8.370020623260643333e-06
-1.824999999999999886e-02 -9.176387720799539238e-06
-1.810000000000000150e-02 -1.005680223897797987e-05
-1.795000000000000068e-02 -1.100284134736284614e-05
-1.779999999999999985e-02 -1.201118448079796508e-05
-1.764999999999999902e-02 -1.308954051637556404e-05
-1.750000000000000167e-02 -1.425601476512383670e-05
-1.735000000000000084e-02 -1.553203401272185147e-05
-1.720000000000000001e-02 -1.693316335149575025e-05
-1.704999999999999918e-02 -1.846392478910274804e-05
-1.689999999999999836e-02 -2.012024378927890211e-05
-1.675000000000000100e-02 -2.189807855756953359e-05
-1.660000000000000017e-02 -2.380247678956948221e-05
-1.644999999999999934e-02 -2.585092988738324493e-05
-1.629999999999999852e-02 -2.806877637340221554e-05
-1.615000000000000116e-02 -3.047985046578105539e-05
-1.600000000000000033e-02 -3.309868770884349942e-05
-1.584999999999999951e-02 -3.592958819353953004e-05
-1.569999999999999868e-02 -3.897334318025968969e-05
-1.554999999999999959e-02 -4.223719224683009088e-05
-1.540000000000000049e-02 -4.574102422338910401e-05
-1.524999999999999967e-02 -4.951520895701833069e-05
-1.510000000000000057e-02 -5.359130591386929154e-05
-1.494999999999999975e-02 -5.799269638373516500e-05
-1.480000000000000066e-02 -6.273252802202478051e-05
-1.464999999999999983e-02 -6.782043055864050984e-05
-1.450000000000000074e-02 -7.327254570554941893e-05
-1.434999999999999991e-02 -7.911689317552372813e-05
-1.420000000000000082e-02 -8.539060945622622967e-05
-1.404999999999999999e-02 -9.213216253556311131e-05
-1.389999999999999916e-02 -9.937445429386571050e-05
-1.375000000000000007e-02 -1.071433143806643784e-04
-1.359999999999999924e-02 -1.154618803411722183e-04
-1.345000000000000015e-02 -1.243581937160342932e-04
-1.329999999999999932e-02 -1.338711153948679566e-04
-1.315000000000000023e-02 -1.440496998839080334e-04
-1.299999999999999940e-02 -1.549454318592324853e-04
-1.285000000000000031e-02 -1.666032039793208241e-04
-1.269999999999999948e-02 -1.790598762454465032e-04
-1.255000000000000039e-02 -1.923525996971875429e-04
-1.239999999999999956e-02 -2.065291482722386718e-04
-1.225000000000000047e-02 -2.216500579379498959e-04
-1.209999999999999964e-02 -2.377808559685945511e-04
-1.195000000000000055e-02 -2.549831988289952278e-04
-1.179999999999999973e-02 -2.733133442234247923e-04
-1.165000000000000063e-02 -2.928275498561561108e-04
-1.149999999999999981e-02 -3.135879815090447664e-04
-1.135000000000000071e-02 -3.356646338943392038e-04
-1.119999999999999989e-02 -3.591350396163761616e-04
-1.105000000000000079e-02 -3.840825520455837250e-04
-1.089999999999999997e-02 -4.105918924324214458e-04
-1.074999999999999914e-02 -4.387436201795935631e-04
-1.060000000000000005e-02 -4.686134925577789545e-04
-1.044999999999999922e-02 -5.002810503356158733e-04
-1.030000000000000013e-02 -5.338397459127008915e-04
-1.014999999999999930e-02 -5.693974671885371208e-04
-1.000000000000000021e-02 -6.070655654184520245e-04
-9.850001000000000589e-03 -6.469479994848370552e-04
-9.700001999999999236e-03 -6.891434895806014538e-04
-9.550001000000000670e-03 -7.337560527957975864e-04
-9.400000999999999843e-03 -7.809014059603214264e-04
-9.250002000000000224e-03 -8.307030657306313515e-04
-9.100000999999999923e-03 -8.832859457470476627e-04
-8.950001000000000831e-03 -9.387761820107698441e-04
-8.800001999999999477e-03 -9.973044507205486298e-04
-8.650000999999999177e-03 -1.059007365256547928e-03
-8.500001999999999558e-03 -1.124024856835603714e-03
-8.349999999999999784e-03 -1.192499534226953983e-03
-8.200001000000000165e-03 -1.264577615074813366e-03
-8.050002000000000546e-03 -1.340408809483051300e-03
-7.900000000000000772e-03 -1.420142594724893570e-03
-7.750001000000000285e-03 -1.503929262980818748e-03
-7.600001999999999799e-03 -1.591927139088511467e-03
-7.449998999999999684e-03 -1.684308052062988281e-03
-7.300001000000000406e-03 -1.781252794899046421e-03
-7.150001999999999920e-03 -1.882938784547150135e-03
-7.000003000000000301e-03 -1.989532727748155594e-03
-6.850000000000000186e-03 -2.101195510476827621e-03
-6.700002000000000041e-03 -2.218092791736125946e-03
-6.550003000000000422e-03 -2.340403851121664047e-03
-6.400000000000000307e-03 -2.468320541083812714e-03
-6.250000999999999821e-03 -2.602041698992252350e-03
-6.100002999999999675e-03 -2.741765696555376053e-03
-5.950000000000000427e-03 -2.887679496780037880e-03
-5.800000999999999941e-03 -3.039958421140909195e-03
-5.650002999999999796e-03 -3.198774764314293861e-03
-5.499999999999999681e-03 -3.364309901371598244e-03
-5.350001000000000062e-03 -3.536757780238986015e-03
-5.200001999999999576e-03 -3.716317238286137581e-03
-5.049999999999999802e-03 -3.903181524947285652e-03
-4.900001000000000183e-03 -4.097536206245422363e-03
-4.750001999999999697e-03 -4.299562424421310425e-03
-4.599999999999999922e-03 -4.509439226239919662e-03
-4.450001000000000304e-03 -4.727339837700128555e-03
-4.300001999999999817e-03 -4.953430965542793274e-03
-4.149998999999999702e-03 -5.187876056879758835e-03
-4.000001000000000424e-03 -5.430838558822870255e-03
-3.850001999999999938e-03 -5.682480055838823318e-03
-3.699998999999999823e-03 -5.942958872765302658e-03
-3.550000000000000204e-03 -6.212426349520683289e-03
-3.400002000000000059e-03 -6.491024047136306763e-03
-3.250003000000000006e-03 -6.778878159821033478e-03
-3.099999999999999891e-03 -7.076096720993518829e-03
-2.950002000000000180e-03 -7.382777519524097443e-03
-2.800003000000000127e-03 -7.699017412960529327e-03
-2.650000000000000012e-03 -8.024913258850574493e-03
-2.500000999999999959e-03 -8.360551670193672180e-03
-2.350002999999999814e-03 -8.706002496182918549e-03
-2.200000000000000133e-03 -9.061310440301895142e-03
-2.050001000000000080e-03 -9.426502510905265808e-03
-1.900002000000000028e-03 -9.801589883863925934e-03
-1.750000000000000036e-03 -1.018657349050045013e-02
-1.600000999999999984e-03 -1.058144122362136841e-02
-1.450001999999999932e-03 -1.098616793751716614e-02
-1.299999999999999940e-03 -1.140070520341396332e-02
-1.150001000000000105e-03 -1.182497944682836533e-02
-1.000002000000000052e-03 -1.225889008492231369e-02
-8.499994999999999990e-04 -1.270232163369655609e-02
-7.000007000000000148e-04 -1.315514743328094482e-02
-5.500019000000000305e-04 -1.361721847206354141e-02
-3.999992999999999973e-04 -1.408835686743259430e-02
-2.500005000000000131e-04 -1.456835120916366577e-02
-1.000017000000000017e-04 -1.505696587264537811e-02
5.000085000000000087e-05 -1.555394288152456284e-02
1.999996999999999886e-04 -1.605900190770626068e-02
3.499985000000000270e-04 -1.657183840870857239e-02
4.999972999999999571e-04 -1.709212735295295715e-02
6.499998000000000104e-04 -1.761950738728046417e-02
7.999985999999999946e-04 -1.815358549356460571e-02
9.499975000000000129e-04 -1.869394443929195404e-02
1.100000000000000066e-03 -1.924013532698154449e-02
1.249998999999999902e-03 -1.979167945683002472e-02
1.399997999999999954e-03 -2.034807391464710236e-02
1.549999999999999946e-03 -2.090878039598464966e-02
1.699998999999999998e-03 -2.147323079407215118e-02
1.849998000000000050e-03 -2.204083651304244995e-02
2.000000000000000042e-03 -2.261098474264144897e-02
2.149999000000000094e-03 -2.318303100764751434e-02
2.299998000000000146e-03 -2.375629544258117676e-02
2.449999999999999921e-03 -2.433006279170513153e-02
2.599998999999999973e-03 -2.490358613431453705e-02
2.749998000000000026e-03 -2.547609806060791016e-02
2.900001000000000141e-03 -2.604680880904197693e-02
3.049998999999999853e-03 -2.661490812897682190e-02
3.199997999999999905e-03 -2.717956528067588806e-02
3.350001000000000020e-03 -2.773991413414478302e-02
3.500000000000000073e-03 -2.829505875706672668e-02
3.649997999999999784e-03 -2.884407714009284973e-02
3.800000999999999900e-03 -2.938603237271308899e-02
3.950000000000000386e-03 -2.991997264325618744e-02
4.099999000000000005e-03 -3.044492751359939575e-02
4.249997000000000150e-03 -3.095990791916847229e-02
4.400000000000000265e-03 -3.146390244364738464e-02
4.549998999999999884e-03 -3.195588663220405579e-02
4.699998000000000370e-03 -3.243482112884521484e-02
4.850000000000000144e-03 -3.289966657757759094e-02
4.999998999999999763e-03 -3.334937244653701782e-02
5.149998000000000249e-03 -3.378288075327873230e-02
5.300000000000000024e-03 -3.419912233948707581e-02
5.449998999999999642e-03 -3.459702432155609131e-02
5.599998000000000128e-03 -3.497551381587982178e-02
5.749999999999999903e-03 -3.533351421356201172e-02
5.899999000000000389e-03 -3.566996753215789795e-02
6.049998000000000008e-03 -3.598381578922271729e-02
6.200001000000000123e-03 -3.627401590347290039e-02
6.349999000000000268e-03 -3.653951734304428101e-02
6.499997999999999887e-03 -3.677929937839508057e-02
6.650001000000000002e-03 -3.699235245585441589e-02
6.799999999999999621e-03 -3.717768937349319458e-02
6.949997999999999766e-03 -3.733433410525321960e-02
7.100000999999999882e-03 -3.746133297681808472e-02
7.250000000000000368e-03 -3.755776211619377136e-02
7.399998999999999987e-03 -3.762272745370864868e-02
7.550000999999999761e-03 -3.765537589788436890e-02
7.700000000000000247e-03 -3.765488788485527039e-02
7.849998999999999866e-03 -3.762047365307807922e-02
7.999997999999999485e-03 -3.755138069391250610e-02
8.149999999999999259e-03 -3.744689002633094788e-02
8.299999000000000612e-03 -3.730632737278938293e-02
8.449998000000000231e-03 -3.712906688451766968e-02
8.600000000000000006e-03 -3.691454976797103882e-02
8.749998999999999624e-03 -3.666225075721740723e-02
8.899997999999999243e-03 -3.637170419096946716e-02
9.050000000000000752e-03 -3.604248911142349243e-02
9.199999000000000371e-03 -3.567424416542053223e-02
9.349997999999999990e-03 -3.526666387915611267e-02
9.500000999999999238e-03 -3.481951355934143066e-02
9.649998999999999383e-03 -3.433262184262275696e-02
9.799998000000000736e-03 -3.380586579442024231e-02
9.950000999999999984e-03 -3.323919326066970825e-02
1.009999999999999960e-02 -3.263260424137115479e-02
1.025000000000000043e-02 -3.198618441820144653e-02
1.039999999999999952e-02 -3.130007535219192505e-02
1.055000000000000035e-02 -3.057450242340564728e-02
1.069999999999999944e-02 -2.980975061655044556e-02
1.085000000000000027e-02 -2.900616824626922607e-02
1.099999999999999936e-02 -2.816417813301086426e-02
1.115000000000000019e-02 -2.728426642715930939e-02
1.129999999999999928e-02 -2.636699192225933075e-02
1.145000000000000011e-02 -2.541298232972621918e-02
1.159999999999999920e-02 -2.442293427884578705e-02
1.175000000000000003e-02 -2.339760959148406982e-02
1.190000000000000085e-02 -2.233783900737762451e-02
1.204999999999999995e-02 -2.124452032148838043e-02
1.220000000000000077e-02 -2.011862210929393768e-02
1.234999999999999987e-02 -1.896117255091667175e-02
1.250000000000000069e-02 -1.777325756847858429e-02
1.264999999999999979e-02 -1.655601710081100464e-02
1.280000000000000061e-02 -1.531064882874488831e-02
1.294999999999999971e-02 -1.403841376304626465e-02
1.310000000000000053e-02 -1.274063065648078918e-02
1.324999999999999963e-02 -1.141867320984601974e-02
1.340000000000000045e-02 -1.007395982742309570e-02
1.354999999999999954e-02 -8.707952685654163361e-03
1.370000000000000037e-02 -7.322153076529502869e-03
1.384999999999999946e-02 -5.918106995522975922e-03
1.400000000000000029e-02 -4.497400950640439987e-03
1.414999999999999938e-02 -3.061660099774599075e-03
1.430000000000000021e-02 -1.612540800124406815e-03
1.444999999999999930e-02 -1.517216151114553213e-04
1.460000000000000013e-02 1.319097471423447132e-03
1.474999999999999922e-02 2.798191271722316742e-03
1.490000000000000005e-02 4.283809568732976913e-03
1.504999999999999914e-02 5.774185992777347565e-03
1.519999999999999997e-02 7.267543580383062363e-03
1.535000000000000080e-02 8.762103505432605743e-03
1.549999999999999989e-02 1.025608368217945099e-02
1.565000000000000072e-02 1.174770575016736984e-02
1.580000000000000154e-02 1.323518902063369751e-02
1.594999999999999890e-02 1.471675932407379150e-02
1.609999999999999973e-02 1.619065180420875549e-02
1.625000000000000056e-02 1.765511557459831238e-02
1.640000000000000138e-02 1.910841837525367737e-02
1.654999999999999874e-02 2.054885216057300568e-02
1.669999999999999957e-02 2.197472564876079559e-02
1.685000000000000039e-02 2.338438108563423157e-02
1.700000000000000122e-02 2.477618865668773651e-02
1.714999999999999858e-02 2.614855766296386719e-02
1.729999999999999941e-02 2.749994024634361267e-02
1.745000000000000023e-02 2.882882021367549896e-02
1.760000000000000106e-02 3.013372235000133514e-02
1.774999999999999842e-02 3.141321614384651184e-02
1.789999999999999925e-02 3.266591578722000122e-02
1.805000000000000007e-02 3.389049321413040161e-02
1.820000000000000090e-02 3.508567437529563904e-02
1.835000000000000173e-02 3.625024482607841492e-02
1.849999999999999908e-02 3.738303855061531067e-02
1.864999999999999991e-02 3.848294913768768311e-02
1.880000000000000074e-02 3.954892233014106750e-02
1.895000000000000157e-02 4.057997465133666992e-02
1.909999999999999892e-02 4.157519340515136719e-02
1.924999999999999975e-02 4.253372550010681152e-02
1.940000000000000058e-02 4.345477744936943054e-02
1.955000000000000140e-02 4.433761537075042725e-02
1.969999999999999876e-02 4.518157243728637695e-02
1.984999999999999959e-02 4.598604887723922729e-02
2.000000000000000042e-02 4.675053060054779053e-02
2.015000000000000124e-02 4.747455567121505737e-02
2.029999999999999860e-02 4.815773665904998779e-02
2.044999999999999943e-02 4.879974573850631714e-02
2.060000000000000026e-02 4.940031841397285461e-02
2.075000000000000108e-02 4.995926097035408020e-02
2.089999999999999844e-02 5.047643557190895081e-02
2.104999999999999927e-02 5.095177888870239258e-02
2.120000000000000009e-02 5.138529092073440552e-02
2.135000000000000092e-02 5.177702382206916809e-02
2.149999999999999828e-02 5.212709680199623108e-02
2.164999999999999911e-02 5.243569239974021912e-02
2.179999999999999993e-02 5.270304530858993530e-02
2.195000000000000076e-02 5.292944610118865967e-02
2.210000000000000159e-02 5.311524122953414917e-02
2.224999999999999895e-02 5.326082184910774231e-02
2.239999999999999977e-02 5.336662754416465759e-02
2.255000000000000060e-02 5.343315750360488892e-02
2.270000000000000143e-02 5.346095561981201172e-02
2.284999999999999878e-02 5.345061048865318298e-02
2.299999999999999961e-02 5.340274795889854431e-02
2.315000000000000044e-02 5.331803113222122192e-02
2.330000000000000127e-02 5.319715663790702820e-02
2.344999999999999862e-02 5.304086953401565552e-02
2.359999999999999945e-02 5.284994840621948242e-02
2.375000000000000028e-02 5.262519791722297668e-02
2.390000000000000110e-02 5.236743763089179993e-02
2.404999999999999846e-02 5.207752436399459839e-02
2.419999999999999929e-02 5.175632983446121216e-02
2.435000000000000012e-02 5.140474811196327209e-02
2.450000000000000094e-02 5.102370679378509521e-02
2.464999999999999830e-02 5.061414465308189392e-02
2.479999999999999913e-02 5.017701536417007446e-02
2.494999999999999996e-02 4.971327260136604309e-02
2.510000000000000078e-02 4.922388866543769836e-02
2.525000000000000161e-02 4.870983585715293884e-02
2.539999999999999897e-02 4.817209765315055847e-02
2.554999999999999979e-02 4.761166498064994812e-02
2.570000000000000062e-02 4.702952504158020020e-02
2.585000000000000145e-02 4.642666876316070557e-02
2.599999999999999881e-02 4.580408334732055664e-02
2.614999999999999963e-02 4.516275599598884583e-02
2.630000000000000046e-02 4.450366273522377014e-02
2.645000000000000129e-02 4.382777959108352661e-02
2.659999999999999865e-02 4.313607513904571533e-02
2.674999999999999947e-02 4.242950305342674255e-02
2.690000000000000030e-02 4.170900583267211914e-02
2.705000000000000113e-02 4.097551479935646057e-02
2.719999999999999848e-02 4.022995010018348694e-02
2.734999999999999931e-02 3.947323188185691833e-02
2.750000000000000014e-02 3.870623931288719177e-02
2.765000000000000097e-02 3.792985156178474426e-02
2.779999999999999832e-02 3.714492172002792358e-02
2.794999999999999915e-02 3.635230287909507751e-02
2.809999999999999998e-02 3.555281832814216614e-02
2.825000000000000080e-02 3.474728390574455261e-02
2.840000000000000163e-02 3.393648192286491394e-02
2.854999999999999899e-02 3.312117606401443481e-02
2.869999999999999982e-02 3.230211511254310608e-02
2.885000000000000064e-02 3.148002177476882935e-02
2.900000000000000147e-02 3.065561503171920776e-02
2.914999999999999883e-02 2.982958778738975525e-02
2.929999999999999966e-02 2.900261431932449341e-02
2.945000000000000048e-02 2.817534841597080231e-02
2.960000000000000131e-02 2.734841220080852509e-02
2.974999999999999867e-02 2.652240730822086334e-02
2.989999999999999949e-02 2.569792792201042175e-02
3.005000000000000032e-02 2.487554773688316345e-02
3.020000000000000115e-02 2.405582182109355927e-02
3.034999999999999851e-02 2.323927730321884155e-02
3.049999999999999933e-02 2.242642827332019806e-02
3.065000000000000016e-02 2.161776646971702576e-02
3.080000000000000099e-02 2.081376500427722931e-02
3.094999999999999835e-02 2.001488767564296722e-02
3.109999999999999917e-02 1.922157406806945801e-02
3.125000000000000000e-02 1.843424700200557709e-02
3.139999999999999736e-02 1.765330880880355835e-02
3.155000000000000165e-02 1.687914691865444183e-02
3.169999999999999901e-02 1.611213199794292450e-02
3.185000000000000331e-02 1.535262074321508408e-02
3.200000000000000067e-02 1.460095681250095367e-02
3.214999999999999802e-02 1.385746430605649948e-02
3.230000000000000232e-02 1.312245242297649384e-02
3.244999999999999968e-02 1.239622104912996292e-02
3.259999999999999704e-02 1.167905516922473907e-02
3.275000000000000133e-02 1.097122393548488617e-02
3.289999999999999869e-02 1.027298253029584885e-02
3.305000000000000299e-02 9.584568440914154053e-03
3.320000000000000034e-02 8.906207978725433350e-03
3.334999999999999770e-02 8.238117210566997528e-03
3.350000000000000200e-02 7.580503821372985840e-03
3.364999999999999936e-02 6.933567579835653305e-03
3.379999999999999671e-02 6.297494284808635712e-03
3.395000000000000101e-02 5.672453437000513077e-03
3.409999999999999837e-02 5.058599170297384262e-03
3.425000000000000266e-02 4.456076771020889282e-03
3.440000000000000002e-02 3.865025937557220459e-03
3.454999999999999738e-02 3.285576822236180305e-03
3.470000000000000168e-02 2.717848867177963257e-03
3.484999999999999903e-02 2.161948243156075478e-03
3.500000000000000333e-02 1.617970410734415054e-03
3.515000000000000069e-02 1.086002215743064880e-03
3.529999999999999805e-02 5.661226459778845310e-04
3.545000000000000234e-02 5.840418089064769447e-05
3.559999999999999970e-02 -4.370899405330419540e-04
3.574999999999999706e-02 -9.203092777170240879e-04
3.590000000000000135e-02 -1.391216181218624115e-03
3.604999999999999871e-02 -1.849782303906977177e-03
3.620000000000000301e-02 -2.295984420925378799e-03
3.635000000000000037e-02 -2.729805884882807732e-03
3.649999999999999772e-02 -3.151239361613988876e-03
3.665000000000000202e-02 -3.560287645086646080e-03
3.679999999999999938e-02 -3.956961911171674728e-03
3.694999999999999674e-02 -4.341281484812498093e-03
3.710000000000000103e-02 -4.713274538516998291e-03
3.724999999999999839e-02 -5.072975996881723404e-03
3.740000000000000269e-02 -5.420431494712829590e-03
3.755000000000000004e-02 -5.755695048719644547e-03
3.769999999999999740e-02 -6.078829988837242126e-03
3.785000000000000170e-02 -6.389906164258718491e-03
3.799999999999999906e-02 -6.688998080790042877e-03
3.815000000000000335e-02 -6.976186297833919525e-03
3.830000000000000071e-02 -7.251559756696224213e-03
3.844999999999999807e-02 -7.515220437198877335e-03
3.860000000000000236e-02 -7.767277304083108902e-03
3.874999999999999972e-02 -8.007845841348171234e-03
3.889999999999999708e-02 -8.237042464315891266e-03
3.905000000000000138e-02 -8.454993367195129395e-03
3.919999999999999873e-02 -8.661832660436630249e-03
3.935000000000000303e-02 -8.857700973749160767e-03
3.950000000000000039e-02 -9.042749181389808655e-03
3.964999999999999775e-02 -9.217131882905960083e-03
3.980000000000000204e-02 -9.381004609167575836e-03
3.994999999999999940e-02 -9.534527547657489777e-03
4.009999999999999676e-02 -9.677866473793983459e-03
4.025000000000000105e-02 -9.811196476221084595e-03
4.039999999999999841e-02 -9.934702888131141663e-03
4.055000000000000271e-02 -1.004857290536165237e-02
4.070000000000000007e-02 -1.015299558639526367e-02
4.084999999999999742e-02 -1.024815998971462250e-02
4.100000000000000172e-02 -1.033426262438297272e-02
4.114999999999999908e-02 -1.041150372475385666e-02
4.130000000000000338e-02 -1.048008631914854050e-02
4.145000000000000073e-02 -1.054021716117858887e-02
4.159999999999999809e-02 -1.059210672974586487e-02
4.175000000000000239e-02 -1.063596643507480621e-02
4.189999999999999974e-02 -1.067201048135757446e-02
4.204999999999999710e-02 -1.070045586675405502e-02
4.220000000000000140e-02 -1.072152145206928253e-02
4.234999999999999876e-02 -1.073542889207601547e-02
4.250000000000000305e-02 -1.074239704757928848e-02
4.265000000000000041e-02 -1.074264571070671082e-02
4.279999999999999777e-02 -1.073639467358589172e-02
4.295000000000000207e-02 -1.072386652231216431e-02
4.309999999999999942e-02 -1.070528384298086166e-02
4.324999999999999678e-02 -1.068086735904216766e-02
4.340000000000000108e-02 -1.065083593130111694e-02
4.354999999999999843e-02 -1.061540842056274414e-02
4.370000000000000273e-02 -1.057480648159980774e-02
4.385000000000000009e-02 -1.052924897521734238e-02
4.399999999999999745e-02 -1.047895383089780807e-02
4.415000000000000174e-02 -1.042413525283336639e-02
4.429999999999999910e-02 -1.036500371992588043e-02
4.445000000000000340e-02 -1.030176412314176559e-02
4.460000000000000075e-02 -1.023461855947971344e-02
4.474999999999999811e-02 -1.016377098858356476e-02
4.490000000000000241e-02 -1.008943002671003342e-02
4.504999999999999977e-02 -1.001179590821266174e-02
4.519999999999999712e-02 -9.931063279509544373e-03
4.535000000000000142e-02 -9.847422130405902863e-03
4.549999999999999878e-02 -9.761055931448936462e-03
4.565000000000000308e-02 -9.672149084508419037e-03
4.580000000000000043e-02 -9.580883197486400604e-03
4.594999999999999779e-02 -9.487435221672058105e-03
4.610000000000000209e-02 -9.391976520419120789e-03
4.624999999999999944e-02 -9.294671937823295593e-03
4.639999999999999680e-02 -9.195682592689990997e-03
4.655000000000000110e-02 -9.095167741179466248e-03
4.669999999999999846e-02 -8.993285708129405975e-03
4.685000000000000275e-02 -8.890188299119472504e-03
4.700000000000000011e-02 -8.786020800471305847e-03
4.714999999999999747e-02 -8.680922910571098328e-03
4.730000000000000177e-02 -8.575027808547019958e-03
4.744999999999999912e-02 -8.468464948236942291e-03
4.760000000000000342e-02 -8.361361920833587646e-03
4.775000000000000078e-02 -8.253840729594230652e-03