-4.000000000000000083e-02 0.000000000000000000e+00
-3.984999999999999654e-02 0.000000000000000000e+00
-3.969999999999999918e-02 0.000000000000000000e+00
-3.955000000000000182e-02 0.000000000000000000e+00
-3.939999999999999752e-02 0.000000000000000000e+00
-3.925000000000000017e-02 0.000000000000000000e+00
-3.910000000000000281e-02 0.000000000000000000e+00
-3.894999999999999851e-02 0.000000000000000000e+00
-3.880000000000000115e-02 0.000000000000000000e+00
-3.864999999999999686e-02 0.000000000000000000e+00
-3.849999999999999950e-02 0.000000000000000000e+00
-3.835000000000000214e-02 0.000000000000000000e+00
-3.819999999999999785e-02 0.000000000000000000e+00
-3.805000000000000049e-02 0.000000000000000000e+00
-3.790000000000000313e-02 0.000000000000000000e+00
-3.774999999999999883e-02 0.000000000000000000e+00
-3.760000000000000148e-02 0.000000000000000000e+00
-3.744999999999999718e-02 0.000000000000000000e+00
-3.729999999999999982e-02 0.000000000000000000e+00
-3.715000000000000246e-02 0.000000000000000000e+00
-3.699999999999999817e-02 0.000000000000000000e+00
-3.685000000000000081e-02 0.000000000000000000e+00
-3.670000000000000345e-02 0.000000000000000000e+00
-3.654999999999999916e-02 0.000000000000000000e+00
-3.640000000000000180e-02 0.000000000000000000e+00
-3.624999999999999750e-02 0.000000000000000000e+00
-3.610000000000000014e-02 0.000000000000000000e+00
-3.595000000000000279e-02 0.000000000000000000e+00
-3.579999999999999849e-02 0.000000000000000000e+00
-3.565000000000000113e-02 0.000000000000000000e+00
-3.549999999999999684e-02 0.000000000000000000e+00
-3.534999999999999948e-02 0.000000000000000000e+00
-3.520000000000000212e-02 0.000000000000000000e+00
-3.504999999999999782e-02 0.000000000000000000e+00
-3.490000000000000047e-02 0.000000000000000000e+00
-3.475000000000000311e-02 0.000000000000000000e+00
-3.459999999999999881e-02 0.000000000000000000e+00
-3.445000000000000145e-02 0.000000000000000000e+00
-3.429999999999999716e-02 0.000000000000000000e+00
-3.414999999999999980e-02 0.000000000000000000e+00
-3.400000000000000244e-02 0.000000000000000000e+00
-3.384999999999999815e-02 0.000000000000000000e+00
-3.370000000000000079e-02 0.000000000000000000e+00
-3.355000000000000343e-02 0.000000000000000000e+00
-3.339999999999999913e-02 0.000000000000000000e+00
-3.325000000000000178e-02 0.000000000000000000e+00
-3.309999999999999748e-02 0.000000000000000000e+00
-3.295000000000000012e-02 0.000000000000000000e+00
-3.280000000000000276e-02 0.000000000000000000e+00
-3.264999999999999847e-02 0.000000000000000000e+00
-3.250000000000000111e-02 0.000000000000000000e+00
-3.234999999999999681e-02 0.000000000000000000e+00
-3.219999999999999946e-02 0.000000000000000000e+00
-3.205000000000000210e-02 0.000000000000000000e+00
-3.189999999999999780e-02 0.000000000000000000e+00
-3.175000000000000044e-02 0.000000000000000000e+00
-3.160000000000000309e-02 0.000000000000000000e+00
-3.144999999999999879e-02 0.000000000000000000e+00
-3.130000000000000143e-02 0.000000000000000000e+00
-3.115000000000000061e-02 0.000000000000000000e+00
-3.099999999999999978e-02 -0.000000000000000000e+00
-3.084999999999999895e-02 0.000000000000000000e+00
-3.070000000000000159e-02 2.802596928649634142e-45
-3.055000000000000077e-02 -1.401298464324817071e-44
-3.039999999999999994e-02 -1.513402341470802437e-43
-3.024999999999999911e-02 1.427923135146988595e-42
-3.009999999999999828e-02 3.892807133894341823e-42
-2.995000000000000093e-02 -8.418440654277771035e-41
-2.980000000000000010e-02 1.518166756249506815e-41
-2.964999999999999927e-02 3.751704786327618693e-39
-2.949999999999999845e-02 -7.011459924680116831e-39
-2.935000000000000109e-02 -1.380370912539204523e-37
-2.920000000000000026e-02 4.072172440496901240e-37
-2.904999999999999943e-02 4.450070484933338936e-36
-2.889999999999999861e-02 -1.553212885562328880e-35
-2.875000000000000125e-02 -1.311541521129399244e-34
-2.860000000000000042e-02 4.471640662777965165e-34
-2.844999999999999959e-02 3.600373157991612989e-33
-2.829999999999999877e-02 -9.755566472744354911e-33
-2.815000000000000141e-02 -9.092393555375905227e-32
-2.800000000000000058e-02 1.423847625088876795e-31
-2.784999999999999976e-02 2.029110700762301356e-30
-2.769999999999999893e-02 -4.063052965425126511e-31
-2.755000000000000157e-02 -3.757937401138120992e-29
-2.740000000000000074e-02 -4.901453791719735122e-29
-2.724999999999999992e-02 5.213164951365701624e-28
-2.709999999999999909e-02 1.663075944089354884e-27
-2.695000000000000173e-02 -4.105392002955529576e-27
-2.680000000000000090e-02 -3.013438489034158732e-26
-2.665000000000000008e-02 -1.550206280438156499e-26
-2.649999999999999925e-02 3.059109652771687431e-25
-2.634999999999999842e-02 8.995721098500574178e-25
-2.620000000000000107e-02 -7.203358617395031229e-25
-2.605000000000000024e-02 -1.001083263615008241e-23
-2.589999999999999941e-02 -2.131998043872195826e-23
-2.574999999999999858e-02 1.637173523703099945e-23
-2.560000000000000123e-02 1.980474177622759429e-22
-2.545000000000000040e-02 4.958887692608859279e-22
-2.529999999999999957e-02 3.913774473113302352e-22
-2.514999999999999875e-02 -1.400916195425040413e-21
-2.500000000000000139e-02 -6.682542156706940700e-21
-2.485000000000000056e-02 -1.710218049997119047e-20
-2.469999999999999973e-02 -3.386421205359835837e-20
-2.454999999999999891e-02 -5.818817528640758548e-20
-2.440000000000000155e-02 -9.172296266105670058e-20
-2.425000000000000072e-02 -1.362506055603204904e-19
-2.409999999999999989e-02 -1.933859737974041388e-19
-2.394999999999999907e-02 -2.649241074626845359e-19
-2.380000000000000171e-02 -3.530754787221477234e-19
-2.365000000000000088e-02 -4.601277977314768818e-19
-2.350000000000000006e-02 -5.884044338855744700e-19
-2.334999999999999923e-02 -7.406354450973834712e-19
-2.319999999999999840e-02 -9.198635118526036285e-19
-2.305000000000000104e-02 -1.129213308915154004e-18
-2.290000000000000022e-02 -1.372177347927598334e-18
-2.274999999999999939e-02 -1.652709138627633815e-18
-2.259999999999999856e-02 -1.974970640267321005e-18
-2.245000000000000120e-02 -2.343513103974503232e-18
-2.230000000000000038e-02 -2.763457811716649428e-18
-2.214999999999999955e-02 -3.240278837992482392e-18
-2.199999999999999872e-02 -3.779923818201411532e-18
-2.185000000000000137e-02 -4.389025293290040161e-18
-2.170000000000000054e-02 -5.074724106691385429e-18
-2.154999999999999971e-02 -5.844775490238438248e-18
-2.139999999999999888e-02 -6.707762683557355108e-18
-2.125000000000000153e-02 -7.672953004640873856e-18
-2.110000000000000070e-02 -8.750418618217746433e-18
-2.094999999999999987e-02 -9.951240849364039473e-18
-2.079999999999999905e-02 -1.128738900154339529e-17
-2.065000000000000169e-02 -1.277188703350046130e-17
-2.050000000000000086e-02 -1.441898892155075128e-17
-2.035000000000000003e-02 -1.624409180561632728e-17
-2.019999999999999921e-02 -1.826395271054628855e-17
-2.004999999999999838e-02 -2.049683909298825613e-17
-1.990000000000000102e-02 -2.296249244544142060e-17
-1.975000000000000019e-02 -2.568239630277500919e-17
-1.959999999999999937e-02 -2.867986723209566663e-17
-1.944999999999999854e-02 -3.198011604411278412e-17
-1.930000000000000118e-02 -3.561054888688146855e-17
-1.915000000000000036e-02 -3.960082183972297109e-17
-1.899999999999999953e-02 -4.398300634934719771e-17
-1.884999999999999870e-02 -4.879188701487322834e-17
-1.870000000000000134e-02 -5.406504430589057213e-17
-1.855000000000000052e-02 -5.984311595153273423e-17
-1.839999999999999969e-02 -6.617008149060793400e-17
-1.824999999999999886e-02 -7.309337807688486249e-17
-1.810000000000000150e-02 -8.066425120367240486e-17
-1.795000000000000068e-02 -8.893806903245241057e-17
-1.779999999999999985e-02 -9.797447459411240313e-17
-1.764999999999999902e-02 -1.078379019496478132e-16
-1.750000000000000167e-02 -1.185977283913946883e-16
-1.735000000000000084e-02 -1.303286847246135191e-16
-1.720000000000000001e-02 -1.431112589316281655e-16
-1.704999999999999918e-02 -1.570321527755239857e-16
-1.689999999999999836e-02 -1.721845663502785543e-16
-1.675000000000000100e-02 -1.886688068856925016e-16
-1.660000000000000017e-02 -2.065926196196345350e-16
-1.644999999999999934e-02 -2.260718495425314807e-16
-1.629999999999999852e-02 -2.472309178534011151e-16
-1.615000000000000116e-02 -2.702030337180889776e-16
-1.600000000000000033e-02 -2.951318221607138756e-16
-1.584999999999999951e-02 -3.221703314469328205e-16
-1.569999999999999868e-02 -3.514839447596972144e-16
-1.554999999999999959e-02 -3.832481832075459094e-16
-1.540000000000000049e-02 -4.176530998080190890e-16
-1.524999999999999967e-02 -4.548995737185140310e-16
-1.510000000000000057e-02 -4.952053188762546923e-16
-1.494999999999999975e-02 -5.388005164846574289e-16
-1.480000000000000066e-02 -5.859335589555045645e-16
-1.464999999999999983e-02 -6.368681382331882034e-16
-1.450000000000000074e-02 -6.918863692287032310e-16
-1.434999999999999991e-02 -7.512903250668642122e-16
-1.420000000000000082e-02 -8.153994959874636284e-16
-1.404999999999999999e-02 -8.845596831912180477e-16
-1.389999999999999916e-02 -9.591322521092498360e-16
-1.375000000000000007e-02 -1.039511231880709853e-15
-1.359999999999999924e-02 -1.126105845298240333e-15
-1.345000000000000015e-02 -1.219362690483281105e-15
-1.329999999999999932e-02 -1.319746153249164340e-15
-1.315000000000000023e-02 -1.427759794683032719e-15
-1.299999999999999940e-02 -1.543930151640723197e-15
-1.285000000000000031e-02 -1.668823359768356867e-15
-1.269999999999999948e-02 -1.803036259656392790e-15
-1.255000000000000039e-02 -1.947205290685574165e-15
-1.239999999999999956e-02 -2.102003314653376129e-15
-1.225000000000000047e-02 -2.268145227367281309e-15
-1.209999999999999964e-02 -2.446386793974477357e-15
-1.195000000000000055e-02 -2.637531636983671789e-15
-1.179999999999999973e-02 -2.842425730550934837e-15
-1.165000000000000063e-02 -3.061971588281565959e-15
-1.149999999999999981e-02 -3.297115981252358649e-15
-1.135000000000000071e-02 -3.548867090428782338e-15
-1.119999999999999989e-02 -3.818283071720194460e-15
-1.105000000000000079e-02 -4.106487302572891032e-15
-1.089999999999999997e-02 -4.414662029223002243e-15
-1.074999999999999914e-02 -4.744058742850096322e-15
-1.060000000000000005e-02 -5.095991191555364688e-15
-1.044999999999999922e-02 -5.471845544756989005e-15
-1.030000000000000013e-02 -5.873075734508931278e-15
-1.014999999999999930e-02 -6.301211925830406402e-15
-1.000000000000000021e-02 -6.757856705057619512e-15
-9.850001000000000589e-03 -7.244709220282762735e-15
-9.700001999999999236e-03 -7.763587204210643800e-15
-9.550001000000000670e-03 -8.316485419432046583e-15
-9.400000999999999843e-03 -8.905623939301724606e-15
-9.250002000000000224e-03 -9.533466782663240630e-15
-9.100000999999999923e-03 -1.020259655297277301e-14
-8.950001000000000831e-03 -1.091533242643990403e-14
-8.800001999999999477e-03 -1.167293987028783162e-14
-8.650000999999999177e-03 -1.247447952497805074e-14
-8.500001999999999558e-03 -1.331570944951071186e-14
-8.349999999999999784e-03 -1.418916982471934637e-14
-8.200001000000000165e-03 -1.508751518088536497e-14
-8.050002000000000546e-03 -1.601289020543121555e-14
-7.900000000000000772e-03 -1.699462680228736727e-14
-7.750001000000000285e-03 -1.811449753218175029e-14
-7.600001999999999799e-03 -1.953127872107718321e-14
-7.449998999999999684e-03 -2.148396410317325589e-14
-7.300001000000000406e-03 -2.423729552020019440e-14
-7.150001999999999920e-03 -2.792106891286345871e-14
-7.000003000000000301e-03 -3.221941891886834219e-14
-6.850000000000000186e-03 -3.590737665429104275e-14
-6.700002000000000041e-03 -3.633058819605718137e-14
-6.550003000000000422e-03 -2.909042838973412148e-14
-6.400000000000000307e-03 -8.413463068596138683e-15
-6.250000999999999821e-03 3.111798809623568529e-14
-6.100002999999999675e-03 9.075066951169316609e-14
-5.950000000000000427e-03 1.612329383502905666e-13
-5.800000999999999941e-03 2.143937154544528489e-13
-5.650002999999999796e-03 1.945708676641400015e-13
-5.499999999999999681e-03 1.395535315589337480e-14
-5.350001000000000062e-03 -4.418073979578496235e-13
-5.200001999999999576e-03 -1.289870445696228440e-12
-5.049999999999999802e-03 -2.600886303202876171e-12
-4.900001000000000183e-03 -4.320592061207717549e-12
-4.750001999999999697e-03 -6.166756775366488696e-12
-4.599999999999999922e-03 -7.518073837087246858e-12
-4.450001000000000304e-03 -7.325459683293900071e-12
-4.300001999999999817e-03 -4.087691990450892376e-12
-4.149998999999999702e-03 4.063520787217500541e-12
-4.000001000000000424e-03 1.913551955778913793e-11
-3.850001999999999938e-03 4.289964911086130428e-11
-3.699998999999999823e-03 7.641035026928477691e-11
-3.550000000000000204e-03 1.195129967213048872e-10
-3.400002000000000059e-03 1.704810875802209580e-10
-3.250003000000000006e-03 2.259387954506308915e-10
-3.099999999999999891e-03 2.811920418732682947e-10
-2.950002000000000180e-03 3.310072493878379873e-10
-2.800003000000000127e-03 3.707498474891934848e-10
-2.650000000000000012e-03 3.976446671938305144e-10
-2.500000999999999959e-03 4.118154151022679343e-10
-2.350002999999999814e-03 4.167392264609048880e-10
-2.200000000000000133e-03 4.188555891015965926e-10
-2.050001000000000080e-03 4.262744601746248918e-10
-1.900002000000000028e-03 4.468211078911821232e-10
-1.750000000000000036e-03 4.859241342636266836e-10
-1.600000999999999984e-03 5.450063178535913266e-10
-1.450001999999999932e-03 6.209769365383976947e-10
-1.299999999999999940e-03 7.071326857399640176e-10
-1.150001000000000105e-03 7.953087632905919691e-10
-1.000002000000000052e-03 8.786626981560630156e-10
-8.499994999999999990e-04 9.541687440162149869e-10
-7.000007000000000148e-04 1.023888307472020642e-09
-5.500019000000000305e-04 1.094473067730916682e-09
-3.999992999999999973e-04 1.174976782536418796e-09
-2.500005000000000131e-04 1.273705696469562554e-09
-1.000017000000000017e-04 1.395280557758837858e-09
5.000085000000000087e-05 1.539100957792527424e-09
1.999996999999999886e-04 1.699905993746142485e-09
3.499985000000000270e-04 1.870263721670539780e-09
4.999972999999999571e-04 2.044003188927945303e-09
6.499998000000000104e-04 2.219183725671314278e-09
7.999985999999999946e-04 2.399330067959226653e-09
9.499975000000000129e-04 2.592316805660743739e-09
1.100000000000000066e-03 2.807376331404043412e-09
1.249998999999999902e-03 3.051511043850041460e-09
1.399997999999999954e-03 3.326951159010604897e-09
1.549999999999999946e-03 3.630849620961384971e-09
1.699998999999999998e-03 3.957375760421655286e-09
1.849998000000000050e-03 4.301257128247470973e-09
2.000000000000000042e-03 4.661089292312681209e-09
2.149999000000000094e-03 5.040803330302878749e-09
2.299998000000000146e-03 5.448594464496636647e-09
2.449999999999999921e-03 5.893812549118138122e-09
2.599998999999999973e-03 6.383359174577662998e-09
2.749998000000000026e-03 6.919487649525990491e-09
2.900001000000000141e-03 7.500039700403249299e-09
3.049998999999999853e-03 8.120990990789778152e-09
3.199997999999999905e-03 8.779938553971078363e-09
3.350001000000000020e-03 9.478830165221552306e-09
3.500000000000000073e-03 1.022448081755555904e-08
3.649997999999999784e-03 1.102656899121257084e-08
3.800000999999999900e-03 1.189421361402764887e-08
3.950000000000000386e-03 1.283306705346376475e-08
4.099999000000000005e-03 1.384447756436202326e-08
4.249997000000000150e-03 1.492707468742082710e-08
4.400000000000000265e-03 1.607996757968521706e-08
4.549998999999999884e-03 1.730574439307019929e-08
4.699998000000000370e-03 1.861136489367254399e-08
4.850000000000000144e-03 2.000704846238932078e-08
4.999998999999999763e-03 2.150345679297060997e-08
5.149998000000000249e-03 2.310868829624723730e-08
5.300000000000000024e-03 2.482685168558873556e-08
5.449998999999999642e-03 2.665927922862465493e-08
5.599998000000000128e-03 2.860790004888258409e-08
5.749999999999999903e-03 3.067809828394274518e-08
5.899999000000000389e-03 3.287923888706245634e-08
6.049998000000000008e-03 3.522276159628745518e-08
6.200001000000000123e-03 3.772013101865923090e-08
6.349999000000000268e-03 4.038099277181572688e-08
6.499997999999999887e-03 4.321232793813578610e-08
6.650001000000000002e-03 4.621919913461169926e-08
6.799999999999999621e-03 4.940692832633430953e-08
6.949997999999999766e-03 5.278411663311999291e-08
7.100000999999999882e-03 5.636320921098558756e-08
7.250000000000000368e-03 6.015810072312888224e-08
7.399998999999999987e-03 6.418149212095158873e-08
7.550000999999999761e-03 6.844406641448586015e-08
7.700000000000000247e-03 7.295516724070694181e-08
7.849998999999999866e-03 7.772435850483816466e-08
7.999997999999999485e-03 8.276255414330080384e-08
8.149999999999999259e-03 8.808203233456879389e-08
8.299999000000000612e-03 9.369661313485266874e-08
8.449998000000000231e-03 9.962128189044960891e-08
8.600000000000000006e-03 1.058707610468445637e-07
8.749998999999999624e-03 1.124589701362310734e-07
8.899997999999999243e-03 1.193989902503744815e-07
9.050000000000000752e-03 1.267035827368090395e-07
9.199999000000000371e-03 1.343861555369585403e-07
9.349997999999999990e-03 1.424615021505815093e-07
9.500000999999999238e-03 1.509456808435061248e-07
9.649998999999999383e-03 1.598551619963473058e-07
9.799998000000000736e-03 1.692063165137369651e-07
9.950000999999999984e-03 1.790153589809051482e-07
1.009999999999999960e-02 1.892982339768423117e-07
1.025000000000000043e-02 2.000692660431013792e-07
1.039999999999999952e-02 2.113418702265335014e-07
1.055000000000000035e-02 2.231313942502310965e-07
1.069999999999999944e-02 2.354565111772899400e-07
1.085000000000000027e-02 2.483365051375585608e-07
1.099999999999999936e-02 2.617876191379764350e-07
1.115000000000000019e-02 2.758222592547099339e-07
1.129999999999999928e-02 2.904537836911913473e-07
1.145000000000000011e-02 3.056981938698299928e-07
1.159999999999999920e-02 3.215698143321787938e-07
1.175000000000000003e-02 3.380815485343191540e-07
1.190000000000000085e-02 3.552485736690869089e-07
1.204999999999999995e-02 3.730878859187214402e-07
1.220000000000000077e-02 3.916140940418699756e-07
1.234999999999999987e-02 4.108384246137575246e-07
1.250000000000000069e-02 4.307722747398656793e-07
1.264999999999999979e-02 4.514261320309742587e-07
1.280000000000000061e-02 4.728069882276031421e-07
1.294999999999999971e-02 4.949198455506120808e-07
1.310000000000000053e-02 5.177760158403543755e-07
1.324999999999999963e-02 5.413884309746208601e-07
1.340000000000000045e-02 5.657608426190563478e-07
1.354999999999999954e-02 5.908853495384391863e-07
1.370000000000000037e-02 6.167572337290039286e-07
1.384999999999999946e-02 6.433855901377683040e-07
1.400000000000000029e-02 6.707824695695308037e-07
1.414999999999999938e-02 6.989399707890697755e-07
1.430000000000000021e-02 7.278301268343057018e-07
1.444999999999999930e-02 7.574419100819795858e-07
1.460000000000000013e-02 7.877928851485194173e-07
1.474999999999999922e-02 8.188932270059012808e-07
1.490000000000000005e-02 8.507038273819489405e-07
1.504999999999999914e-02 8.831653417473717127e-07
1.519999999999999997e-02 9.162595233647152781e-07
1.535000000000000080e-02 9.500131454842630774e-07
1.549999999999999989e-02 9.844270607572980225e-07
1.565000000000000072e-02 1.019428282234002836e-06
1.580000000000000154e-02 1.054927110999415163e-06
1.594999999999999890e-02 1.090903424483258277e-06
1.609999999999999973e-02 1.127401446865405887e-06
1.625000000000000056e-02 1.164405830422765575e-06
1.640000000000000138e-02 1.201778331960667856e-06
1.654999999999999874e-02 1.239375592376745772e-06
1.669999999999999957e-02 1.277185447179363109e-06
1.685000000000000039e-02 1.315280883318337146e-06
1.700000000000000122e-02 1.353628022116026841e-06
1.714999999999999858e-02 1.392023477819748223e-06
1.729999999999999941e-02 1.430286715731199365e-06
1.745000000000000023e-02 1.468451500841183588e-06
1.760000000000000106e-02 1.506647549831541255e-06
1.774999999999999842e-02 1.544788460705603939e-06
1.789999999999999925e-02 1.582519644216517918e-06
1.805000000000000007e-02 1.619563249732891563e-06
1.820000000000000090e-02 1.656005110817204695e-06
1.835000000000000173e-02 1.692065779934637249e-06
1.849999999999999908e-02 1.727635776660463307e-06
1.864999999999999991e-02 1.762242163749760948e-06
1.880000000000000074e-02 1.795557864170405082e-06
1.895000000000000157e-02 1.827755795602570288e-06
1.909999999999999892e-02 1.859122448877315037e-06
1.924999999999999975e-02 1.889412146738322917e-06
1.940000000000000058e-02 1.917921508720610291e-06
1.955000000000000140e-02 1.944281848409445956e-06
1.969999999999999876e-02 1.968874812519061379e-06
1.984999999999999959e-02 1.992160832742229104e-06
2.000000000000000042e-02 2.013748371609835885e-06
2.015000000000000124e-02 2.032641077676089481e-06
2.029999999999999860e-02 2.048443775493069552e-06
2.044999999999999943e-02 2.061801751551683992e-06
2.060000000000000026e-02 2.073319592454936355e-06
2.075000000000000108e-02 2.082378387058270164e-06
2.089999999999999844e-02 2.087660050165141001e-06
2.104999999999999927e-02 2.088797145916032605e-06
2.120000000000000009e-02 2.086775339193991385e-06
2.135000000000000092e-02 2.082335640807286836e-06
2.149999999999999828e-02 2.074554004138917662e-06
2.164999999999999911e-02 2.061782197415595874e-06
2.179999999999999993e-02 2.043803306150948629e-06
2.195000000000000076e-02 2.022055923589505255e-06
2.210000000000000159e-02 1.997375875362195075e-06
2.224999999999999895e-02 1.968399374163709581e-06
2.239999999999999977e-02 1.933094381456612609e-06
2.255000000000000060e-02 1.891442366286355536e-06
2.270000000000000143e-02 1.845371571107534692e-06
2.284999999999999878e-02 1.795808088900230359e-06
2.299999999999999961e-02 1.740976244946068618e-06
2.315000000000000044e-02 1.678577405073156115e-06
2.330000000000000127e-02 1.608885554560401943e-06
2.344999999999999862e-02 1.534238776912388857e-06
2.359999999999999945e-02 1.455460278521059081e-06
2.375000000000000028e-02 1.370297582070634235e-06
2.390000000000000110e-02 1.276320745091652498e-06
2.404999999999999846e-02 1.174259409708611201e-06
2.419999999999999929e-02 1.066872755473013967e-06
2.435000000000000012e-02 9.547939043841324747e-07
2.450000000000000094e-02 8.353234761671046726e-07
2.464999999999999830e-02 7.060503435241116676e-07
2.479999999999999913e-02 5.681658876710571349e-07
2.494999999999999996e-02 4.246383298323053168e-07
2.510000000000000078e-02 2.758072241704212502e-07
2.525000000000000161e-02 1.187604894425930979e-07
2.539999999999999897e-02 -4.858032909282883338e-08
2.554999999999999979e-02 -2.245951549184610485e-07
2.570000000000000062e-02 -4.064466736508620670e-07
2.585000000000000145e-02 -5.942347911513934378e-07
2.599999999999999881e-02 -7.907987082944600843e-07
2.614999999999999963e-02 -9.975833563657943159e-07
2.630000000000000046e-02 -1.212650545312499162e-06
2.645000000000000129e-02 -1.433593183719494846e-06
2.659999999999999865e-02 -1.660947873460827395e-06
2.674999999999999947e-02 -1.897214474411157425e-06
2.690000000000000030e-02 -2.143180836355895735e-06
2.705000000000000113e-02 -2.396952595518087037e-06
2.719999999999999848e-02 -2.656792503330507316e-06
2.734999999999999931e-02 -2.923353576989029534e-06
2.750000000000000014e-02 -3.198266540493932553e-06
2.765000000000000097e-02 -3.481588464637752622e-06
2.779999999999999832e-02 -3.771893943849136122e-06
2.794999999999999915e-02 -4.068402631673961878e-06
2.809999999999999998e-02 -4.371711838757619262e-06
2.825000000000000080e-02 -4.682361122831935063e-06
2.840000000000000163e-02 -4.999801603844389319e-06
2.854999999999999899e-02 -5.323265668266685680e-06
2.869999999999999982e-02 -5.652754225593525916e-06
2.885000000000000064e-02 -5.988410521240439266e-06
2.900000000000000147e-02 -6.329607913357904181e-06
2.914999999999999883e-02 -6.675530585198430344e-06
2.929999999999999966e-02 -7.026308139757020399e-06
2.945000000000000048e-02 -7.382535841315984726e-06
2.960000000000000131e-02 -7.743697096884716302e-06
2.974999999999999867e-02 -8.108206202450674027e-06
2.989999999999999949e-02 -8.475410140817984939e-06
3.005000000000000032e-02 -8.846384844218846411e-06
3.020000000000000115e-02 -9.221916116075590253e-06
3.034999999999999851e-02 -9.600595149095170200e-06
3.049999999999999933e-02 -9.980124559660907835e-06
3.065000000000000016e-02 -1.036015601130202413e-05
3.080000000000000099e-02 -1.074232295650290325e-05
3.094999999999999835e-02 -1.112723293772432953e-05
3.109999999999999917e-02 -1.151289870904292911e-05
3.125000000000000000e-02 -1.189704471471486613e-05
3.139999999999999736e-02 -1.227982829732354730e-05
3.155000000000000165e-02 -1.266287654289044440e-05
3.169999999999999901e-02 -1.304614215769106522e-05
3.185000000000000331e-02 -1.342734321951866150e-05
3.200000000000000067e-02 -1.380470894218888134e-05
3.214999999999999802e-02 -1.417877501808106899e-05
3.230000000000000232e-02 -1.455065103073138744e-05
3.244999999999999968e-02 -1.491966759203933179e-05
3.259999999999999704e-02 -1.528385837445966899e-05
3.275000000000000133e-02 -1.564217745908536017e-05
3.289999999999999869e-02 -1.599500137672293931e-05
3.305000000000000299e-02 -1.634246473258826882e-05
3.320000000000000034e-02 -1.668358345341403037e-05
3.334999999999999770e-02 -1.701732253422960639e-05
3.350000000000000200e-02 -1.734344368742313236e-05
3.364999999999999936e-02 -1.766167224559467286e-05
3.379999999999999671e-02 -1.797087134036701173e-05
3.395000000000000101e-02 -1.826999687182251364e-05
3.409999999999999837e-02 -1.855915070336777717e-05
3.425000000000000266e-02 -1.883867662400007248e-05
3.440000000000000002e-02 -1.910759237944148481e-05
3.454999999999999738e-02 -1.936403350555337965e-05
3.470000000000000168e-02 -1.960735608008690178e-05
3.484999999999999903e-02 -1.983842957997694612e-05
3.500000000000000333e-02 -2.005736860155593604e-05
3.515000000000000069e-02 -2.026223410211969167e-05
3.529999999999999805e-02 -2.045094515779055655e-05
3.545000000000000234e-02 -2.062360363197512925e-05
3.559999999999999970e-02 -2.078160287055652589e-05
3.574999999999999706e-02 -2.092475733661558479e-05
3.590000000000000135e-02 -2.105074781866278499e-05
3.604999999999999871e-02 -2.115765892085619271e-05
3.620000000000000301e-02 -2.124577258655335754e-05
3.635000000000000037e-02 -2.131605833710636944e-05
3.649999999999999772e-02 -2.136782313755247742e-05
3.665000000000000202e-02 -2.139910429832525551e-05
3.679999999999999938e-02 -2.140879951184615493e-05
3.694999999999999674e-02 -2.139721982530318201e-05
3.710000000000000103e-02 -2.136453258572146297e-05
3.724999999999999839e-02 -2.130978828063234687e-05
3.740000000000000269e-02 -2.123187550751026720e-05
3.755000000000000004e-02 -2.113035225193016231e-05
3.769999999999999740e-02 -2.100480378430802375e-05
3.785000000000000170e-02 -2.085421147057786584e-05
3.799999999999999906e-02 -2.067775858449749649e-05
3.815000000000000335e-02 -2.047559246420860291e-05
3.830000000000000071e-02 -2.024788409471511841e-05
3.844999999999999807e-02 -1.999353480641730130e-05
3.860000000000000236e-02 -1.971090568986255676e-05
3.874999999999999972e-02 -1.939962749020196497e-05
3.889999999999999708e-02 -1.906047145894262940e-05
3.905000000000000138e-02 -1.869317929958924651e-05
3.919999999999999873e-02 -1.829572647693566978e-05
3.935000000000000303e-02 -1.786647408152930439e-05
3.950000000000000039e-02 -1.740605875966139138e-05
3.964999999999999775e-02 -1.691598845354747027e-05
3.980000000000000204e-02 -1.639589390833862126e-05
3.994999999999999940e-02 -1.584347592142876238e-05
4.009999999999999676e-02 -1.525709012639708817e-05
4.025000000000000105e-02 -1.463705848436802626e-05
4.039999999999999841e-02 -1.398412496200762689e-05
4.055000000000000271e-02 -1.329786755377426744e-05
4.070000000000000007e-02 -1.257742587768007070e-05
4.084999999999999742e-02 -1.182282721856608987e-05
4.100000000000000172e-02 -1.103453087125672027e-05
4.114999999999999908e-02 -1.021210937324212864e-05
4.130000000000000338e-02 -9.354455869470257312e-06
4.145000000000000073e-02 -8.461108336632605642e-06
4.159999999999999809e-02 -7.532390554843004793e-06
4.175000000000000239e-02 -6.568295702891191468e-06
4.189999999999999974e-02 -5.568366304942173883e-06
4.204999999999999710e-02 -4.532938874035608023e-06
4.220000000000000140e-02 -3.463327857389231212e-06
4.234999999999999876e-02 -2.360061444051098078e-06
4.250000000000000305e-02 -1.221852812705037650e-06
4.265000000000000041e-02 -4.732297398390983290e-08
4.279999999999999777e-02 1.162835246759641450e-06
4.295000000000000207e-02 2.406560042800265364e-06
4.309999999999999942e-02 3.682886244860128500e-06
4.324999999999999678e-02 4.992351932742167264e-06
4.340000000000000108e-02 6.334897079796064645e-06
4.354999999999999843e-02 7.708830707997549325e-06
4.370000000000000273e-02 9.112508450925815850e-06
4.385000000000000009e-02 1.054600670613581315e-05
4.399999999999999745e-02 1.201011127704987302e-05
4.415000000000000174e-02 1.350423372059594840e-05
4.429999999999999910e-02 1.502630311733810231e-05
4.445000000000000340e-02 1.657424763834569603e-05
4.460000000000000075e-02 1.814655661291908473e-05
4.474999999999999811e-02 1.974159386008977890e-05
4.490000000000000241e-02 2.135767499567009509e-05
4.504999999999999977e-02 2.299406878591980785e-05
4.519999999999999712e-02 2.465073521307203919e-05
4.535000000000000142e-02 2.632649375300388783e-05
4.549999999999999878e-02 2.801826485665515065e-05
4.565000000000000308e-02 2.972277980006765574e-05
4.580000000000000043e-02 3.143819412798620760e-05
4.594999999999999779e-02 3.316311631351709366e-05
4.610000000000000209e-02 3.489488153718411922e-05
4.624999999999999944e-02 3.663015377242118120e-05
4.639999999999999680e-02 3.836706309812143445e-05
4.655000000000000110e-02 4.010517659480683506e-05
4.669999999999999846e-02 4.184295175946317613e-05
4.685000000000000275e-02 4.357632133178412914e-05
4.700000000000000011e-02 4.530047226580791175e-05
4.714999999999999747e-02 4.701206853496842086e-05
4.730000000000000177e-02 4.870901102549396455e-05
4.744999999999999912e-02 5.038884773966856301e-05
4.760000000000000342e-02 5.204863191465847194e-05
4.775000000000000078e-02 5.368582424125634134e-05
4.789999999999999813e-02 5.529802365344949067e-05
4.805000000000000243e-02 5.688164674211293459e-05
4.819999999999999979e-02 5.843192775500938296e-05