-1.200000e-01 0.000000e+00
-1.190000e-01 0.000000e+00
-1.180000e-01 0.000000e+00
-1.170000e-01 0.000000e+00
-1.160000e-01 0.000000e+00
-1.150000e-01 0.000000e+00
-1.140000e-01 0.000000e+00
-1.130000e-01 0.000000e+00
-1.120000e-01 0.000000e+00
-1.110000e-01 0.000000e+00
-1.100000e-01 0.000000e+00
-1.090000e-01 0.000000e+00
-1.080000e-01 0.000000e+00
-1.070000e-01 0.000000e+00
-1.060000e-01 0.000000e+00
-1.050000e-01 0.000000e+00
-1.040000e-01 0.000000e+00
-1.030000e-01 0.000000e+00
-1.020000e-01 0.000000e+00
-1.010000e-01 -1.185499e-42
-1.000000e-01 -2.595485e-41
-9.900001e-02 -2.446611e-40
-9.800000e-02 -1.119060e-39
-9.700000e-02 -2.271561e-40
-9.600000e-02 3.229496e-38
-9.500001e-02 2.377796e-37
-9.400000e-02 9.383116e-37
-9.300000e-02 1.902070e-36
-9.200001e-02 -1.671528e-36
-9.100001e-02 -2.869220e-35
-9.000000e-02 -1.146125e-34
-8.900000e-02 -2.445824e-34
-8.800000e-02 -9.476515e-35
-8.700000e-02 1.412809e-33
-8.600000e-02 5.971238e-33
-8.500001e-02 1.280450e-32
-8.400001e-02 9.692853e-33
-8.300000e-02 -3.841423e-32
-8.200000e-02 -1.787331e-31
-8.100000e-02 -3.850363e-31
-8.000000e-02 -3.598088e-31
-7.900000e-02 6.507399e-31
-7.800000e-02 3.540671e-30
-7.700001e-02 7.738359e-30
-7.600001e-02 8.132263e-30
-7.500000e-02 -7.011426e-30
-7.400000e-02 -5.030348e-29
-7.300000e-02 -1.131888e-28
-7.200000e-02 -1.298047e-28
-7.100000e-02 4.024251e-29
-7.000001e-02 5.379853e-28
-6.900001e-02 1.271036e-27
-6.800000e-02 1.575067e-27
-6.700000e-02 1.034203e-28
-6.600000e-02 -4.450028e-27
-6.500000e-02 -1.134885e-26
-6.400000e-02 -1.518582e-26
-6.300000e-02 -5.286427e-27
-6.200000e-02 2.867019e-26
-6.100000e-02 8.243553e-26
-6.000000e-02 1.197403e-25
-5.900000e-02 6.910485e-26
-5.800000e-02 -1.404248e-25
-5.700000e-02 -4.935546e-25
-5.600000e-02 -7.872054e-25
-5.500000e-02 -6.106397e-25
-5.400001e-02 4.655636e-25
-5.300000e-02 2.443045e-24
-5.200000e-02 4.368637e-24
-5.100000e-02 4.195797e-24
-5.000000e-02 -3.784063e-25
-4.900000e-02 -9.880734e-24
-4.800000e-02 -2.059238e-23
-4.700000e-02 -2.362184e-23
-4.600000e-02 -7.989175e-24
-4.500000e-02 3.122651e-23
-4.400000e-02 8.237524e-23
-4.300000e-02 1.117621e-22
-4.200000e-02 7.278584e-23
-4.100000e-02 -6.523547e-23
-4.000000e-02 -2.763260e-22
-3.900000e-02 -4.498826e-22
-3.800000e-02 -4.099288e-22
-3.700000e-02 -4.741191e-24
-3.600000e-02 7.495467e-22
-3.500000e-02 1.544816e-21
-3.400000e-02 1.791425e-21
-3.300000e-02 8.594756e-22
-3.200000e-02 -1.462367e-21
-3.100000e-02 -4.484350e-21
-3.000000e-02 -6.465116e-21
-2.900000e-02 -5.152502e-21
-2.800000e-02 8.964653e-22
-2.700000e-02 1.066041e-20
-2.600000e-02 1.967362e-20
-2.500000e-02 2.092133e-20
-2.400000e-02 8.220524e-21
-2.300000e-02 -1.875035e-20
-2.200000e-02 -5.038338e-20
-2.100000e-02 -6.761906e-20
-2.000000e-02 -4.948457e-20
-1.900000e-02 1.337895e-20
-1.800000e-02 1.052405e-19
-1.700000e-02 1.814017e-19
-1.600000e-02 1.821029e-19
-1.500000e-02 6.443961e-20
-1.400000e-02 -1.598688e-19
-1.300000e-02 -4.033616e-19
-1.200000e-02 -5.208918e-19
-1.100000e-02 -3.740928e-19
-9.999998e-03 7.767229e-20
-8.999996e-03 7.058924e-19
-8.000001e-03 1.214385e-18
-6.999999e-03 1.243579e-18
-5.999997e-03 5.565941e-19
-5.000003e-03 -7.704355e-19
-4.000001e-03 -2.261796e-18
-2.999999e-03 -3.146338e-18
-1.999997e-03 -2.664306e-18
-1.000002e-03 -4.856702e-19
0.000000e+00 2.937684e-18
1.000002e-03 6.289674e-18
2.000004e-03 7.721183e-18
2.999999e-03 5.594418e-18
4.000001e-03 -5.573054e-19
4.999995e-03 -9.244657e-18
5.999997e-03 -1.690432e-17
6.999999e-03 -1.884700e-17
8.000001e-03 -1.130413e-17
9.000003e-03 6.002669e-18
1.000001e-02 2.798281e-17
1.100001e-02 4.446932e-17
1.199999e-02 4.364616e-17
1.300000e-02 1.813827e-17
1.400000e-02 -2.862462e-17
1.500000e-02 -7.952712e-17
1.600000e-02 -1.077399e-16
1.700000e-02 -8.816774e-17
1.800001e-02 -1.262303e-17
1.900001e-02 9.886602e-17
2.000000e-02 1.988100e-16
2.100000e-02 2.290129e-16
2.200000e-02 1.491085e-16
2.300000e-02 -3.559895e-17
2.400000e-02 -2.628097e-16
2.500001e-02 -4.292860e-16
2.600001e-02 -4.327823e-16
2.700000e-02 -2.240452e-16
2.800000e-02 1.554406e-16
2.900000e-02 5.714701e-16
3.000000e-02 8.383790e-16
3.100000e-02 7.919444e-16
3.200001e-02 3.671582e-16
3.300001e-02 -3.504928e-16
3.400001e-02 -1.124520e-15
3.500000e-02 -1.626988e-15
3.600000e-02 -1.549627e-15
3.700000e-02 -7.401283e-16
3.800000e-02 6.794537e-16
3.900000e-02 2.267317e-15
4.000001e-02 3.341927e-15
4.100001e-02 3.209154e-15
4.200000e-02 1.494464e-15
4.300000e-02 -1.542153e-15
4.400000e-02 -4.885158e-15
4.500000e-02 -6.989616e-15
4.600000e-02 -6.379194e-15
4.700001e-02 -2.437282e-15
4.800001e-02 3.970705e-15
4.900001e-02 1.044699e-14
5.000000e-02 1.380560e-14
5.100000e-02 1.146318e-14
5.200000e-02 2.926789e-15
5.300000e-02 -9.379613e-15
5.400001e-02 -2.055340e-14
5.500001e-02 -2.499903e-14
5.600001e-02 -1.896636e-14
5.700000e-02 -2.745415e-15
5.800000e-02 1.861021e-14
5.900000e-02 3.663386e-14
6.000000e-02 4.258723e-14
6.100000e-02 3.125645e-14
6.200001e-02 3.845370e-15
6.300001e-02 -3.137305e-14
6.400001e-02 -6.120470e-14
6.500000e-02 -7.200524e-14
6.600000e-02 -5.508936e-14
6.700000e-02 -1.120276e-14
6.800000e-02 4.775732e-14
6.900001e-02 1.009636e-13
7.000001e-02 1.249045e-13
7.100001e-02 1.023005e-13
7.200000e-02 3.090231e-14
7.300000e-02 -7.148940e-14
7.400000e-02 -1.691153e-13
7.500000e-02 -2.187960e-13
7.600001e-02 -1.868493e-13
7.700001e-02 -6.661954e-14
7.800001e-02 1.113257e-13
7.900001e-02 2.832230e-13
8.000000e-02 3.724353e-13
8.100000e-02 3.208486e-13
8.200000e-02 1.194101e-13
8.300000e-02 -1.766886e-13
8.400001e-02 -4.587321e-13
8.500001e-02 -6.017156e-13
8.600001e-02 -5.164055e-13
8.700001e-02 -1.954196e-13
8.800000e-02 2.684704e-13
8.900000e-02 7.047027e-13
9.000000e-02 9.247063e-13
9.100001e-02 7.989319e-13
9.200001e-02 3.207175e-13
9.300001e-02 -3.717519e-13
9.400001e-02 -1.030122e-12
9.500000e-02 -1.380424e-12
9.600000e-02 -1.229874e-12
9.700000e-02 -5.563633e-13
9.800000e-02 4.566446e-13
9.900001e-02 1.460671e-12
1.000000e-01 2.053162e-12
1.010000e-01 1.926750e-12
1.020000e-01 1.005900e-12
1.030000e-01 -4.833350e-13
1.040000e-01 -2.048847e-12
1.050000e-01 -3.078783e-12
1.060000e-01 -3.062544e-12
1.070000e-01 -1.813786e-12
1.080000e-01 3.933218e-13
1.090000e-01 2.847288e-12
1.100000e-01 4.604910e-12
1.110000e-01 4.831462e-12
1.120000e-01 3.161213e-12
1.130000e-01 -6.788352e-14
1.140000e-01 -3.827204e-12
1.150000e-01 -6.698110e-12
1.160000e-01 -7.385054e-12
1.170000e-01 -5.262717e-12
1.180000e-01 -7.348674e-13
1.190000e-01 4.772925e-12
1.200000e-01 9.237285e-12
1.210000e-01 1.076181e-11
1.220000e-01 8.347333e-12
1.230000e-01 2.402156e-12
1.240000e-01 -5.242647e-12
1.250000e-01 -1.187491e-11
1.260000e-01 -1.484692e-11
1.270000e-01 -1.259848e-11
1.280000e-01 -5.370716e-12
1.290000e-01 4.691713e-12
1.300000e-01 1.414674e-11
1.310000e-01 1.940827e-11
1.320000e-01 1.806870e-11
1.330000e-01 9.916488e-12
1.340000e-01 -2.755597e-12
1.350000e-01 -1.573594e-11
1.360000e-01 -2.425010e-11
1.370000e-01 -2.467103e-11
1.380000e-01 -1.599242e-11
1.390000e-01 -4.929323e-13
1.400000e-01 1.675072e-11
1.410000e-01 2.945667e-11
1.420000e-01 3.237160e-11
1.430000e-01 2.337645e-11
1.440000e-01 4.644546e-12
1.450000e-01 -1.770869e-11
1.460000e-01 -3.553245e-11
1.470000e-01 -4.154953e-11
1.480000e-01 -3.225243e-11
1.490000e-01 -9.654797e-12
1.500000e-01 1.891210e-11
1.510000e-01 4.308626e-11
1.520000e-01 5.316485e-11
1.530000e-01 4.389693e-11
1.540000e-01 1.691537e-11
1.550000e-01 -1.925363e-11
1.560000e-01 -5.181222e-11
1.570000e-01 -6.815430e-11
1.580000e-01 -6.061672e-11
1.590000e-01 -2.974977e-11
1.600000e-01 1.522021e-11
1.610000e-01 5.909526e-11
1.620000e-01 8.579112e-11
1.630000e-01 8.410387e-11
1.640000e-01 5.211678e-11
1.650000e-01 -1.416731e-12
1.660000e-01 -5.939318e-11
1.670000e-01 -1.017915e-10
1.680000e-01 -1.125034e-10
1.690000e-01 -8.525806e-11
1.700000e-01 -2.651079e-11
1.710000e-01 4.591105e-11
1.720000e-01 1.082052e-10
1.730000e-01 1.384228e-10
1.740000e-01 1.241675e-10
1.750000e-01 6.748024e-11
1.760000e-01 -1.498335e-11
1.770000e-01 -9.684191e-11
1.780000e-01 -1.505413e-10
1.790000e-01 -1.567920e-10
1.800000e-01 -1.116128e-10
1.810000e-01 -2.834144e-11
1.820000e-01 6.627811e-11
1.830000e-01 1.408884e-10
1.840000e-01 1.702130e-10
1.850000e-01 1.439420e-10
1.860000e-01 7.052325e-11
1.870000e-01 -2.550040e-11
1.880000e-01 -1.119250e-10
1.890000e-01 -1.598521e-10
1.900000e-01 -1.536005e-10
1.910000e-01 -9.603228e-11
1.920000e-01 -7.516412e-12
1.930000e-01 8.092503e-11
1.940000e-01 1.386530e-10
1.950000e-01 1.460696e-10
1.960000e-01 1.013704e-10
1.970000e-01 2.112074e-11
1.980000e-01 -6.577998e-11
1.990000e-01 -1.279773e-10
2.000000e-01 -1.421600e-10
2.010000e-01 -1.015727e-10
2.020000e-01 -1.967292e-11
2.030000e-01 7.418020e-11
2.040000e-01 1.446767e-10
2.050000e-01 1.640718e-10
2.060000e-01 1.227257e-10
2.070000e-01 3.132126e-11
2.080000e-01 -8.063248e-11
2.090000e-01 -1.743891e-10
2.100000e-01 -2.151256e-10
2.110000e-01 -1.865775e-10
2.120000e-01 -8.841817e-11
2.130000e-01 4.709092e-11
2.140000e-01 1.754208e-10
2.150000e-01 2.525051e-10
2.160000e-01 2.526340e-10
2.170000e-01 1.680133e-10
2.180000e-01 2.574202e-11
2.190000e-01 -1.283622e-10
2.200000e-01 -2.507858e-10
2.210000e-01 -3.044588e-10
2.220000e-01 -2.839556e-10
2.230000e-01 -1.983498e-10
2.240000e-01 -5.577656e-11
2.250000e-01 1.064838e-10
2.260000e-01 2.163129e-10
2.270000e-01 2.476498e-10
2.280000e-01 2.131128e-10
2.290000e-01 1.187219e-10
2.300000e-01 -4.579373e-11
2.310000e-01 -2.319256e-10
2.320000e-01 -3.526558e-10
2.330000e-01 -3.387567e-10
2.340000e-01 -2.832872e-10
2.350000e-01 -2.171417e-10
2.360000e-01 -1.348884e-10
2.370000e-01 -4.805642e-11
2.380000e-01 5.960507e-11
2.390000e-01 3.576697e-11
2.400000e-01 -1.005218e-10
2.410000e-01 -2.018562e-10
2.420000e-01 -2.142643e-10
2.430000e-01 -2.528549e-10
2.440000e-01 -2.512187e-10
2.450000e-01 -2.559760e-10
2.460000e-01 -3.058048e-10
2.470000e-01 -3.320555e-10
2.480000e-01 -2.589976e-10
2.490000e-01 -1.240731e-10
2.500000e-01 -2.789749e-10
2.510000e-01 -4.049931e-10
2.520000e-01 -4.609612e-10
2.530000e-01 -4.811911e-10
2.540000e-01 -4.167483e-10
2.550000e-01 -5.364678e-10
2.560000e-01 -3.134854e-10
2.570000e-01 -2.082013e-10
2.580000e-01 1.471730e-10
2.590000e-01 1.856232e-10
2.600000e-01 -1.670681e-10
2.610000e-01 -4.763319e-10
2.620000e-01 -4.137530e-10
2.630000e-01 -2.392515e-10
2.640000e-01 -1.733026e-10
2.650000e-01 -4.245972e-10
2.660000e-01 -6.225491e-10
2.670000e-01 -2.948780e-10
2.680000e-01 1.004676e-10
2.690000e-01 3.147709e-10
2.700000e-01 4.404894e-10
2.710000e-01 6.173655e-10
2.720000e-01 8.558342e-10
2.730000e-01 6.089928e-10
2.740000e-01 -2.037656e-10
2.750000e-01 -6.622851e-10
2.760000e-01 -6.679868e-11
2.770000e-01 8.796804e-10
2.780000e-01 1.063162e-09
2.790000e-01 7.710057e-10
2.800000e-01 3.158704e-10
2.810000e-01 5.778074e-10
2.820000e-01 9.752527e-10
2.830000e-01 9.665876e-10
2.840000e-01 7.649803e-10
2.850000e-01 8.065625e-10
2.860000e-01 9.663615e-10
2.870000e-01 9.575691e-10
2.880000e-01 8.811787e-10
2.890000e-01 1.214926e-09
2.900000e-01 1.583675e-09
2.910000e-01 1.258532e-09
2.920000e-01 3.416309e-10
2.930000e-01 -4.070908e-10
2.940000e-01 -1.210921e-10
2.950000e-01 1.014019e-09
2.960000e-01 1.928273e-09
2.970000e-01 1.578742e-09
2.980000e-01 4.138152e-10
2.990000e-01 -2.398480e-10
3.000000e-01 7.607637e-11
3.010000e-01 4.979550e-10
3.020000e-01 4.746797e-10
3.030000e-01 3.852101e-10
3.040000e-01 3.926296e-10
3.050000e-01 -1.141480e-10
3.060000e-01 -8.313805e-10
3.070000e-01 -1.141057e-09
3.080000e-01 -6.239517e-10
3.090000e-01 6.092976e-10
3.100000e-01 1.054793e-09
3.110000e-01 1.163564e-10
3.120000e-01 -9.261536e-10
3.130000e-01 -1.360948e-09
3.140000e-01 -6.967963e-10
3.150000e-01 -2.076966e-11
3.160000e-01 1.715102e-10
3.170000e-01 -1.443832e-10
3.180000e-01 -5.019026e-10
3.190000e-01 -1.345743e-09
3.200000e-01 -1.846285e-09
3.210000e-01 -1.457226e-09
3.220000e-01 -3.710112e-10
3.230000e-01 -1.992663e-10
3.240000e-01 -1.228435e-09
3.250000e-01 -1.512141e-09
3.260000e-01 -8.465307e-10
3.270000e-01 6.455860e-10
3.280000e-01 1.558038e-09
3.290000e-01 6.426071e-10
3.300000e-01 -8.205023e-10
3.310000e-01 -1.653272e-09
3.320000e-01 -1.657017e-09
3.330000e-01 -1.524240e-09
3.340000e-01 -1.163168e-09
3.350000e-01 -3.700665e-10
3.360000e-01 5.254370e-10
3.370000e-01 7.001734e-10
3.380000e-01 1.104225e-10
3.390000e-01 -1.463099e-10
3.400000e-01 5.618550e-10
3.410000e-01 1.328846e-09
3.420000e-01 7.679630e-10
3.430000e-01 -9.848637e-10
3.440000e-01 -2.208539e-09
3.450000e-01 -1.676778e-09
3.460000e-01 -4.150044e-11
3.470000e-01 1.008076e-09
3.480000e-01 9.169234e-10
3.490000e-01 5.173977e-10
3.500000e-01 4.445846e-10
3.510000e-01 3.663529e-10
3.520000e-01 -2.025499e-10
3.530000e-01 -6.766147e-10
3.540000e-01 -4.070487e-10
3.550000e-01 2.946918e-10
3.560000e-01 2.957548e-10
3.570000e-01 -4.833340e-10
3.580000e-01 -5.715958e-10
3.590000e-01 8.921817e-10
3.600000e-01 2.483387e-09
3.610000e-01 2.087895e-09
3.620000e-01 -1.855393e-10
3.630000e-01 -2.128615e-09
3.640000e-01 -2.318179e-09
3.650000e-01 -1.329861e-09
3.660000e-01 -5.199103e-10
3.670000e-01 2.858602e-12
3.680000e-01 1.041471e-09
3.690000e-01 2.429558e-09
3.700000e-01 2.868842e-09
3.710000e-01 1.530334e-09
3.720000e-01 -4.531748e-10
3.730000e-01 -1.611550e-09
3.740000e-01 -1.848587e-09
3.750000e-01 -2.033231e-09
3.760000e-01 -2.166843e-09
3.770000e-01 -9.946848e-10
3.780000e-01 1.752460e-09
3.790000e-01 4.092878e-09
3.800000e-01 3.797802e-09
3.810000e-01 1.141435e-09
3.820000e-01 -1.355258e-09
3.830000e-01 -2.037123e-09
3.840000e-01 -1.711785e-09
3.850000e-01 -1.756823e-09
3.860000e-01 -1.981639e-09
3.870000e-01 -1.100786e-09
3.880000e-01 8.536577e-10
3.890000e-01 2.435771e-09
3.900000e-01 2.637749e-09
3.910000e-01 2.166501e-09
3.920000e-01 1.704054e-09
3.930000e-01 6.817968e-10
3.940000e-01 -1.662741e-09
3.950000e-01 -4.205334e-09
3.960000e-01 -4.514406e-09
3.970000e-01 -1.779433e-09
3.980000e-01 1.861800e-09
3.990000e-01 3.634178e-09
4.000000e-01 3.081229e-09
4.010000e-01 1.852768e-09
4.020000e-01 1.039773e-09
4.030000e-01 -5.606104e-11
4.040000e-01 -2.047553e-09
4.050000e-01 -3.794463e-09
4.060000e-01 -3.616794e-09
4.070000e-01 -1.554431e-09
4.080000e-01 7.358690e-10
4.090000e-01 2.162171e-09
4.100000e-01 3.107352e-09
4.110000e-01 3.874479e-09
4.120000e-01 3.328784e-09
4.130000e-01 4.792532e-10
4.140000e-01 -3.326172e-09
4.150000e-01 -5.153349e-09
4.160000e-01 -3.810973e-09
4.170000e-01 -1.120566e-09
4.180000e-01 5.057755e-10
4.190000e-01 9.159886e-10
4.200000e-01 1.641977e-09
4.210000e-01 3.067134e-09
4.220001e-01 3.655796e-09
4.230000e-01 2.266631e-09
4.240000e-01 -1.594319e-10
4.250000e-01 -1.924624e-09
4.260000e-01 -2.768855e-09
4.270000e-01 -3.495266e-09
4.280000e-01 -3.805965e-09
4.290000e-01 -2.198229e-09
4.300000e-01 1.588256e-09
4.310000e-01 5.209241e-09
4.320000e-01 5.981784e-09
4.330000e-01 3.857451e-09
4.340000e-01 1.055585e-09
4.350000e-01 -9.847668e-10
4.360000e-01 -2.852187e-09
4.370000e-01 -5.055153e-09
4.380000e-01 -6.102607e-09
4.390000e-01 -4.033518e-09
4.400000e-01 6.207582e-10
4.410000e-01 4.861598e-09
4.420000e-01 6.372197e-09
4.430000e-01 5.469083e-09
4.440000e-01 3.544341e-09
4.450000e-01 8.725084e-10
4.460000e-01 -2.820244e-09
4.470000e-01 -6.311585e-09
4.480000e-01 -7.171447e-09
4.490000e-01 -4.559812e-09
4.500000e-01 -4.996619e-10
4.510000e-01 2.460991e-09
4.520000e-01 3.998950e-09
4.530000e-01 5.319993e-09
4.540000e-01 6.288906e-09
4.550000e-01 4.990022e-09
4.560000e-01 5.863239e-10
4.570000e-01 -4.687124e-09
4.580000e-01 -7.526366e-09
4.590001e-01 -6.922608e-09
4.600000e-01 -4.425107e-09
4.610000e-01 -1.466706e-09
4.620000e-01 2.010060e-09
4.630000e-01 5.849386e-09
4.640000e-01 8.160495e-09
4.650000e-01 6.942937e-09
4.660000e-01 2.749870e-09
4.670000e-01 -1.671540e-09
4.680000e-01 -4.426703e-09
4.690000e-01 -5.918123e-09
4.700000e-01 -6.831128e-09
4.710000e-01 -6.113339e-09
4.720000e-01 -2.381787e-09
4.730000e-01 3.194388e-09
4.740000e-01 7.072926e-09
4.750000e-01 6.909710e-09
4.760000e-01 3.827027e-09
4.770000e-01 4.709636e-10
4.780000e-01 -2.115039e-09
4.790000e-01 -4.525796e-09
4.800000e-01 -6.591007e-09
4.810000e-01 -6.696190e-09
4.820001e-01 -4.067765e-09
4.830000e-01 -3.692636e-10
4.840000e-01 2.078088e-09
4.850000e-01 2.978494e-09
4.860000e-01 3.561955e-09
4.870000e-01 3.972271e-09
4.880000e-01 2.599142e-09
4.890000e-01 -1.274526e-09
4.900000e-01 -5.385484e-09
4.910000e-01 -6.750689e-09
4.920000e-01 -4.827803e-09
4.930000e-01 -1.873188e-09
4.940000e-01 3.033804e-10
4.950000e-01 2.121729e-09
4.960001e-01 4.310026e-09
4.970000e-01 5.774623e-09
4.980000e-01 4.716332e-09
4.990000e-01 1.395925e-09
5.000000e-01 -1.807700e-09
5.010000e-01 -3.172528e-09
5.020000e-01 -3.154836e-09
5.030000e-01 -2.889148e-09
5.040000e-01 -1.951032e-09
5.050000e-01 7.923282e-10
5.060000e-01 4.553351e-09
5.070000e-01 6.686405e-09
5.080000e-01 5.708863e-09
5.090000e-01 3.069178e-09
5.100001e-01 1.198812e-09
5.110000e-01 4.041892e-10
5.120000e-01 -7.270388e-10
5.130000e-01 -2.538309e-09
5.140000e-01 -3.392128e-09
5.150000e-01 -1.878460e-09
5.160000e-01 9.555106e-10
5.170000e-01 2.930724e-09
5.180000e-01 3.504560e-09
5.190001e-01 3.798007e-09
5.200000e-01 4.350253e-09
5.210000e-01 3.889092e-09
5.220000e-01 1.386863e-09
5.230000e-01 -1.910561e-09
5.240000e-01 -3.689129e-09
5.250000e-01 -3.472775e-09
5.260000e-01 -2.744143e-09
5.270000e-01 -2.373614e-09
5.280000e-01 -1.171411e-09
5.290000e-01 1.860522e-09
5.300000e-01 5.212006e-09
5.310000e-01 6.097846e-09
5.320000e-01 3.849825e-09
5.330001e-01 6.405012e-10
5.340000e-01 -1.413336e-09
5.350000e-01 -2.565191e-09
5.360000e-01 -4.049844e-09
5.370000e-01 -5.522168e-09
5.380000e-01 -5.294131e-09
5.390000e-01 -2.881478e-09
5.400000e-01 1.261652e-10
5.410000e-01 2.170123e-09
5.420001e-01 3.431155e-09
5.430000e-01 4.549390e-09
5.440000e-01 4.553219e-09
5.450000e-01 1.724271e-09
5.460000e-01 -3.511494e-09
5.470001e-01 -7.939740e-09
5.480000e-01 -8.759210e-09
5.490000e-01 -6.436233e-09
5.500000e-01 -3.486533e-09
5.510000e-01 -1.179298e-09
5.520000e-01 1.159951e-09
5.530000e-01 3.931312e-09
5.540000e-01 5.652065e-09
5.550000e-01 4.696934e-09
5.560001e-01 1.586667e-09
5.570000e-01 -1.749328e-09
5.580000e-01 -4.273385e-09
5.590000e-01 -6.283449e-09
5.600000e-01 -7.485270e-09
5.610000e-01 -6.301164e-09
5.620000e-01 -1.904009e-09
5.630000e-01 3.767904e-09
5.640000e-01 7.357415e-09
5.650001e-01 7.475395e-09
5.660000e-01 5.644385e-09
5.670000e-01 3.685375e-09
5.680000e-01 1.579376e-09
5.690000e-01 -1.504648e-09
5.700001e-01 -4.769545e-09
5.710000e-01 -6.001019e-09
5.720000e-01 -4.229853e-09
5.730000e-01 -8.597477e-10
5.740000e-01 2.150792e-09
5.750000e-01 4.361854e-09
5.760000e-01 6.176902e-09
5.770000e-01 6.992559e-09
5.780000e-01 5.423975e-09
5.790001e-01 1.700984e-09
5.800000e-01 -2.008149e-09
5.810000e-01 -3.828736e-09
5.820000e-01 -4.152787e-09
5.830000e-01 -4.446290e-09
5.840001e-01 -4.698827e-09
5.850000e-01 -3.350767e-09
5.860000e-01 1.541922e-10
5.870000e-01 3.899396e-09
5.880000e-01 5.386154e-09
5.890000e-01 4.192664e-09
5.900000e-01 1.848773e-09
5.910000e-01 -4.351756e-10
5.920000e-01 -2.733074e-09
5.930001e-01 -5.002047e-09
5.940000e-01 -6.071338e-09
5.950000e-01 -4.914397e-09
5.960000e-01 -2.286929e-09
5.970000e-01 -3.715694e-12
5.980000e-01 1.343039e-09
5.990000e-01 2.765843e-09
6.000000e-01 4.802265e-09
6.010000e-01 6.067082e-09
6.020001e-01 4.791394e-09
6.030000e-01 1.288876e-09
6.040000e-01 -2.152555e-09
6.050000e-01 -3.822836e-09
6.060000e-01 -3.968669e-09
6.070001e-01 -3.447510e-09
6.080000e-01 -2.046209e-09
6.090000e-01 9.052122e-10
6.100000e-01 4.699709e-09
6.110000e-01 7.284083e-09
6.120000e-01 7.319560e-09
6.130000e-01 5.375621e-09
6.140000e-01 2.726443e-09
6.150000e-01 -2.448675e-10
6.160001e-01 -3.598524e-09
6.170000e-01 -6.362053e-09
6.180000e-01 -6.759365e-09
6.190000e-01 -4.305035e-09
6.200000e-01 -7.068645e-10
6.210001e-01 1.900609e-09
6.220000e-01 3.078966e-09
6.230000e-01 3.717153e-09
6.240000e-01 3.985837e-09
6.250001e-01 2.748343e-09
6.260000e-01 -6.905946e-10
6.270000e-01 -5.048035e-09
6.280000e-01 -8.054452e-09
6.290000e-01 -8.547889e-09
6.300001e-01 -6.948179e-09
6.310000e-01 -3.991520e-09
6.320000e-01 -3.936873e-11
6.330000e-01 4.076457e-09
6.340000e-01 6.593178e-09
6.350001e-01 6.146951e-09
6.360000e-01 3.336515e-09
6.370000e-01 2.084829e-10
6.380000e-01 -1.930755e-09
6.390001e-01 -3.415270e-09
6.400000e-01 -4.746217e-09
6.410000e-01 -5.106667e-09
6.420000e-01 -3.161065e-09
6.430000e-01 9.706966e-10
6.440001e-01 5.367874e-09
6.450000e-01 8.116815e-09
6.460000e-01 8.762235e-09
6.470000e-01 7.787158e-09
6.480000e-01 5.419593e-09
6.490000e-01 1.775068e-09
6.500000e-01 -2.151245e-09
6.510000e-01 -4.654305e-09
6.520000e-01 -4.826449e-09
6.530001e-01 -3.347788e-09
6.540000e-01 -1.384820e-09
6.550000e-01 7.416079e-10
6.560000e-01 3.193043e-09
6.570000e-01 5.282918e-09
6.580001e-01 5.500935e-09
6.590000e-01 3.194486e-09
6.600000e-01 -4.049154e-10
6.610000e-01 -3.371632e-09
6.620001e-01 -5.006748e-09
6.630000e-01 -5.976663e-09
6.640000e-01 -6.798294e-09
6.650000e-01 -6.932720e-09
6.660000e-01 -5.642717e-09
6.670001e-01 -3.109920e-09
6.680000e-01 -2.468879e-10
6.690000e-01 2.234413e-09
6.700000e-01 3.932224e-09
6.710000e-01 4.169508e-09
6.720001e-01 2.203651e-09
6.730000e-01 -1.569919e-09
6.740000e-01 -5.187151e-09
6.750000e-01 -6.588455e-09
6.760001e-01 -5.457913e-09
6.770000e-01 -3.139842e-09
6.780000e-01 -8.498519e-10
6.790000e-01 1.453418e-09
6.800000e-01 4.231561e-09
6.810001e-01 7.057279e-09
6.820000e-01 8.707834e-09
6.830000e-01 8.391658e-09
6.840000e-01 6.337783e-09
6.850001e-01 3.254895e-09
6.860000e-01 -1.879144e-10
6.870000e-01 -3.092191e-09
6.880000e-01 -4.207968e-09
6.890000e-01 -2.794765e-09
6.900001e-01 4.144671e-10
6.910000e-01 3.657827e-09
6.920000e-01 5.699940e-09
6.930000e-01 6.552758e-09
6.940000e-01 6.588216e-09
6.950001e-01 5.466755e-09
6.960000e-01 2.542071e-09
6.970000e-01 -1.841900e-09
6.980000e-01 -6.067230e-09
6.990001e-01 -8.471646e-09
7.000000e-01 -8.539685e-09
7.010000e-01 -6.791510e-09
7.020000e-01 -3.978240e-09
7.030000e-01 -8.335446e-10
7.040001e-01 1.661943e-09
7.050000e-01 2.516767e-09
7.060000e-01 1.521063e-09
7.070000e-01 -5.462709e-10
7.080001e-01 -2.779964e-09
7.090001e-01 -4.922413e-09
7.100000e-01 -6.971766e-09
7.110000e-01 -8.289884e-09
7.120000e-01 -7.747062e-09
7.130001e-01 -4.963144e-09
7.140000e-01 -1.015249e-09
7.150000e-01 2.419807e-09
7.160000e-01 4.447191e-09
7.170000e-01 5.235755e-09
7.180001e-01 5.187494e-09
7.190000e-01 4.382843e-09
7.200000e-01 2.919658e-09
7.210000e-01 1.289684e-09
7.220001e-01 5.862294e-11
7.230000e-01 -6.021065e-10
7.240000e-01 -6.998975e-10
7.250000e-01 7.142378e-11
7.260000e-01 2.098017e-09
7.270001e-01 5.019723e-09
7.280000e-01 7.558470e-09
7.290000e-01 8.532847e-09
7.300000e-01 7.864259e-09
7.310000e-01 6.293826e-09
7.320001e-01 4.281430e-09
7.330000e-01 1.671273e-09
7.340000e-01 -1.508378e-09
7.350000e-01 -4.379195e-09
7.360001e-01 -5.735806e-09
7.370000e-01 -5.102305e-09
7.380000e-01 -2.992729e-09
7.390000e-01 -3.071713e-10
7.400000e-01 2.131490e-09
7.410001e-01 3.500979e-09
7.420000e-01 3.065640e-09
7.430000e-01 7.698564e-10
7.440000e-01 -2.454968e-09
7.450001e-01 -5.402473e-09
7.460001e-01 -7.579937e-09
7.470000e-01 -9.159304e-09
7.480000e-01 -9.989318e-09
7.490000e-01 -9.205926e-09
7.500001e-01 -6.203858e-09
7.510000e-01 -1.764553e-09
7.520000e-01 2.233860e-09
7.530000e-01 4.272015e-09
7.540000e-01 4.125122e-09
7.550001e-01 2.465471e-09
7.560000e-01 5.408329e-11
7.570000e-01 -2.432159e-09
7.580000e-01 -4.220682e-09
7.590001e-01 -4.686429e-09
7.600001e-01 -3.803436e-09
7.610000e-01 -1.965625e-09
7.620000e-01 6.815064e-10
7.630000e-01 4.254976e-09
7.640001e-01 8.222326e-09
7.650000e-01 1.092423e-08
7.660000e-01 1.066959e-08
7.670000e-01 7.441677e-09
7.680001e-01 3.146701e-09
7.690001e-01 -2.912159e-11
7.700000e-01 -1.284297e-09
7.710000e-01 -1.195340e-09
7.720000e-01 -5.274304e-10
7.730001e-01 4.617990e-10
7.740000e-01 1.736188e-09
7.750000e-01 3.131623e-09
7.760000e-01 4.489160e-09
7.770000e-01 5.673447e-09
7.780001e-01 6.117704e-09
7.790000e-01 4.766140e-09
7.800000e-01 1.110778e-09
7.810000e-01 -3.687151e-09
7.820001e-01 -7.296524e-09
7.830001e-01 -8.180572e-09
7.840000e-01 -6.857792e-09
7.850000e-01 -4.984392e-09
7.860000e-01 -3.497758e-09
7.870001e-01 -2.106629e-09
7.880000e-01 -4.143142e-10
7.890000e-01 1.122643e-09
7.900000e-01 1.630374e-09
7.910001e-01 7.563830e-10
7.920001e-01 -1.207403e-09
7.930000e-01 -3.813597e-09
7.940000e-01 -6.499892e-09
7.950000e-01 -8.252265e-09
7.960001e-01 -7.961933e-09
7.970001e-01 -5.538713e-09
7.980000e-01 -2.267099e-09
7.990000e-01 4.299009e-10
8.000000e-01 2.394752e-09
8.010001e-01 4.385805e-09
8.020000e-01 6.405338e-09
8.030000e-01 7.075099e-09
8.040000e-01 5.113932e-09
8.050001e-01 1.075886e-09
8.060001e-01 -2.881364e-09
8.070000e-01 -4.839557e-09
8.080000e-01 -4.351999e-09
8.090000e-01 -2.033041e-09
8.100001e-01 1.295758e-09
8.110000e-01 4.718173e-09
8.120000e-01 7.137587e-09
8.130000e-01 7.877111e-09
8.140000e-01 7.335922e-09
8.150001e-01 6.419156e-09
8.160000e-01 5.182444e-09
8.170000e-01 2.680603e-09
8.180000e-01 -1.391971e-09
8.190001e-01 -5.382702e-09
8.200001e-01 -6.769511e-09
8.210000e-01 -4.657629e-09
8.220000e-01 -6.806191e-10
8.230000e-01 2.696337e-09
8.240001e-01 4.293715e-09
8.250000e-01 4.417304e-09
8.260000e-01 3.628852e-09
8.270000e-01 2.110175e-09
8.280001e-01 1.230044e-10
8.290001e-01 -1.772477e-09
8.300000e-01 -3.321943e-09
8.310000e-01 -4.831110e-09
8.320000e-01 -6.277032e-09
8.330001e-01 -6.589365e-09
8.340001e-01 -4.640473e-09
8.350000e-01 -9.982661e-10
8.360000e-01 2.073997e-09
8.370000e-01 2.812921e-09
8.380001e-01 1.715735e-09
8.390000e-01 6.134455e-10
8.400000e-01 3.308943e-10
8.410000e-01 -1.696954e-11
8.420001e-01 -1.419060e-09
8.430001e-01 -3.464002e-09
8.440000e-01 -4.848326e-09
8.450000e-01 -4.836360e-09
8.460000e-01 -3.612332e-09
8.470001e-01 -1.550979e-09
8.480000e-01 1.007239e-09
8.490000e-01 3.199780e-09
8.500000e-01 3.795292e-09
8.510001e-01 2.541478e-09
8.520001e-01 8.633001e-10
8.530000e-01 4.040852e-10
8.540000e-01 9.591166e-10
8.550000e-01 6.749502e-10
8.560001e-01 -1.429710e-09
8.570001e-01 -3.848185e-09
8.580000e-01 -4.084023e-09
8.590000e-01 -1.422687e-09
8.600000e-01 2.403720e-09
8.610001e-01 5.134110e-09
8.620000e-01 5.829810e-09
8.630000e-01 4.805142e-09
8.640000e-01 2.702246e-09
8.650001e-01 3.465002e-10
8.660001e-01 -1.080913e-09
8.670000e-01 -8.338936e-10
8.680000e-01 2.895394e-10
8.690000e-01 5.215899e-10
8.700001e-01 -6.794072e-10
8.710001e-01 -1.610188e-09
8.720000e-01 -2.402802e-10
8.730000e-01 3.100521e-09
8.740000e-01 5.756882e-09
8.750001e-01 5.580124e-09
8.760000e-01 3.044202e-09
8.770000e-01 2.639142e-10
8.780000e-01 -1.372906e-09
8.790001e-01 -1.934002e-09
