-4.000000000000000083e-02 0.000000000000000000e+00
-3.984999999999999654e-02 0.000000000000000000e+00
-3.969999999999999918e-02 0.000000000000000000e+00
-3.955000000000000182e-02 0.000000000000000000e+00
-3.939999999999999752e-02 0.000000000000000000e+00
-3.925000000000000017e-02 0.000000000000000000e+00
-3.910000000000000281e-02 0.000000000000000000e+00
-3.894999999999999851e-02 0.000000000000000000e+00
-3.880000000000000115e-02 -2.942726775082115849e-44
-3.864999999999999686e-02 1.315819258001003230e-42
-3.849999999999999950e-02 2.912898735970497793e-39
-3.835000000000000214e-02 -1.606165945627685261e-37
-3.819999999999999785e-02 -4.957686885157752952e-36
-3.805000000000000049e-02 7.786996205465009843e-34
-3.790000000000000313e-02 -3.898525839007765698e-32
-3.774999999999999883e-02 1.217356807960155337e-30
-3.760000000000000148e-02 -2.532543710089529256e-29
-3.744999999999999718e-02 2.858633020105940191e-28
-3.729999999999999982e-02 1.342590030949641392e-27
-3.715000000000000246e-02 -1.176987126603637416e-25
-3.699999999999999817e-02 2.058859317804218110e-24
-3.685000000000000081e-02 -1.423691669987827641e-23
-3.670000000000000345e-02 -4.231509849034304121e-23
-3.654999999999999916e-02 1.180575353911052457e-21
-3.640000000000000180e-02 -2.354369280827590590e-21
-3.624999999999999750e-02 -3.533016027597558717e-20
-3.610000000000000014e-02 2.136766657557158908e-20
-3.595000000000000279e-02 6.376178546221465589e-19
-3.579999999999999849e-02 2.294580200863163189e-18
-3.565000000000000113e-02 5.274607752221455525e-18
-3.549999999999999684e-02 9.979299642922450725e-18
-3.534999999999999948e-02 1.679703226660597437e-17
-3.520000000000000212e-02 2.607931891970857952e-17
-3.504999999999999782e-02 3.831082705700162400e-17
-3.490000000000000047e-02 5.390837298915057848e-17
-3.475000000000000311e-02 7.341201466628518918e-17
-3.459999999999999881e-02 9.741410935994448007e-17
-3.445000000000000145e-02 1.264638719096391594e-16
-3.429999999999999716e-02 1.605532157977009088e-16
-3.414999999999999980e-02 1.983169489062824105e-16
-3.400000000000000244e-02 2.415446797993645901e-16
-3.384999999999999815e-02 3.175710219526807748e-16
-3.370000000000000079e-02 5.098101256506093557e-16
-3.355000000000000343e-02 8.461308571654745092e-16
-3.339999999999999913e-02 6.541320461267701326e-16
-3.325000000000000178e-02 -2.630524345169273776e-15
-3.309999999999999748e-02 -1.227200053410164651e-14
-3.295000000000000012e-02 -1.944039547396858580e-14
-3.280000000000000276e-02 2.988633781642394127e-14
-3.264999999999999847e-02 2.566095664950640565e-13
-3.250000000000000111e-02 7.111530331629922763e-13
-3.234999999999999681e-02 8.125517403020920959e-13
-3.219999999999999946e-02 -1.645077303547015646e-12
-3.205000000000000210e-02 -1.065216317930328671e-11
-3.189999999999999780e-02 -2.764652395903510751e-11
-3.175000000000000044e-02 -3.777833254559048726e-11
-3.160000000000000309e-02 1.226645608004561794e-11
-3.144999999999999879e-02 2.245455349436653592e-10
-3.130000000000000143e-02 6.986382583562544824e-10
-3.115000000000000061e-02 1.356310508349167776e-09
-3.099999999999999978e-02 1.627372903101331758e-09
-3.084999999999999895e-02 1.151876372063043164e-10
-3.070000000000000159e-02 -5.478601128316995528e-09
-3.055000000000000077e-02 -1.785952719046690618e-08
-3.039999999999999994e-02 -3.902450984583083482e-08
-3.024999999999999911e-02 -6.898478233097193879e-08
-3.009999999999999828e-02 -1.051950775377008540e-07
-2.995000000000000093e-02 -1.433754306390255806e-07
-2.980000000000000010e-02 -1.795174000562838046e-07
-2.964999999999999927e-02 -2.118478619195229840e-07
-2.949999999999999845e-02 -2.413627839814580511e-07
-2.935000000000000109e-02 -2.706391342144343071e-07
-2.920000000000000026e-02 -3.021107204403961077e-07
-2.904999999999999943e-02 -3.373194772393617313e-07
-2.889999999999999861e-02 -3.773327534872805700e-07
-2.875000000000000125e-02 -4.230102774727129145e-07
-2.860000000000000042e-02 -4.741297061627847143e-07
-2.844999999999999959e-02 -5.284678650241403375e-07
-2.829999999999999877e-02 -5.830370355397462845e-07
-2.815000000000000141e-02 -6.375180987561179791e-07
-2.800000000000000058e-02 -6.963582563912495971e-07
-2.784999999999999976e-02 -7.659047014385578223e-07
-2.769999999999999893e-02 -8.481435997964581475e-07
-2.755000000000000157e-02 -9.378527465742081404e-07
-2.740000000000000074e-02 -1.027845087264722679e-06
-2.724999999999999992e-02 -1.117829810937109869e-06
-2.709999999999999909e-02 -1.216553641825157683e-06
-2.695000000000000173e-02 -1.333184968643763568e-06
-2.680000000000000090e-02 -1.466980847908416763e-06
-2.665000000000000008e-02 -1.608137381481355987e-06
-2.649999999999999925e-02 -1.750284923218714539e-06
-2.634999999999999842e-02 -1.899970243357529398e-06
-2.620000000000000107e-02 -2.070486289085238241e-06
-2.605000000000000024e-02 -2.266496949232532643e-06
-2.589999999999999941e-02 -2.478778242220869288e-06
-2.574999999999999858e-02 -2.696878027563798241e-06
-2.560000000000000123e-02 -2.924329692177707329e-06
-2.545000000000000040e-02 -3.176374093527556397e-06
-2.529999999999999957e-02 -3.462075028437539004e-06
-2.514999999999999875e-02 -3.773747721425024793e-06
-2.500000000000000139e-02 -4.098147201148094609e-06
-2.485000000000000056e-02 -4.435505161382025108e-06
-2.469999999999999973e-02 -4.801634531759191304e-06
-2.454999999999999891e-02 -5.210357358009787276e-06
-2.440000000000000155e-02 -5.659585895045893267e-06
-2.425000000000000072e-02 -6.139435754448641092e-06
-2.409999999999999989e-02 -6.651429885096149519e-06
-2.394999999999999907e-02 -7.213692242657998577e-06
-2.380000000000000171e-02 -7.846403605071827769e-06
-2.365000000000000088e-02 -8.557230103178881109e-06
-2.350000000000000006e-02 -9.343980309495236725e-06
-2.334999999999999923e-02 -1.020741729007568210e-05
-2.319999999999999840e-02 -1.115564009523950517e-05
-2.305000000000000104e-02 -1.219604109792271629e-05
-2.290000000000000022e-02 -1.332775264017982408e-05
-2.274999999999999939e-02 -1.454375797038665041e-05
-2.259999999999999856e-02 -1.583731136634014547e-05
-2.245000000000000120e-02 -1.720490763545967638e-05
-2.230000000000000038e-02 -1.864756450231652707e-05
-2.214999999999999955e-02 -2.017450606217607856e-05
-2.199999999999999872e-02 -2.180482988478615880e-05
-2.185000000000000137e-02 -2.356087861699052155e-05
-2.170000000000000054e-02 -2.545866482250858098e-05
-2.154999999999999971e-02 -2.750735802692361176e-05
-2.139999999999999888e-02 -2.971771573356818408e-05
-2.125000000000000153e-02 -3.210491195204667747e-05
-2.110000000000000070e-02 -3.467869828455150127e-05
-2.094999999999999987e-02 -3.743436172953806818e-05
-2.079999999999999905e-02 -4.036063546664081514e-05
-2.065000000000000169e-02 -4.345869820099323988e-05
-2.050000000000000086e-02 -4.675072341342456639e-05
-2.035000000000000003e-02 -5.026964572607539594e-05
-2.019999999999999921e-02 -5.404487092164345086e-05
-2.004999999999999838e-02 -5.809919093735516071e-05
-1.990000000000000102e-02 -6.245341501198709011e-05
-1.975000000000000019e-02 -6.712620233884081244e-05
-1.959999999999999937e-02 -7.212876516859978437e-05
-1.944999999999999854e-02 -7.746434130240231752e-05
-1.930000000000000118e-02 -8.313560101669281721e-05
-1.915000000000000036e-02 -8.915223588701337576e-05
-1.899999999999999953e-02 -9.553415293339639902e-05
-1.884999999999999870e-02 -1.023133154376409948e-04
-1.870000000000000134e-02 -1.095346524380147457e-04
-1.855000000000000052e-02 -1.172490956378169358e-04
-1.839999999999999969e-02 -1.254979288205504417e-04
-1.824999999999999886e-02 -1.343021140201017261e-04
-1.810000000000000150e-02 -1.436688908142969012e-04
-1.795000000000000068e-02 -1.536084746476262808e-04
-1.779999999999999985e-02 -1.641426060814410448e-04
-1.764999999999999902e-02 -1.753010874381288886e-04
-1.750000000000000167e-02 -1.871186104835942388e-04
-1.735000000000000084e-02 -1.996397622860968113e-04
-1.720000000000000001e-02 -2.129221102222800255e-04
-1.704999999999999918e-02 -2.270273107569664717e-04
-1.689999999999999836e-02 -2.420067030470818281e-04
-1.675000000000000100e-02 -2.578959974925965071e-04
-1.660000000000000017e-02 -2.747220278251916170e-04
-1.644999999999999934e-02 -2.925126173067837954e-04
-1.629999999999999852e-02 -3.113037964794784784e-04
-1.615000000000000116e-02 -3.311453619971871376e-04
-1.600000000000000033e-02 -3.521030594129115343e-04
-1.584999999999999951e-02 -3.742508997675031424e-04
-1.569999999999999868e-02 -3.976578882429748774e-04
-1.554999999999999959e-02 -4.223815340083092451e-04
-1.540000000000000049e-02 -4.484747769311070442e-04
-1.524999999999999967e-02 -4.759954463224858046e-04
-1.510000000000000057e-02 -5.050067557021975517e-04
-1.494999999999999975e-02 -5.355728208087384701e-04
-1.480000000000000066e-02 -5.677606095559895039e-04
-1.464999999999999983e-02 -6.016470142640173435e-04
-1.450000000000000074e-02 -6.373189389705657959e-04
-1.434999999999999991e-02 -6.748628802597522736e-04
-1.420000000000000082e-02 -7.143565453588962555e-04
-1.404999999999999999e-02 -7.558717625215649605e-04
-1.389999999999999916e-02 -7.994842017069458961e-04
-1.375000000000000007e-02 -8.452793117612600327e-04
-1.359999999999999924e-02 -8.933536009863018990e-04
-1.345000000000000015e-02 -9.438138222321867943e-04
-1.329999999999999932e-02 -9.967710357159376144e-04
-1.315000000000000023e-02 -1.052330248057842255e-03
-1.299999999999999940e-02 -1.110583893023431301e-03
-1.285000000000000031e-02 -1.171618467196822166e-03
-1.269999999999999948e-02 -1.235528383404016495e-03
-1.255000000000000039e-02 -1.302423188462853432e-03
-1.239999999999999956e-02 -1.372422557324171066e-03
-1.225000000000000047e-02 -1.445650705136358738e-03
-1.209999999999999964e-02 -1.522236154414713383e-03
-1.195000000000000055e-02 -1.602311269380152225e-03
-1.179999999999999973e-02 -1.686005620285868645e-03
-1.165000000000000063e-02 -1.773438882082700729e-03
-1.149999999999999981e-02 -1.864723861217498779e-03
-1.135000000000000071e-02 -1.959977671504020691e-03
-1.119999999999999989e-02 -2.059329533949494362e-03
-1.105000000000000079e-02 -2.162922406569123268e-03
-1.089999999999999997e-02 -2.270908560603857040e-03
-1.074999999999999914e-02 -2.383443992584943771e-03
-1.060000000000000005e-02 -2.500680508092045784e-03
-1.044999999999999922e-02 -2.622757339850068092e-03
-1.030000000000000013e-02 -2.749807899817824364e-03
-1.014999999999999930e-02 -2.881971187889575958e-03
-1.000000000000000021e-02 -3.019401803612709045e-03
-9.850001000000000589e-03 -3.162263426929712296e-03
-9.700001999999999236e-03 -3.310717875137925148e-03
-9.550001000000000670e-03 -3.464922541752457619e-03
-9.400000999999999843e-03 -3.625033190473914146e-03
-9.250002000000000224e-03 -3.791205352172255516e-03
-9.100000999999999923e-03 -3.963594324886798859e-03
-8.950001000000000831e-03 -4.142355639487504959e-03
-8.800001999999999477e-03 -4.327652044594287872e-03
-8.650000999999999177e-03 -4.519652575254440308e-03
-8.500001999999999558e-03 -4.718529060482978821e-03
-8.349999999999999784e-03 -4.924448207020759583e-03
-8.200001000000000165e-03 -5.137571133673191071e-03
-8.050002000000000546e-03 -5.358051974326372147e-03
-7.900000000000000772e-03 -5.586036946624517441e-03
-7.750001000000000285e-03 -5.821671802550554276e-03
-7.600001999999999799e-03 -6.065111141651868820e-03
-7.449998999999999684e-03 -6.316523067653179169e-03
-7.300001000000000406e-03 -6.576079875230789185e-03
-7.150001999999999920e-03 -6.843941286206245422e-03
-7.000003000000000301e-03 -7.120250724256038666e-03
-6.850000000000000186e-03 -7.405138108879327774e-03
-6.700002000000000041e-03 -7.698731962591409683e-03
-6.550003000000000422e-03 -8.001162670552730560e-03
-6.400000000000000307e-03 -8.312558755278587341e-03
-6.250000999999999821e-03 -8.633053861558437347e-03
-6.100002999999999675e-03 -8.962777443230152130e-03
-5.950000000000000427e-03 -9.301846846938133240e-03
-5.800000999999999941e-03 -9.650364518165588379e-03
-5.650002999999999796e-03 -1.000842638313770294e-02
-5.499999999999999681e-03 -1.037611905485391617e-02
-5.350001000000000062e-03 -1.075352542102336884e-02
-5.200001999999999576e-03 -1.114071626216173172e-02
-5.049999999999999802e-03 -1.153775770217180252e-02
-4.900001000000000183e-03 -1.194471027702093124e-02
-4.750001999999999697e-03 -1.236162148416042328e-02
-4.599999999999999922e-03 -1.278852112591266632e-02
-4.450001000000000304e-03 -1.322541572153568268e-02
-4.300001999999999817e-03 -1.367229875177145004e-02
-4.149998999999999702e-03 -1.412916276603937149e-02
-4.000001000000000424e-03 -1.459599193185567856e-02
-3.850001999999999938e-03 -1.507276203483343124e-02
-3.699998999999999823e-03 -1.555942744016647339e-02
-3.550000000000000204e-03 -1.605591736733913422e-02
-3.400002000000000059e-03 -1.656213030219078064e-02
-3.250003000000000006e-03 -1.707794517278671265e-02
-3.099999999999999891e-03 -1.760322786867618561e-02
-2.950002000000000180e-03 -1.813783310353755951e-02
-2.800003000000000127e-03 -1.868160814046859741e-02
-2.650000000000000012e-03 -1.923437230288982391e-02
-2.500000999999999959e-03 -1.979591883718967438e-02
-2.350002999999999814e-03 -2.036601118743419647e-02
-2.200000000000000133e-03 -2.094438858330249786e-02
-2.050001000000000080e-03 -2.153076417744159698e-02
-1.900002000000000028e-03 -2.212482132017612457e-02
-1.750000000000000036e-03 -2.272622473537921906e-02
-1.600000999999999984e-03 -2.333461865782737732e-02
-1.450001999999999932e-03 -2.394962310791015625e-02
-1.299999999999999940e-03 -2.457082271575927734e-02
-1.150001000000000105e-03 -2.519777417182922363e-02
-1.000002000000000052e-03 -2.582999505102634430e-02
-8.499994999999999990e-04 -2.646697685122489929e-02
-7.000007000000000148e-04 -2.710818126797676086e-02
-5.500019000000000305e-04 -2.775304391980171204e-02
-3.999992999999999973e-04 -2.840097621083259583e-02
-2.500005000000000131e-04 -2.905136160552501678e-02
-1.000017000000000017e-04 -2.970353513956069946e-02
5.000085000000000087e-05 -3.035678714513778687e-02
1.999996999999999886e-04 -3.101038187742233276e-02
3.499985000000000270e-04 -3.166355565190315247e-02
4.999972999999999571e-04 -3.231551498174667358e-02
6.499998000000000104e-04 -3.296545520424842834e-02
7.999985999999999946e-04 -3.361252322793006897e-02
9.499975000000000129e-04 -3.425582870841026306e-02
1.100000000000000066e-03 -3.489444777369499207e-02
1.249998999999999902e-03 -3.552740812301635742e-02
1.399997999999999954e-03 -3.615371882915496826e-02
1.549999999999999946e-03 -3.677236288785934448e-02
1.699998999999999998e-03 -3.738228976726531982e-02
1.849998000000000050e-03 -3.798242658376693726e-02
2.000000000000000042e-03 -3.857166692614555359e-02
2.149999000000000094e-03 -3.914887830615043640e-02
2.299998000000000146e-03 -3.971290215849876404e-02
2.449999999999999921e-03 -4.026254266500473022e-02
2.599998999999999973e-03 -4.079658165574073792e-02
2.749998000000000026e-03 -4.131377860903739929e-02
2.900001000000000141e-03 -4.181287810206413269e-02
3.049998999999999853e-03 -4.229261353611946106e-02
3.199997999999999905e-03 -4.275169223546981812e-02
3.350001000000000020e-03 -4.318879917263984680e-02
3.500000000000000073e-03 -4.360260069370269775e-02
3.649997999999999784e-03 -4.399175941944122314e-02
3.800000999999999900e-03 -4.435491561889648438e-02
3.950000000000000386e-03 -4.469072446227073669e-02
4.099999000000000005e-03 -4.499784111976623535e-02
4.249997000000000150e-03 -4.527490958571434021e-02
4.400000000000000265e-03 -4.552056267857551575e-02
4.549998999999999884e-03 -4.573343321681022644e-02
4.699998000000000370e-03 -4.591216519474983215e-02
4.850000000000000144e-03 -4.605541378259658813e-02
4.999998999999999763e-03 -4.616184905171394348e-02
5.149998000000000249e-03 -4.623016342520713806e-02
5.300000000000000024e-03 -4.625906795263290405e-02
5.449998999999999642e-03 -4.624728858470916748e-02
5.599998000000000128e-03 -4.619358852505683899e-02
5.749999999999999903e-03 -4.609673842787742615e-02
5.899999000000000389e-03 -4.595555737614631653e-02
6.049998000000000008e-03 -4.576889052987098694e-02
6.200001000000000123e-03 -4.553563147783279419e-02
6.349999000000000268e-03 -4.525471851229667664e-02
6.499997999999999887e-03 -4.492513835430145264e-02
6.650001000000000002e-03 -4.454592615365982056e-02
6.799999999999999621e-03 -4.411616921424865723e-02
6.949997999999999766e-03 -4.363501816987991333e-02
7.100000999999999882e-03 -4.310167580842971802e-02
7.250000000000000368e-03 -4.251541569828987122e-02
7.399998999999999987e-03 -4.187558963894844055e-02
7.550000999999999761e-03 -4.118162021040916443e-02
7.700000000000000247e-03 -4.043300077319145203e-02
7.849998999999999866e-03 -3.962929919362068176e-02
7.999997999999999485e-03 -3.877016529440879822e-02
8.149999999999999259e-03 -3.785532712936401367e-02
8.299999000000000612e-03 -3.688461333513259888e-02
8.449998000000000231e-03 -3.585795313119888306e-02
8.600000000000000006e-03 -3.477536514401435852e-02
8.749998999999999624e-03 -3.363696113228797913e-02
8.899997999999999243e-03 -3.244294226169586182e-02
9.050000000000000752e-03 -3.119361400604248047e-02
9.199999000000000371e-03 -2.988937497138977051e-02
9.349997999999999990e-03 -2.853073924779891968e-02
9.500000999999999238e-03 -2.711832523345947266e-02
9.649998999999999383e-03 -2.565285377204418182e-02
9.799998000000000736e-03 -2.413516119122505188e-02
9.950000999999999984e-03 -2.256618440151214600e-02
1.009999999999999960e-02 -2.094697207212448120e-02
1.025000000000000043e-02 -1.927867904305458069e-02
1.039999999999999952e-02 -1.756256632506847382e-02
1.055000000000000035e-02 -1.580000668764114380e-02
1.069999999999999944e-02 -1.399247534573078156e-02
1.085000000000000027e-02 -1.214155554771423340e-02
1.099999999999999936e-02 -1.024893857538700104e-02
1.115000000000000019e-02 -8.316419087350368500e-03
1.129999999999999928e-02 -6.345886737108230591e-03
1.145000000000000011e-02 -4.339326638728380203e-03
1.159999999999999920e-02 -2.298824256286025047e-03
1.175000000000000003e-02 -2.265659568365663290e-04
1.190000000000000085e-02 1.875168993137776852e-03
1.204999999999999995e-02 4.004016518592834473e-03
1.220000000000000077e-02 6.157533265650272369e-03
1.234999999999999987e-02 8.333200588822364807e-03
1.250000000000000069e-02 1.052842568606138229e-02
1.264999999999999979e-02 1.274054404348134995e-02
1.280000000000000061e-02 1.496682129800319672e-02
1.294999999999999971e-02 1.720445416867733002e-02
1.310000000000000053e-02 1.945058628916740417e-02
1.324999999999999963e-02 2.170231379568576813e-02
1.340000000000000045e-02 2.395669184625148773e-02
1.354999999999999954e-02 2.621073648333549500e-02
1.370000000000000037e-02 2.846142277121543884e-02
1.384999999999999946e-02 3.070570342242717743e-02
1.400000000000000029e-02 3.294051066040992737e-02
1.414999999999999938e-02 3.516276553273200989e-02
1.430000000000000021e-02 3.736938163638114929e-02
1.444999999999999930e-02 3.955725952982902527e-02
1.460000000000000013e-02 4.172331839799880981e-02
1.474999999999999922e-02 4.386448487639427185e-02
1.490000000000000005e-02 4.597770050168037415e-02
1.504999999999999914e-02 4.805993661284446716e-02
1.519999999999999997e-02 5.010819807648658752e-02
1.535000000000000080e-02 5.211952328681945801e-02
1.549999999999999989e-02 5.409100651741027832e-02
1.565000000000000072e-02 5.601978302001953125e-02
1.580000000000000154e-02 5.790305882692337036e-02
1.594999999999999890e-02 5.973810330033302307e-02
1.609999999999999973e-02 6.152225658297538757e-02
1.625000000000000056e-02 6.325293332338333130e-02
1.640000000000000138e-02 6.492761522531509399e-02
1.654999999999999874e-02 6.654389947652816772e-02
1.669999999999999957e-02 6.809947639703750610e-02
1.685000000000000039e-02 6.959211826324462891e-02
1.700000000000000122e-02 7.101971656084060669e-02
1.714999999999999858e-02 7.238028198480606079e-02
1.729999999999999941e-02 7.367192208766937256e-02
1.745000000000000023e-02 7.489287108182907104e-02
1.760000000000000106e-02 7.604149729013442993e-02
1.774999999999999842e-02 7.711626589298248291e-02
1.789999999999999925e-02 7.811580598354339600e-02
1.805000000000000007e-02 7.903885096311569214e-02
1.820000000000000090e-02 7.988428324460983276e-02
1.835000000000000173e-02 8.065111935138702393e-02
1.849999999999999908e-02 8.133852481842041016e-02
1.864999999999999991e-02 8.194579929113388062e-02
1.880000000000000074e-02 8.247239142656326294e-02
1.895000000000000157e-02 8.291787654161453247e-02
1.909999999999999892e-02 8.328200131654739380e-02
1.924999999999999975e-02 8.356462419033050537e-02
1.940000000000000058e-02 8.376576751470565796e-02
1.955000000000000140e-02 8.388558775186538696e-02
1.969999999999999876e-02 8.392439037561416626e-02
1.984999999999999959e-02 8.388261497020721436e-02
2.000000000000000042e-02 8.376085013151168823e-02
2.015000000000000124e-02 8.355980366468429565e-02
2.029999999999999860e-02 8.328033238649368286e-02
2.044999999999999943e-02 8.292341977357864380e-02
2.060000000000000026e-02 8.249017596244812012e-02
2.075000000000000108e-02 8.198183774948120117e-02
2.089999999999999844e-02 8.139976859092712402e-02
2.104999999999999927e-02 8.074543625116348267e-02
2.120000000000000009e-02 8.002042770385742188e-02
2.135000000000000092e-02 7.922644913196563721e-02
2.149999999999999828e-02 7.836528867483139038e-02
2.164999999999999911e-02 7.743883877992630005e-02
2.179999999999999993e-02 7.644909620285034180e-02
2.195000000000000076e-02 7.539814710617065430e-02
2.210000000000000159e-02 7.428815960884094238e-02
2.224999999999999895e-02 7.312137633562088013e-02
2.239999999999999977e-02 7.190010696649551392e-02
2.255000000000000060e-02 7.062672823667526245e-02
2.270000000000000143e-02 6.930366903543472290e-02
2.284999999999999878e-02 6.793341785669326782e-02
2.299999999999999961e-02 6.651851534843444824e-02
2.315000000000000044e-02 6.506155431270599365e-02
2.330000000000000127e-02 6.356513500213623047e-02
2.344999999999999862e-02 6.203190609812736511e-02
2.359999999999999945e-02 6.046453118324279785e-02
2.375000000000000028e-02 5.886568874120712280e-02
2.390000000000000110e-02 5.723807215690612793e-02
2.404999999999999846e-02 5.558437854051589966e-02
2.419999999999999929e-02 5.390731245279312134e-02
2.435000000000000012e-02 5.220955237746238708e-02
2.450000000000000094e-02 5.049377307295799255e-02
2.464999999999999830e-02 4.876263067126274109e-02
2.479999999999999913e-02 4.701875895261764526e-02
2.494999999999999996e-02 4.526476189494132996e-02
2.510000000000000078e-02 4.350320622324943542e-02
2.525000000000000161e-02 4.173662886023521423e-02
2.539999999999999897e-02 3.996752202510833740e-02
2.554999999999999979e-02 3.819832578301429749e-02
2.570000000000000062e-02 3.643142804503440857e-02
2.585000000000000145e-02 3.466915339231491089e-02
2.599999999999999881e-02 3.291377425193786621e-02
2.614999999999999963e-02 3.116749040782451630e-02
2.630000000000000046e-02 2.943244390189647675e-02
2.645000000000000129e-02 2.771071344614028931e-02
2.659999999999999865e-02 2.600430138409137726e-02
2.674999999999999947e-02 2.431513555347919464e-02
2.690000000000000030e-02 2.264505438506603241e-02
2.705000000000000113e-02 2.099581994116306305e-02
2.719999999999999848e-02 1.936911419034004211e-02
2.734999999999999931e-02 1.776654273271560669e-02
2.750000000000000014e-02 1.618962548673152924e-02
2.765000000000000097e-02 1.463979762047529221e-02
2.779999999999999832e-02 1.311840303242206573e-02
2.794999999999999915e-02 1.162669900804758072e-02
2.809999999999999998e-02 1.016585715115070343e-02
2.825000000000000080e-02 8.736961521208286285e-03
2.840000000000000163e-02 7.341016083955764771e-03
2.854999999999999899e-02 5.978939589112997055e-03
2.869999999999999982e-02 4.651559516787528992e-03
2.885000000000000064e-02 3.359615104272961617e-03
2.900000000000000147e-02 2.103760372847318649e-03
2.914999999999999883e-02 8.845690172165632248e-04
2.929999999999999966e-02 -2.974661765620112419e-04
2.945000000000000048e-02 -1.441933214664459229e-03
2.960000000000000131e-02 -2.548496704548597336e-03
2.974999999999999867e-02 -3.616895293816924095e-03
2.989999999999999949e-02 -4.646942019462585449e-03
3.005000000000000032e-02 -5.638525355607271194e-03
3.020000000000000115e-02 -6.591607816517353058e-03
3.034999999999999851e-02 -7.506221532821655273e-03
3.049999999999999933e-02 -8.382464759051799774e-03
3.065000000000000016e-02 -9.220495820045471191e-03
3.080000000000000099e-02 -1.002052798867225647e-02
3.094999999999999835e-02 -1.078283507376909256e-02
3.109999999999999917e-02 -1.150774490088224411e-02
3.125000000000000000e-02 -1.219564769417047501e-02
3.139999999999999736e-02 -1.284698676317930222e-02
3.155000000000000165e-02 -1.346224453300237656e-02
3.169999999999999901e-02 -1.404194440692663193e-02
3.185000000000000331e-02 -1.458665076643228531e-02
3.200000000000000067e-02 -1.509696710854768753e-02
3.214999999999999802e-02 -1.557353977113962173e-02
3.230000000000000232e-02 -1.601705327630043030e-02
3.244999999999999968e-02 -1.642821915447711945e-02
3.259999999999999704e-02 -1.680777780711650848e-02
3.275000000000000133e-02 -1.715648733079433441e-02
3.289999999999999869e-02 -1.747512444853782654e-02
3.305000000000000299e-02 -1.776448637247085571e-02
3.320000000000000034e-02 -1.802540011703968048e-02
3.334999999999999770e-02 -1.825870573520660400e-02
3.350000000000000200e-02 -1.846525259315967560e-02
3.364999999999999936e-02 -1.864590495824813843e-02
3.379999999999999671e-02 -1.880152896046638489e-02
3.395000000000000101e-02 -1.893299818038940430e-02
3.409999999999999837e-02 -1.904118619859218597e-02
3.425000000000000266e-02 -1.912697032094001770e-02
3.440000000000000002e-02 -1.919122971594333649e-02
3.454999999999999738e-02 -1.923484168946743011e-02
3.470000000000000168e-02 -1.925868354737758636e-02
3.484999999999999903e-02 -1.926362141966819763e-02
3.500000000000000333e-02 -1.925051398575305939e-02
3.515000000000000069e-02 -1.922021247446537018e-02
3.529999999999999805e-02 -1.917355321347713470e-02
3.545000000000000234e-02 -1.911136321723461151e-02
3.559999999999999970e-02 -1.903446391224861145e-02
3.574999999999999706e-02 -1.894366741180419922e-02
3.590000000000000135e-02 -1.883976534008979797e-02
3.604999999999999871e-02 -1.872352883219718933e-02
3.620000000000000301e-02 -1.859570667147636414e-02
3.635000000000000037e-02 -1.845703087747097015e-02
3.649999999999999772e-02 -1.830822229385375977e-02
3.665000000000000202e-02 -1.814998872578144073e-02
3.679999999999999938e-02 -1.798301935195922852e-02
3.694999999999999674e-02 -1.780798472464084625e-02
3.710000000000000103e-02 -1.762552745640277863e-02
3.724999999999999839e-02 -1.743626408278942108e-02
3.740000000000000269e-02 -1.724079065024852753e-02
3.755000000000000004e-02 -1.703968644142150879e-02
3.769999999999999740e-02 -1.683351583778858185e-02
3.785000000000000170e-02 -1.662282459437847137e-02
3.799999999999999906e-02 -1.640813052654266357e-02
3.815000000000000335e-02 -1.618992909789085388e-02
3.830000000000000071e-02 -1.596869528293609619e-02
3.844999999999999807e-02 -1.574488170444965363e-02
3.860000000000000236e-02 -1.551892422139644623e-02
3.874999999999999972e-02 -1.529123727232217789e-02
3.889999999999999708e-02 -1.506221760064363480e-02
3.905000000000000138e-02 -1.483224239200353622e-02
3.919999999999999873e-02 -1.460166741162538528e-02
3.935000000000000303e-02 -1.437082607299089432e-02
3.950000000000000039e-02 -1.414003316313028336e-02
3.964999999999999775e-02 -1.390958391129970551e-02
3.980000000000000204e-02 -1.367975678294897079e-02
3.994999999999999940e-02 -1.345081720501184464e-02
4.009999999999999676e-02 -1.322301663458347321e-02
4.025000000000000105e-02 -1.299659069627523422e-02
4.039999999999999841e-02 -1.277175545692443848e-02
4.055000000000000271e-02 -1.254870276898145676e-02
4.070000000000000007e-02 -1.232760772109031677e-02
4.084999999999999742e-02 -1.210863608866930008e-02
4.100000000000000172e-02 -1.189194619655609131e-02
4.114999999999999908e-02 -1.167768519371747971e-02
4.130000000000000338e-02 -1.146598625928163528e-02
4.145000000000000073e-02 -1.125696673989295959e-02
4.159999999999999809e-02 -1.105072721838951111e-02
4.175000000000000239e-02 -1.084735523909330368e-02
4.189999999999999974e-02 -1.064693182706832886e-02
4.204999999999999710e-02 -1.044953148812055588e-02
4.220000000000000140e-02 -1.025522220879793167e-02
4.234999999999999876e-02 -1.006405986845493317e-02
4.250000000000000305e-02 -9.876085445284843445e-03
4.265000000000000041e-02 -9.691331535577774048e-03
4.279999999999999777e-02 -9.509824216365814209e-03
4.295000000000000207e-02 -9.331583045423030853e-03
4.309999999999999942e-02 -9.156624786555767059e-03
4.324999999999999678e-02 -8.984960615634918213e-03
4.340000000000000108e-02 -8.816595189273357391e-03
4.354999999999999843e-02 -8.651525713503360748e-03
4.370000000000000273e-02 -8.489740081131458282e-03
4.385000000000000009e-02 -8.331220597028732300e-03
4.399999999999999745e-02 -8.175944909453392029e-03
4.415000000000000174e-02 -8.023889735341072083e-03
4.429999999999999910e-02 -7.875027135014533997e-03
4.445000000000000340e-02 -7.729330565780401230e-03
4.460000000000000075e-02 -7.586771622300148010e-03
4.474999999999999811e-02 -7.447315845638513565e-03
4.490000000000000241e-02 -7.310920860618352890e-03
4.504999999999999977e-02 -7.177539635449647903e-03
4.519999999999999712e-02 -7.047126535326242447e-03
4.535000000000000142e-02 -6.919637788087129593e-03
4.549999999999999878e-02 -6.795029155910015106e-03
4.565000000000000308e-02 -6.673255469650030136e-03
4.580000000000000043e-02 -6.554267834872007370e-03
4.594999999999999779e-02 -6.438012700527906418e-03
4.610000000000000209e-02 -6.324434187263250351e-03
4.624999999999999944e-02 -6.213476415723562241e-03
4.639999999999999680e-02 -6.105089560151100159e-03
4.655000000000000110e-02 -5.999227520078420639e-03
4.669999999999999846e-02 -5.895840469747781754e-03
4.685000000000000275e-02 -5.794872529804706573e-03
4.700000000000000011e-02 -5.696264561265707016e-03
4.714999999999999747e-02 -5.599960219115018845e-03
4.730000000000000177e-02 -5.505905486643314362e-03
4.744999999999999912e-02 -5.414049606770277023e-03
4.760000000000000342e-02 -5.324343219399452209e-03
4.775000000000000078e-02 -5.236736498773097992e-03