-1.200000e-01 0.000000e+00
-1.190000e-01 0.000000e+00
-1.180000e-01 0.000000e+00
-1.170000e-01 0.000000e+00
-1.160000e-01 0.000000e+00
-1.150000e-01 0.000000e+00
-1.140000e-01 0.000000e+00
-1.130000e-01 1.791114e-22
-1.120000e-01 -3.466007e-22
-1.110000e-01 -8.616227e-21
-1.100000e-01 -2.905005e-20
-1.090000e-01 1.943454e-21
-1.080000e-01 2.703340e-19
-1.070000e-01 7.648636e-19
-1.060000e-01 3.807178e-19
-1.050000e-01 -3.113215e-18
-1.040000e-01 -8.978017e-18
-1.030000e-01 -5.793744e-18
-1.020000e-01 2.643921e-17
-1.010000e-01 8.362220e-17
-1.000000e-01 8.500870e-17
-9.900001e-02 -1.139916e-16
-9.800000e-02 -5.325251e-16
-9.700000e-02 -7.611994e-16
-9.600000e-02 3.705642e-17
-9.500001e-02 2.290182e-15
-9.400000e-02 4.537926e-15
-9.300000e-02 2.962088e-15
-9.200001e-02 -5.802016e-15
-9.100001e-02 -1.867119e-14
-9.000000e-02 -2.222607e-14
-8.900000e-02 6.299909e-16
-8.800000e-02 5.094405e-14
-8.700000e-02 9.424877e-14
-8.600000e-02 6.794489e-14
-8.500001e-02 -6.778043e-14
-8.400001e-02 -2.594225e-13
-8.300000e-02 -3.391669e-13
-8.200000e-02 -1.198023e-13
-8.100000e-02 4.120809e-13
-8.000000e-02 9.473624e-13
-7.900000e-02 9.441501e-13
-7.800000e-02 2.218950e-14
-7.700001e-02 -1.550731e-12
-7.600001e-02 -2.715476e-12
-7.500000e-02 -2.160700e-12
-7.400000e-02 6.015227e-13
-7.300000e-02 4.358609e-12
-7.200000e-02 6.424300e-12
-7.100000e-02 4.275329e-12
-7.000001e-02 -2.234743e-12
-6.900001e-02 -9.768289e-12
-6.800000e-02 -1.287329e-11
-6.700000e-02 -7.579844e-12
-6.600000e-02 4.982932e-12
-6.500000e-02 1.787238e-11
-6.400000e-02 2.193931e-11
-6.300000e-02 1.208898e-11
-6.200000e-02 -8.001594e-12
-6.100000e-02 -2.667791e-11
-6.000000e-02 -3.115622e-11
-5.900000e-02 -1.642577e-11
-5.800000e-02 1.006788e-11
-5.700000e-02 3.205711e-11
-5.600000e-02 3.486675e-11
-5.500000e-02 1.582986e-11
-5.400001e-02 -1.286579e-11
-5.300000e-02 -3.169936e-11
-5.200000e-02 -2.719775e-11
-5.100000e-02 -2.039882e-12
-5.000000e-02 2.559276e-11
-4.900000e-02 3.376903e-11
-4.800000e-02 1.226196e-11
-4.700000e-02 -2.865280e-11
-4.600000e-02 -6.245007e-11
-4.500000e-02 -6.182946e-11
-4.400000e-02 -1.647008e-11
-4.300000e-02 5.752100e-11
-4.200000e-02 1.225995e-10
-4.100000e-02 1.376858e-10
-4.000000e-02 8.068526e-11
-3.900000e-02 -3.556896e-11
-3.800000e-02 -1.631970e-10
-3.700000e-02 -2.379058e-10
-3.600000e-02 -2.103530e-10
-3.500000e-02 -7.591977e-11
-3.400000e-02 1.143554e-10
-3.300000e-02 2.724315e-10
-3.200000e-02 3.168302e-10
-3.100000e-02 2.193973e-10
-3.000000e-02 2.649589e-11
-2.900000e-02 -1.630418e-10
-2.800000e-02 -2.548552e-10
-2.700000e-02 -2.171587e-10
-2.600000e-02 -1.005176e-10
-2.500000e-02 -1.797756e-12
-2.400000e-02 7.062129e-12
-2.300000e-02 -6.347178e-11
-2.200000e-02 -1.213805e-10
-2.100000e-02 -5.870771e-11
-2.000000e-02 1.592487e-10
-1.900000e-02 4.450106e-10
-1.800000e-02 6.223867e-10
-1.700000e-02 5.300980e-10
-1.600000e-02 1.328500e-10
-1.500000e-02 -4.334060e-10
-1.400000e-02 -9.167801e-10
-1.300000e-02 -1.077440e-09
-1.200000e-02 -8.152240e-10
-1.100000e-02 -2.247436e-10
-9.999998e-03 4.500567e-10
-8.999996e-03 9.333938e-10
-8.000001e-03 1.043989e-09
-6.999999e-03 7.701434e-10
-5.999997e-03 2.648319e-10
-5.000003e-03 -2.302604e-10
-4.000001e-03 -4.963576e-10
-2.999999e-03 -4.388765e-10
-1.999997e-03 -1.354157e-10
-1.000002e-03 1.962417e-10
0.000000e+00 3.061571e-10
1.000002e-03 5.263368e-11
2.000004e-03 -4.978089e-10
2.999999e-03 -1.077286e-09
4.000001e-03 -1.344798e-09
4.999995e-03 -1.075867e-09
5.999997e-03 -3.046543e-10
6.999999e-03 6.738148e-10
8.000001e-03 1.451318e-09
9.000003e-03 1.718824e-09
1.000001e-02 1.414324e-09
1.100001e-02 7.217120e-10
1.199999e-02 -6.450351e-11
1.300000e-02 -7.053864e-10
1.400000e-02 -1.106721e-09
1.500000e-02 -1.291560e-09
1.600000e-02 -1.311264e-09
1.700000e-02 -1.186121e-09
1.800001e-02 -9.221370e-10
1.900001e-02 -5.712772e-10
2.000000e-02 -2.533245e-10
2.100000e-02 -9.764545e-11
2.200000e-02 -1.381553e-10
2.300000e-02 -2.565241e-10
2.400000e-02 -2.439617e-10
2.500001e-02 4.545897e-11
2.600001e-02 5.557387e-10
2.700000e-02 1.028259e-09
2.800000e-02 1.152768e-09
2.900000e-02 7.721030e-10
3.000000e-02 -9.158008e-12
3.100000e-02 -8.885359e-10
3.200001e-02 -1.552602e-09
3.300001e-02 -1.845480e-09
3.400001e-02 -1.816197e-09
3.500000e-02 -1.626638e-09
3.600000e-02 -1.414399e-09
3.700000e-02 -1.209870e-09
3.800000e-02 -9.345200e-10
3.900000e-02 -4.860476e-10
4.000001e-02 1.864340e-10
4.100001e-02 1.070657e-09
4.200000e-02 2.089049e-09
4.300000e-02 3.073232e-09
4.400000e-02 3.750654e-09
4.500000e-02 3.815795e-09
4.600000e-02 3.068573e-09
4.700001e-02 1.610209e-09
4.800001e-02 -3.108802e-11
4.900001e-02 -1.094017e-09
5.000000e-02 -1.063622e-09
5.100000e-02 8.461498e-11
5.200000e-02 1.686091e-09
5.300000e-02 2.820729e-09
5.400001e-02 2.874942e-09
5.500001e-02 1.860662e-09
5.600001e-02 3.636771e-10
5.700000e-02 -6.490914e-10
5.800000e-02 -3.581011e-10
5.900000e-02 1.089905e-09
6.000000e-02 2.676334e-09
6.100000e-02 3.412467e-09
6.200001e-02 2.962434e-09
6.300001e-02 1.592131e-09
6.400001e-02 -2.623537e-10
6.500000e-02 -2.170221e-09
6.600000e-02 -3.596313e-09
6.700000e-02 -4.340464e-09
6.800000e-02 -4.344251e-09
6.900001e-02 -4.367074e-09
7.000001e-02 -4.915272e-09
7.100001e-02 -5.945651e-09
7.200000e-02 -7.116210e-09
7.300000e-02 -8.736855e-09
7.400000e-02 -1.052739e-08
7.500000e-02 -1.236019e-08
7.600001e-02 -1.335277e-08
7.700001e-02 -1.336046e-08
7.800001e-02 -1.343418e-08
7.900001e-02 -1.451750e-08
8.000000e-02 -1.612981e-08
8.100000e-02 -1.740894e-08
8.200000e-02 -1.780358e-08
8.300000e-02 -1.731624e-08
8.400001e-02 -1.663580e-08
8.500001e-02 -1.644700e-08
8.600001e-02 -1.658102e-08
8.700001e-02 -1.726361e-08
8.800000e-02 -1.834145e-08
8.900000e-02 -2.010516e-08
9.000000e-02 -2.159398e-08
9.100001e-02 -2.137723e-08
9.200001e-02 -2.041425e-08
9.300001e-02 -2.031220e-08
9.400001e-02 -2.140808e-08
9.500000e-02 -2.285178e-08
9.600000e-02 -2.326686e-08
9.700000e-02 -2.285636e-08
9.800000e-02 -2.369319e-08
9.900001e-02 -2.678337e-08
1.000000e-01 -3.097230e-08
1.010000e-01 -3.431691e-08
1.020000e-01 -3.632999e-08
1.030000e-01 -3.834265e-08
1.040000e-01 -4.062747e-08
1.050000e-01 -4.191725e-08
1.060000e-01 -4.181095e-08
1.070000e-01 -4.171238e-08
1.080000e-01 -4.314552e-08
1.090000e-01 -4.504068e-08
1.100000e-01 -4.517028e-08
1.110000e-01 -4.273693e-08
1.120000e-01 -3.906825e-08
1.130000e-01 -3.578316e-08
1.140000e-01 -3.115565e-08
1.150000e-01 -2.288925e-08
1.160000e-01 -1.149056e-08
1.170000e-01 1.233730e-09
1.180000e-01 1.427907e-08
1.190000e-01 2.870365e-08
1.200000e-01 4.635785e-08
1.210000e-01 6.694245e-08
1.220000e-01 8.877032e-08
1.230000e-01 1.107055e-07
1.240000e-01 1.339449e-07
1.250000e-01 1.588887e-07
1.260000e-01 1.834069e-07
1.270000e-01 2.054567e-07
1.280000e-01 2.253109e-07
1.290000e-01 2.455854e-07
1.300000e-01 2.663437e-07
1.310000e-01 2.834058e-07
1.320000e-01 2.936140e-07
1.330000e-01 2.973538e-07
1.340000e-01 2.958113e-07
1.350000e-01 2.877350e-07
1.360000e-01 2.698798e-07
1.370000e-01 2.406232e-07
1.380000e-01 2.018205e-07
1.390000e-01 1.538938e-07
1.400000e-01 9.506039e-08
1.410000e-01 2.363231e-08
1.420000e-01 -5.929905e-08
1.430000e-01 -1.506705e-07
1.440000e-01 -2.497836e-07
1.450000e-01 -3.587920e-07
1.460000e-01 -4.801113e-07
1.470000e-01 -6.117480e-07
1.480000e-01 -7.482304e-07
1.490000e-01 -8.853967e-07
1.500000e-01 -1.022447e-06
1.510000e-01 -1.157809e-06
1.520000e-01 -1.286622e-06
1.530000e-01 -1.403823e-06
1.540000e-01 -1.507782e-06
1.550000e-01 -1.598324e-06
1.560000e-01 -1.671113e-06
1.570000e-01 -1.718290e-06
1.580000e-01 -1.733250e-06
1.590000e-01 -1.716166e-06
1.600000e-01 -1.666776e-06
1.610000e-01 -1.582754e-06
1.620000e-01 -1.457753e-06
1.630000e-01 -1.287757e-06
1.640000e-01 -1.074368e-06
1.650000e-01 -8.210773e-07
1.660000e-01 -5.275360e-07
1.670000e-01 -1.914741e-07
1.680000e-01 1.853914e-07
1.690000e-01 5.947368e-07
1.700000e-01 1.031294e-06
1.710000e-01 1.493550e-06
1.720000e-01 1.977271e-06
1.730000e-01 2.472574e-06
1.740000e-01 2.966088e-06
1.750000e-01 3.449109e-06
1.760000e-01 3.916197e-06
1.770000e-01 4.361637e-06
1.780000e-01 4.774309e-06
1.790000e-01 5.139016e-06
1.800000e-01 5.446374e-06
1.810000e-01 5.693466e-06
1.820000e-01 5.871232e-06
1.830000e-01 5.968992e-06
1.840000e-01 5.977752e-06
1.850000e-01 5.894399e-06
1.860000e-01 5.718495e-06
1.870000e-01 5.447306e-06
1.880000e-01 5.076348e-06
1.890000e-01 4.606380e-06
1.900000e-01 4.046888e-06
1.910000e-01 3.405730e-06
1.920000e-01 2.686284e-06
1.930000e-01 1.890468e-06
1.940000e-01 1.028005e-06
1.950000e-01 1.185690e-07
1.960000e-01 -8.231727e-07
1.970000e-01 -1.785345e-06
1.980000e-01 -2.757413e-06
1.990000e-01 -3.723195e-06
2.000000e-01 -4.663947e-06
2.010000e-01 -5.564536e-06
2.020000e-01 -6.413786e-06
2.030000e-01 -7.197261e-06
2.040000e-01 -7.894589e-06
2.050000e-01 -8.491916e-06
2.060000e-01 -8.985051e-06
2.070000e-01 -9.369513e-06
2.080000e-01 -9.637384e-06
2.090000e-01 -9.774289e-06
2.100000e-01 -9.774289e-06
2.110000e-01 -9.641168e-06
2.120000e-01 -9.381445e-06
2.130000e-01 -9.000214e-06
2.140000e-01 -8.501171e-06
2.150000e-01 -7.890951e-06
2.160000e-01 -7.181457e-06
2.170000e-01 -6.382281e-06
2.180000e-01 -5.501184e-06
2.190000e-01 -4.548147e-06
2.200000e-01 -3.546447e-06
2.210000e-01 -2.517118e-06
2.220000e-01 -1.475069e-06
2.230000e-01 -4.285539e-07
2.240000e-01 6.131013e-07
2.250000e-01 1.628738e-06
2.260000e-01 2.596702e-06
2.270000e-01 3.506721e-06
2.280000e-01 4.350673e-06
2.290000e-01 5.121110e-06
2.300000e-01 5.803246e-06
2.310000e-01 6.389164e-06
2.320000e-01 6.876653e-06
2.330000e-01 7.267052e-06
2.340000e-01 7.553841e-06
2.350000e-01 7.730501e-06
2.360000e-01 7.799827e-06
2.370000e-01 7.775379e-06
2.380000e-01 7.663330e-06
2.390000e-01 7.460651e-06
2.400000e-01 7.166120e-06
2.410000e-01 6.792252e-06
2.420000e-01 6.357266e-06
2.430000e-01 5.872222e-06
2.440000e-01 5.340553e-06
2.450000e-01 4.767033e-06
2.460000e-01 4.165806e-06
2.470000e-01 3.551046e-06
2.480000e-01 2.929999e-06
2.490000e-01 2.307759e-06
2.500000e-01 1.694832e-06
2.510000e-01 1.105393e-06
2.520000e-01 5.470647e-07
2.530000e-01 1.760782e-08
2.540000e-01 -4.842877e-07
2.550000e-01 -9.485229e-07
2.560000e-01 -1.360968e-06
2.570000e-01 -1.716777e-06
2.580000e-01 -2.024040e-06
2.590000e-01 -2.289402e-06
2.600000e-01 -2.509623e-06
2.610000e-01 -2.677414e-06
2.620000e-01 -2.793451e-06
2.630000e-01 -2.864568e-06
2.640000e-01 -2.895284e-06
2.650000e-01 -2.884800e-06
2.660000e-01 -2.835513e-06
2.670000e-01 -2.757108e-06
2.680000e-01 -2.658668e-06
2.690000e-01 -2.539527e-06
2.700000e-01 -2.393772e-06
2.710000e-01 -2.224537e-06
2.720000e-01 -2.045330e-06
2.730000e-01 -1.867709e-06
2.740000e-01 -1.689899e-06
2.750000e-01 -1.505505e-06
2.760000e-01 -1.316395e-06
2.770000e-01 -1.132423e-06
2.780000e-01 -9.598953e-07
2.790000e-01 -7.967974e-07
2.800000e-01 -6.398623e-07
2.810000e-01 -4.938702e-07
2.820000e-01 -3.647656e-07
2.830000e-01 -2.510205e-07
2.840000e-01 -1.453227e-07
2.850000e-01 -4.612957e-08
2.860000e-01 3.956666e-08
2.870000e-01 1.069202e-07
2.880000e-01 1.617227e-07
2.890000e-01 2.122324e-07
2.900000e-01 2.580564e-07
2.910000e-01 2.909401e-07
2.920000e-01 3.083151e-07
2.930000e-01 3.182649e-07
2.940000e-01 3.292953e-07
2.950000e-01 3.392124e-07
2.960000e-01 3.404784e-07
2.970000e-01 3.323767e-07
2.980000e-01 3.222194e-07
2.990000e-01 3.144123e-07
3.000000e-01 3.049281e-07
3.010000e-01 2.894740e-07
3.020000e-01 2.714587e-07
3.030000e-01 2.567467e-07
3.040000e-01 2.435245e-07
3.050000e-01 2.241813e-07
3.060000e-01 1.974549e-07
3.070000e-01 1.721437e-07
3.080000e-01 1.560020e-07
3.090000e-01 1.447825e-07
3.100000e-01 1.285971e-07
3.110000e-01 1.057888e-07
3.120000e-01 8.480856e-08
3.130000e-01 7.181734e-08
3.140000e-01 6.275695e-08
3.150000e-01 5.058610e-08
3.160000e-01 3.602599e-08
3.170000e-01 2.496381e-08
3.180000e-01 1.814715e-08
3.190000e-01 1.046919e-08
3.200000e-01 7.676135e-10
3.210000e-01 -4.006324e-09
3.220000e-01 1.508852e-09
3.230000e-01 1.184435e-08
3.240000e-01 1.690023e-08
3.250000e-01 1.560693e-08
3.260000e-01 1.683838e-08
3.270000e-01 2.628349e-08
3.280000e-01 3.783953e-08
3.290000e-01 4.246249e-08
3.300000e-01 4.064987e-08
3.310000e-01 4.058256e-08
3.320000e-01 4.556659e-08
3.330000e-01 4.997673e-08
3.340000e-01 4.914273e-08
3.350000e-01 4.674121e-08
3.360000e-01 4.794674e-08
3.370000e-01 4.995536e-08
3.380000e-01 4.556614e-08
3.390000e-01 3.471951e-08
3.400000e-01 2.574143e-08
3.410000e-01 2.281831e-08
3.420000e-01 1.874287e-08
3.430000e-01 4.801677e-09
3.440000e-01 -1.586523e-08
3.450000e-01 -3.119521e-08
3.460000e-01 -3.562400e-08
3.470000e-01 -3.596688e-08
3.480000e-01 -4.023013e-08
3.490000e-01 -4.663161e-08
3.500000e-01 -4.851154e-08
3.510000e-01 -4.589174e-08
3.520000e-01 -4.497997e-08
3.530000e-01 -4.711978e-08
3.540000e-01 -4.579420e-08
3.550000e-01 -3.744958e-08
3.560000e-01 -2.908587e-08
3.570000e-01 -2.933120e-08
3.580000e-01 -3.511695e-08
3.590000e-01 -3.440869e-08
3.600000e-01 -2.233082e-08
3.610000e-01 -7.662265e-09
3.620000e-01 -3.758487e-10
3.630000e-01 1.155286e-09
3.640000e-01 5.297125e-09
3.650000e-01 1.311537e-08
3.660000e-01 1.696185e-08
3.670000e-01 1.309400e-08
3.680000e-01 7.817107e-09
3.690000e-01 7.541530e-09
3.700000e-01 8.452162e-09
3.710000e-01 2.765546e-09
3.720000e-01 -7.821200e-09
3.730000e-01 -1.265698e-08
3.740000e-01 -7.126573e-09
3.750000e-01 4.140475e-10
3.760000e-01 5.470611e-10
3.770000e-01 -3.787591e-09
3.780000e-01 -2.382990e-09
3.790000e-01 6.436380e-09
3.800000e-01 1.325861e-08
3.810000e-01 1.194223e-08
3.820000e-01 8.892812e-09
3.830000e-01 1.324167e-08
3.840000e-01 2.319473e-08
3.850000e-01 2.931529e-08
3.860000e-01 2.943193e-08
3.870000e-01 3.182811e-08
3.880000e-01 4.178594e-08
3.890000e-01 5.246170e-08
3.900000e-01 5.467916e-08
3.910000e-01 5.070990e-08
3.920000e-01 5.047957e-08
3.930000e-01 5.549816e-08
3.940000e-01 5.532365e-08
3.950000e-01 4.275876e-08
3.960000e-01 2.533261e-08
3.970000e-01 1.541446e-08
3.980000e-01 1.331034e-08
3.990000e-01 8.113489e-09
4.000000e-01 -5.500397e-09
4.010000e-01 -1.987553e-08
4.020000e-01 -2.676416e-08
4.030000e-01 -2.961519e-08
4.040000e-01 -3.694140e-08
4.050000e-01 -4.776189e-08
4.060000e-01 -5.267998e-08
4.070000e-01 -4.930791e-08
4.080000e-01 -4.764399e-08
4.090000e-01 -5.555802e-08
4.100000e-01 -6.577432e-08
4.110000e-01 -6.474596e-08
4.120000e-01 -5.146046e-08
4.130000e-01 -3.869815e-08
4.140000e-01 -3.491658e-08
4.150000e-01 -3.349049e-08
4.160000e-01 -2.437179e-08
4.170000e-01 -9.753478e-09
4.180000e-01 -2.111733e-10
4.190000e-01 1.665967e-09
4.200000e-01 4.386152e-09
4.210000e-01 1.288890e-08
4.220001e-01 1.972751e-08
4.230000e-01 1.661255e-08
4.240000e-01 8.649863e-09
4.250000e-01 8.311929e-09
4.260000e-01 1.703762e-08
4.270000e-01 2.229115e-08
4.280000e-01 1.541838e-08
4.290000e-01 4.290769e-09
4.300000e-01 1.858325e-09
4.310000e-01 7.589051e-09
4.320000e-01 9.074256e-09
4.330000e-01 8.229790e-10
4.340000e-01 -8.091547e-09
4.350000e-01 -8.177324e-09
4.360000e-01 -3.111495e-09
4.370000e-01 -2.265438e-09
4.380000e-01 -4.818901e-09
4.390000e-01 -8.852226e-10
4.400000e-01 1.194809e-08
4.410000e-01 2.300146e-08
4.420000e-01 2.379613e-08
4.430000e-01 2.131441e-08
4.440000e-01 2.812521e-08
4.450000e-01 4.315251e-08
4.460000e-01 5.199394e-08
4.470000e-01 4.716372e-08
4.480000e-01 3.874692e-08
4.490000e-01 3.996428e-08
4.500000e-01 4.897140e-08
4.510000e-01 5.298483e-08
4.520000e-01 4.716850e-08
4.530000e-01 3.960844e-08
4.540000e-01 3.646267e-08
4.550000e-01 3.182134e-08
4.560000e-01 1.827783e-08
4.570000e-01 8.541861e-10
4.580000e-01 -8.954515e-09
4.590001e-01 -1.091718e-08
4.600000e-01 -1.771227e-08
4.610000e-01 -3.613223e-08
4.620000e-01 -5.531857e-08
4.630000e-01 -6.055512e-08
4.640000e-01 -5.343122e-08
4.650000e-01 -4.927267e-08
4.660000e-01 -5.584445e-08
4.670000e-01 -6.417733e-08
4.680000e-01 -6.348344e-08
4.690000e-01 -5.662571e-08
4.700000e-01 -5.355044e-08
4.710000e-01 -5.463592e-08
4.720000e-01 -5.050303e-08
4.730000e-01 -3.803643e-08
4.740000e-01 -2.651250e-08
4.750000e-01 -2.336083e-08
4.760000e-01 -2.164239e-08
4.770000e-01 -9.875009e-09
4.780000e-01 9.559955e-09
4.790000e-01 2.169588e-08
4.800000e-01 1.941189e-08
4.810000e-01 1.337600e-08
4.820001e-01 1.659117e-08
4.830000e-01 2.607524e-08
4.840000e-01 2.820246e-08
4.850000e-01 1.910016e-08
4.860000e-01 9.887060e-09
4.870000e-01 1.014240e-08
4.880000e-01 1.516401e-08
4.890000e-01 1.527673e-08
4.900000e-01 1.123311e-08
4.910000e-01 1.148285e-08
4.920000e-01 1.665984e-08
4.930000e-01 1.705141e-08
4.940000e-01 8.176869e-09
4.950000e-01 9.026735e-11
4.960001e-01 4.219828e-09
4.970000e-01 1.622405e-08
4.980000e-01 2.112688e-08
4.990000e-01 1.459469e-08
5.000000e-01 9.596022e-09
5.010000e-01 1.846595e-08
5.020000e-01 3.599749e-08
5.030000e-01 4.717555e-08
5.040000e-01 4.710165e-08
5.050000e-01 4.448754e-08
5.060000e-01 4.615254e-08
5.070000e-01 4.766366e-08
5.080000e-01 4.325278e-08
5.090000e-01 3.700447e-08
5.100001e-01 3.626525e-08
5.110000e-01 3.778936e-08
5.120000e-01 3.025991e-08
5.130000e-01 1.163153e-08
5.140000e-01 -5.006541e-09
5.150000e-01 -8.101892e-09
5.160000e-01 -3.993279e-09
5.170000e-01 -8.906810e-09
5.180000e-01 -2.724970e-08
5.190001e-01 -4.649230e-08
5.200000e-01 -5.483613e-08
5.210000e-01 -5.565320e-08
5.220000e-01 -5.946458e-08
5.230000e-01 -6.779181e-08
5.240000e-01 -7.309190e-08
5.250000e-01 -7.230977e-08
5.260000e-01 -7.114377e-08
5.270000e-01 -7.262373e-08
5.280000e-01 -6.980067e-08
5.290000e-01 -5.611670e-08
5.300000e-01 -3.806655e-08
5.310000e-01 -2.889823e-08
5.320000e-01 -3.039919e-08
5.330001e-01 -2.940719e-08
5.340000e-01 -1.556479e-08
5.350000e-01 4.340194e-09
5.360000e-01 1.570792e-08
5.370000e-01 1.555291e-08
5.380000e-01 1.475864e-08
5.390000e-01 2.171022e-08
5.400000e-01 3.194034e-08
5.410000e-01 3.720596e-08
5.420001e-01 3.787149e-08
5.430000e-01 3.972302e-08
5.440000e-01 4.232103e-08
5.450000e-01 3.909452e-08
5.460000e-01 2.942286e-08
5.470001e-01 2.246297e-08
5.480000e-01 2.458977e-08
5.490000e-01 2.886051e-08
5.500000e-01 2.385691e-08
5.510000e-01 1.053543e-08
5.520000e-01 2.380460e-09
5.530000e-01 7.591581e-09
5.540000e-01 1.819544e-08
5.550000e-01 2.110463e-08
5.560001e-01 1.493467e-08
5.570000e-01 9.537587e-09
5.580000e-01 1.119662e-08
5.590000e-01 1.589487e-08
5.600000e-01 1.835343e-08
5.610000e-01 2.040639e-08
5.620000e-01 2.567882e-08
5.630000e-01 3.091884e-08
5.640000e-01 2.986900e-08
5.650001e-01 2.436536e-08
5.660000e-01 2.390794e-08
5.670000e-01 3.181162e-08
5.680000e-01 3.806258e-08
5.690000e-01 3.117449e-08
5.700001e-01 1.362811e-08
5.710000e-01 -8.401173e-10
5.720000e-01 -4.618954e-09
5.730000e-01 -4.386486e-09
5.740000e-01 -1.015010e-08
5.750000e-01 -2.208321e-08
5.760000e-01 -3.290434e-08
5.770000e-01 -3.942668e-08
5.780000e-01 -4.508857e-08
5.790001e-01 -5.170138e-08
5.800000e-01 -5.574368e-08
5.810000e-01 -5.559661e-08
5.820000e-01 -5.679215e-08
5.830000e-01 -6.455149e-08
5.840001e-01 -7.390494e-08
5.850000e-01 -7.383991e-08
5.860000e-01 -6.172168e-08
5.870000e-01 -4.762977e-08
5.880000e-01 -4.146895e-08
5.890000e-01 -4.036060e-08
5.900000e-01 -3.361463e-08
5.910000e-01 -1.770150e-08
5.920000e-01 -3.532818e-10
5.930001e-01 1.033105e-08
5.940000e-01 1.504151e-08
5.950000e-01 1.899556e-08
5.960000e-01 2.343040e-08
5.970000e-01 2.632908e-08
5.980000e-01 2.897380e-08
5.990000e-01 3.534097e-08
6.000000e-01 4.424999e-08
6.010000e-01 4.803159e-08
6.020001e-01 4.256114e-08
6.030000e-01 3.469034e-08
6.040000e-01 3.451734e-08
6.050000e-01 4.170658e-08
6.060000e-01 4.500995e-08
6.070001e-01 3.636987e-08
6.080000e-01 2.076561e-08
6.090000e-01 9.280939e-09
6.100000e-01 6.120814e-09
6.110000e-01 6.756693e-09
6.120000e-01 6.721507e-09
6.130000e-01 6.472874e-09
6.140000e-01 6.982873e-09
6.150000e-01 6.216737e-09
6.160001e-01 3.523070e-09
6.170000e-01 3.730776e-09
6.180000e-01 1.154510e-08
6.190000e-01 2.291318e-08
6.200000e-01 2.747984e-08
6.210001e-01 2.122250e-08
6.220000e-01 1.226877e-08
6.230000e-01 1.103442e-08
6.240000e-01 1.755267e-08
6.250001e-01 2.279364e-08
6.260000e-01 2.102890e-08
6.270000e-01 1.574431e-08
6.280000e-01 1.254199e-08
6.290000e-01 1.120299e-08
6.300001e-01 8.048538e-09
6.310000e-01 2.677709e-09
6.320000e-01 -2.530435e-09
6.330000e-01 -8.402893e-09
6.340000e-01 -1.897398e-08
6.350001e-01 -3.408097e-08
6.360000e-01 -4.664636e-08
6.370000e-01 -5.092014e-08
6.380000e-01 -5.058843e-08
6.390001e-01 -5.406288e-08
6.400000e-01 -6.262314e-08
6.410000e-01 -6.827655e-08
6.420000e-01 -6.470341e-08
6.430000e-01 -5.585376e-08
6.440001e-01 -5.030454e-08
6.450000e-01 -5.001002e-08
6.460000e-01 -4.919941e-08
6.470000e-01 -4.342326e-08
6.480000e-01 -3.461331e-08
6.490000e-01 -2.599312e-08
6.500000e-01 -1.674667e-08
6.510000e-01 -5.242310e-09
6.520000e-01 5.690939e-09
6.530001e-01 1.185641e-08
6.540000e-01 1.532267e-08
6.550000e-01 2.344085e-08
6.560000e-01 3.830219e-08
6.570000e-01 5.157260e-08
6.580001e-01 5.380730e-08
6.590000e-01 4.654530e-08
6.600000e-01 4.048812e-08
6.610000e-01 4.211080e-08
6.620001e-01 4.685657e-08
6.630000e-01 4.696818e-08
6.640000e-01 4.150030e-08
6.650000e-01 3.505156e-08
6.660000e-01 2.977595e-08
6.670001e-01 2.400654e-08
6.680000e-01 1.814729e-08
6.690000e-01 1.608657e-08
6.700000e-01 1.840996e-08
6.710000e-01 1.881094e-08
6.720001e-01 1.176836e-08
6.730000e-01 1.517321e-09
6.740000e-01 -1.951776e-09
6.750000e-01 4.064823e-09
6.760001e-01 1.103261e-08
6.770000e-01 1.046153e-08
6.780000e-01 4.863946e-09
6.790000e-01 3.372932e-09
6.800000e-01 8.955984e-09
6.810001e-01 1.538289e-08
6.820000e-01 1.679777e-08
6.830000e-01 1.476818e-08
6.840000e-01 1.338364e-08
6.850001e-01 1.197220e-08
6.860000e-01 7.454723e-09
6.870000e-01 1.502258e-09
6.880000e-01 -7.213288e-10
6.890000e-01 4.924630e-10
6.900001e-01 -2.538201e-09
6.910000e-01 -1.454660e-08
6.920000e-01 -2.909611e-08
6.930000e-01 -3.579662e-08
6.940000e-01 -3.411404e-08
6.950001e-01 -3.430154e-08
6.960000e-01 -4.366946e-08
6.970000e-01 -5.717509e-08
6.980000e-01 -6.479647e-08
6.990001e-01 -6.425064e-08
7.000000e-01 -6.142007e-08
7.010000e-01 -6.014502e-08
7.020000e-01 -5.785292e-08
7.030000e-01 -5.233355e-08
7.040001e-01 -4.684804e-08
7.050000e-01 -4.437458e-08
7.060000e-01 -4.070699e-08
7.070000e-01 -2.931699e-08
7.080001e-01 -1.217835e-08
7.090001e-01 5.540279e-10
7.100000e-01 3.709104e-09
7.110000e-01 4.779778e-09
7.120000e-01 1.421358e-08
7.130001e-01 3.126247e-08
7.140000e-01 4.511767e-08
7.150000e-01 4.932146e-08
7.160000e-01 4.896526e-08
7.170000e-01 5.167654e-08
7.180001e-01 5.693725e-08
7.190000e-01 5.896796e-08
7.200000e-01 5.678872e-08
7.210000e-01 5.497688e-08
7.220001e-01 5.470073e-08
7.230000e-01 5.063410e-08
7.240000e-01 3.979177e-08
7.250000e-01 2.835297e-08
7.260000e-01 2.432262e-08
7.270001e-01 2.582971e-08
7.280000e-01 2.307877e-08
7.290000e-01 1.235830e-08
7.300000e-01 1.924647e-09
7.310000e-01 6.802452e-10
7.320001e-01 5.689138e-09
7.330000e-01 6.449071e-09
7.340000e-01 -5.311094e-10
7.350000e-01 -7.805006e-09
7.360001e-01 -8.352337e-09
7.370000e-01 -4.746042e-09
7.380000e-01 -3.435679e-09
7.390000e-01 -4.537369e-09
7.400000e-01 -3.192752e-09
7.410001e-01 7.782521e-10
7.420000e-01 1.525681e-09
7.430000e-01 -3.032653e-09
7.440000e-01 -6.254318e-09
7.450001e-01 -2.165379e-09
7.460001e-01 4.088264e-09
7.470000e-01 1.553737e-09
7.480000e-01 -1.147956e-08
7.490000e-01 -2.416768e-08
7.500001e-01 -2.701533e-08
7.510000e-01 -2.380114e-08
7.520000e-01 -2.525993e-08
7.530000e-01 -3.436227e-08
7.540000e-01 -4.393632e-08
7.550001e-01 -4.809477e-08
7.560000e-01 -4.931827e-08
7.570000e-01 -5.177719e-08
7.580000e-01 -5.339636e-08
7.590001e-01 -4.996804e-08
7.600001e-01 -4.409356e-08
7.610000e-01 -4.305345e-08
7.620000e-01 -4.726314e-08
7.630000e-01 -4.732293e-08
7.640001e-01 -3.614544e-08
7.650000e-01 -1.948417e-08
7.660000e-01 -8.982681e-09
7.670000e-01 -6.820036e-09
7.680001e-01 -3.519371e-09
7.690001e-01 8.340667e-09
7.700000e-01 2.430824e-08
7.710000e-01 3.533149e-08
7.720000e-01 4.018111e-08
7.730001e-01 4.493739e-08
7.740000e-01 5.209044e-08
7.750000e-01 5.695773e-08
7.760000e-01 5.637432e-08
7.770000e-01 5.483338e-08
7.780001e-01 5.757363e-08
7.790000e-01 6.137789e-08
7.800000e-01 5.836601e-08
7.810000e-01 4.803734e-08
7.820001e-01 3.912783e-08
7.830001e-01 3.746283e-08
7.840000e-01 3.737945e-08
7.850000e-01 2.981778e-08
7.860000e-01 1.566856e-08
7.870001e-01 4.983448e-09
7.880000e-01 3.248658e-09
7.890000e-01 4.548511e-09
7.900000e-01 7.937615e-10
7.910001e-01 -7.240686e-09
7.920001e-01 -1.270416e-08
7.930000e-01 -1.346996e-08
7.940000e-01 -1.400889e-08
7.950000e-01 -1.659480e-08
7.960001e-01 -1.699135e-08
7.970001e-01 -1.199942e-08
7.980000e-01 -6.537313e-09
7.990000e-01 -7.740979e-09
8.000000e-01 -1.393232e-08
8.010001e-01 -1.561551e-08
8.020000e-01 -8.489749e-09
8.030000e-01 -4.851586e-11
8.040000e-01 1.381011e-10
8.050001e-01 -7.114650e-09
8.060001e-01 -1.278575e-08
8.070000e-01 -1.253655e-08
8.080000e-01 -1.158521e-08
8.090000e-01 -1.574548e-08
8.100001e-01 -2.308563e-08
8.110000e-01 -2.817761e-08
8.120000e-01 -3.090808e-08
8.130000e-01 -3.555981e-08
8.140000e-01 -4.219012e-08
8.150001e-01 -4.495799e-08
8.160000e-01 -4.100228e-08
8.170000e-01 -3.610514e-08
8.180000e-01 -3.730290e-08
8.190001e-01 -4.258261e-08
8.200001e-01 -4.317715e-08
8.210000e-01 -3.575074e-08
8.220000e-01 -2.693842e-08
8.230000e-01 -2.369002e-08
8.240001e-01 -2.350945e-08
8.250000e-01 -1.843597e-08
8.260000e-01 -6.322658e-09
8.270000e-01 7.004871e-09
8.280001e-01 1.671916e-08
8.290001e-01 2.486810e-08
8.300000e-01 3.497301e-08
8.310000e-01 4.499580e-08
8.320000e-01 5.018497e-08
8.330001e-01 5.101282e-08
8.340001e-01 5.298956e-08
8.350000e-01 5.794949e-08
8.360000e-01 6.040899e-08
8.370000e-01 5.550903e-08
8.380001e-01 4.714289e-08
8.390000e-01 4.368466e-08
8.400000e-01 4.675400e-08
8.410000e-01 4.898106e-08
8.420001e-01 4.387989e-08
8.430001e-01 3.373530e-08
8.440000e-01 2.503698e-08
8.450000e-01 1.929806e-08
8.460000e-01 1.269321e-08
8.470001e-01 3.605962e-09
8.480000e-01 -4.471914e-09
8.490000e-01 -8.863017e-09
8.500000e-01 -1.227907e-08
8.510001e-01 -1.817957e-08
8.520001e-01 -2.412094e-08
8.530000e-01 -2.420546e-08
8.540000e-01 -1.787407e-08
8.550000e-01 -1.190399e-08
8.560001e-01 -1.197407e-08
8.570001e-01 -1.561540e-08
8.580000e-01 -1.648925e-08
8.590000e-01 -1.345367e-08
8.600000e-01 -1.133959e-08
8.610001e-01 -1.312068e-08
8.620000e-01 -1.566981e-08
8.630000e-01 -1.508974e-08
8.640000e-01 -1.286068e-08
8.650001e-01 -1.330203e-08
8.660001e-01 -1.662420e-08
8.670000e-01 -1.858125e-08
8.680000e-01 -1.728137e-08
8.690000e-01 -1.649892e-08
8.700001e-01 -2.022527e-08
8.710001e-01 -2.671835e-08
8.720000e-01 -3.110874e-08
8.730000e-01 -3.250361e-08
8.740000e-01 -3.472266e-08
8.750001e-01 -3.966360e-08
8.760000e-01 -4.362216e-08
8.770000e-01 -4.233515e-08
8.780000e-01 -3.713453e-08
8.790001e-01 -3.287220e-08
