-4.000000000000000083e-02 0.000000000000000000e+00
-3.984999999999999654e-02 0.000000000000000000e+00
-3.969999999999999918e-02 0.000000000000000000e+00
-3.955000000000000182e-02 0.000000000000000000e+00
-3.939999999999999752e-02 0.000000000000000000e+00
-3.925000000000000017e-02 0.000000000000000000e+00
-3.910000000000000281e-02 0.000000000000000000e+00
-3.894999999999999851e-02 0.000000000000000000e+00
-3.880000000000000115e-02 0.000000000000000000e+00
-3.864999999999999686e-02 0.000000000000000000e+00
-3.849999999999999950e-02 0.000000000000000000e+00
-3.835000000000000214e-02 0.000000000000000000e+00
-3.819999999999999785e-02 0.000000000000000000e+00
-3.805000000000000049e-02 0.000000000000000000e+00
-3.790000000000000313e-02 0.000000000000000000e+00
-3.774999999999999883e-02 0.000000000000000000e+00
-3.760000000000000148e-02 0.000000000000000000e+00
-3.744999999999999718e-02 0.000000000000000000e+00
-3.729999999999999982e-02 0.000000000000000000e+00
-3.715000000000000246e-02 0.000000000000000000e+00
-3.699999999999999817e-02 0.000000000000000000e+00
-3.685000000000000081e-02 0.000000000000000000e+00
-3.670000000000000345e-02 0.000000000000000000e+00
-3.654999999999999916e-02 0.000000000000000000e+00
-3.640000000000000180e-02 0.000000000000000000e+00
-3.624999999999999750e-02 0.000000000000000000e+00
-3.610000000000000014e-02 0.000000000000000000e+00
-3.595000000000000279e-02 0.000000000000000000e+00
-3.579999999999999849e-02 0.000000000000000000e+00
-3.565000000000000113e-02 0.000000000000000000e+00
-3.549999999999999684e-02 0.000000000000000000e+00
-3.534999999999999948e-02 0.000000000000000000e+00
-3.520000000000000212e-02 0.000000000000000000e+00
-3.504999999999999782e-02 0.000000000000000000e+00
-3.490000000000000047e-02 0.000000000000000000e+00
-3.475000000000000311e-02 0.000000000000000000e+00
-3.459999999999999881e-02 0.000000000000000000e+00
-3.445000000000000145e-02 0.000000000000000000e+00
-3.429999999999999716e-02 0.000000000000000000e+00
-3.414999999999999980e-02 0.000000000000000000e+00
-3.400000000000000244e-02 0.000000000000000000e+00
-3.384999999999999815e-02 0.000000000000000000e+00
-3.370000000000000079e-02 -0.000000000000000000e+00
-3.355000000000000343e-02 0.000000000000000000e+00
-3.339999999999999913e-02 0.000000000000000000e+00
-3.325000000000000178e-02 -0.000000000000000000e+00
-3.309999999999999748e-02 1.401298464324817071e-45
-3.295000000000000012e-02 4.904544625136859748e-44
-3.280000000000000276e-02 -4.091791515828465847e-43
-3.264999999999999847e-02 -1.071993325208485059e-42
-3.250000000000000111e-02 4.638858436300874432e-41
-3.234999999999999681e-02 -2.258668916737313148e-40
-3.219999999999999946e-02 -2.182300953028539267e-39
-3.205000000000000210e-02 2.702837930454964685e-38
-3.189999999999999780e-02 1.614904975344631264e-38
-3.175000000000000044e-02 -1.627632784324696286e-36
-3.160000000000000309e-02 4.506283853089421837e-36
-3.144999999999999879e-02 6.682836339021514181e-35
-3.130000000000000143e-02 -3.532332055217164984e-34
-3.115000000000000061e-02 -2.112394021483367421e-33
-3.099999999999999978e-02 1.634865053496159979e-32
-3.084999999999999895e-02 5.749141860337817590e-32
-3.070000000000000159e-02 -5.650084597086114573e-31
-3.055000000000000077e-02 -1.539007045057013670e-30
-3.039999999999999994e-02 1.556079624081802764e-29
-3.024999999999999911e-02 4.369683168289098757e-29
-3.009999999999999828e-02 -3.414112864302266385e-28
-2.995000000000000093e-02 -1.227601324358532063e-27
-2.980000000000000010e-02 5.562697739926663407e-27
-2.964999999999999927e-02 2.983182591831021910e-26
-2.949999999999999845e-02 -5.093639736049887604e-26
-2.935000000000000109e-02 -5.556486739115531012e-25
-2.920000000000000026e-02 -2.949850445246314243e-25
-2.904999999999999943e-02 6.814449500867780340e-24
-2.889999999999999861e-02 1.860842096059672217e-23
-2.875000000000000125e-02 -3.259746494228007314e-23
-2.860000000000000042e-02 -2.725527049313079324e-22
-2.844999999999999959e-02 -4.177130574502671311e-22
-2.829999999999999877e-02 1.151136630028240255e-21
-2.815000000000000141e-02 6.588995218789939093e-21
-2.800000000000000058e-02 1.216318442102579662e-20
-2.784999999999999976e-02 -2.558987430302927187e-21
-2.769999999999999893e-02 -7.806051741874637604e-20
-2.755000000000000157e-02 -2.611202915664652958e-19
-2.740000000000000074e-02 -5.875875930306783552e-19
-2.724999999999999992e-02 -1.085561437027082197e-18
-2.709999999999999909e-02 -1.791949691909603793e-18
-2.695000000000000173e-02 -2.752463960990360276e-18
-2.680000000000000090e-02 -4.008974679310713937e-18
-2.665000000000000008e-02 -5.603495590953151882e-18
-2.649999999999999925e-02 -7.589311809821961910e-18
-2.634999999999999842e-02 -1.002421968608714289e-17
-2.620000000000000107e-02 -1.296498490287545263e-17
-2.605000000000000024e-02 -1.647766279518292571e-17
-2.589999999999999941e-02 -2.063768644461011037e-17
-2.574999999999999858e-02 -2.552195635116422394e-17
-2.560000000000000123e-02 -3.121602945996285118e-17
-2.545000000000000040e-02 -3.781755609667910212e-17
-2.529999999999999957e-02 -4.542886181180823648e-17
-2.514999999999999875e-02 -5.416221155808595119e-17
-2.500000000000000139e-02 -6.414423014368186371e-17
-2.485000000000000056e-02 -7.550949985425835166e-17
-2.469999999999999973e-02 -8.840536471796826075e-17
-2.454999999999999891e-02 -1.029960895695748214e-16
-2.440000000000000155e-02 -1.194575065375272057e-16
-2.425000000000000072e-02 -1.379823420871053685e-16
-2.409999999999999989e-02 -1.587833536893028491e-16
-2.394999999999999907e-02 -1.820891873003191051e-16
-2.380000000000000171e-02 -2.081506705516598162e-16
-2.365000000000000088e-02 -2.372425200509211936e-16
-2.350000000000000006e-02 -2.696609061620666237e-16
-2.334999999999999923e-02 -3.057306924901477324e-16
-2.319999999999999840e-02 -3.458055417604227917e-16
-2.305000000000000104e-02 -3.902678364090179149e-16
-2.290000000000000022e-02 -4.395361165909951332e-16
-2.274999999999999939e-02 -4.940638361007111158e-16
-2.259999999999999856e-02 -5.543428828525041960e-16
-2.245000000000000120e-02 -6.209095610508843545e-16
-2.230000000000000038e-02 -6.943439294460431767e-16
-2.214999999999999955e-02 -7.752758099738234383e-16
-2.199999999999999872e-02 -8.643896052556066141e-16
-2.185000000000000137e-02 -9.624244574169904878e-16
-2.170000000000000054e-02 -1.070183247812853729e-15
-2.154999999999999971e-02 -1.188534820488842438e-15
-2.139999999999999888e-02 -1.318418640862580038e-15
-2.125000000000000153e-02 -1.460852736657547793e-15
-2.110000000000000070e-02 -1.616936980155755411e-15
-2.094999999999999987e-02 -1.787860393856911118e-15
-2.079999999999999905e-02 -1.974908562016710126e-15
-2.065000000000000169e-02 -2.179468077569807725e-15
-2.050000000000000086e-02 -2.403036706525186333e-15
-2.035000000000000003e-02 -2.647230799504443968e-15
-2.019999999999999921e-02 -2.913791432730661844e-15
-2.004999999999999838e-02 -3.204599442863218135e-15
-1.990000000000000102e-02 -3.521676697547208856e-15
-1.975000000000000019e-02 -3.867204730138287458e-15
-1.959999999999999937e-02 -4.243528763109164284e-15
-1.944999999999999854e-02 -4.653175072225025286e-15
-1.930000000000000118e-02 -5.098856280499452359e-15
-1.915000000000000036e-02 -5.583493804567525587e-15
-1.899999999999999953e-02 -6.110222089850559507e-15
-1.884999999999999870e-02 -6.682411903962152608e-15
-1.870000000000000134e-02 -7.303677960004712616e-15
-1.855000000000000052e-02 -7.977899245360190600e-15
-1.839999999999999969e-02 -8.709240197513762327e-15
-1.824999999999999886e-02 -9.502157056800932672e-15
-1.810000000000000150e-02 -1.036143555937368843e-14
-1.795000000000000068e-02 -1.129219178423344558e-14
-1.779999999999999985e-02 -1.229991111674662296e-14
-1.764999999999999902e-02 -1.339045417787527309e-14
-1.750000000000000167e-02 -1.457009494065970856e-14
-1.735000000000000084e-02 -1.584553512977860540e-14
-1.720000000000000001e-02 -1.722394064396573499e-14
-1.704999999999999918e-02 -1.871295510853712013e-14
-1.689999999999999836e-02 -2.032074561517018679e-14
-1.675000000000000100e-02 -2.205602305069449820e-14
-1.660000000000000017e-02 -2.392811663599111321e-14
-1.644999999999999934e-02 -2.594703999456247218e-14
-1.629999999999999852e-02 -2.812357246769533331e-14
-1.615000000000000116e-02 -3.046926589072435076e-14
-1.600000000000000033e-02 -3.299630059743104138e-14
-1.584999999999999951e-02 -3.571692637829859684e-14
-1.569999999999999868e-02 -3.864244265284338953e-14
-1.554999999999999959e-02 -4.178180764151558091e-14
-1.540000000000000049e-02 -4.514094718681416207e-14
-1.524999999999999967e-02 -4.872525519454724841e-14
-1.510000000000000057e-02 -5.254970381909050692e-14
-1.494999999999999975e-02 -5.666173368175375646e-14
-1.480000000000000066e-02 -6.117885196924369162e-14
-1.464999999999999983e-02 -6.633070286608810928e-14
-1.450000000000000074e-02 -7.246910320099497760e-14
-1.434999999999999991e-02 -7.996899041400051811e-14
-1.420000000000000082e-02 -8.890052593819169902e-14
-1.404999999999999999e-02 -9.834572257038862175e-14
-1.389999999999999916e-02 -1.053322874885673222e-13
-1.375000000000000007e-02 -1.036612879952783506e-13
-1.359999999999999924e-02 -8.350190385062600251e-14
-1.345000000000000015e-02 -3.350100348498662173e-14
-1.329999999999999932e-02 5.195038735132662122e-14
-1.315000000000000023e-02 1.574097297819820884e-13
-1.299999999999999940e-02 2.217443486858886037e-13
-1.285000000000000031e-02 1.078611280695175589e-13
-1.269999999999999948e-02 -4.197349390798466029e-13
-1.255000000000000039e-02 -1.681526771123154074e-12
-1.239999999999999956e-02 -3.989314954766509658e-12
-1.225000000000000047e-02 -7.417519723440513246e-12
-1.209999999999999964e-02 -1.139384593618064656e-11
-1.195000000000000055e-02 -1.411020866121104334e-11
-1.179999999999999973e-02 -1.185556167127010951e-11
-1.165000000000000063e-02 1.466646899414558725e-12
-1.149999999999999981e-02 3.416985791537818784e-11
-1.135000000000000071e-02 9.530543715330352939e-11
-1.119999999999999989e-02 1.911272112797846034e-10
-1.105000000000000079e-02 3.188950770116605327e-10
-1.089999999999999997e-02 4.579001622317946385e-10
-1.074999999999999914e-02 5.584775419897880511e-10
-1.060000000000000005e-02 5.309714334877924102e-10
-1.044999999999999922e-02 2.378637842248565448e-10
-1.030000000000000013e-02 -5.068839237232225514e-10
-1.014999999999999930e-02 -1.927353165953604730e-09
-1.000000000000000021e-02 -4.261704766861384996e-09
-9.850001000000000589e-03 -7.725556194770888396e-09
-9.700001999999999236e-03 -1.246789871345299616e-08
-9.550001000000000670e-03 -1.852925635148494621e-08
-9.400000999999999843e-03 -2.581475300189595146e-08
-9.250002000000000224e-03 -3.409457960401596210e-08
-9.100000999999999923e-03 -4.303964118435033015e-08
-8.950001000000000831e-03 -5.229133748230196943e-08
-8.800001999999999477e-03 -6.155308795996461413e-08
-8.650000999999999177e-03 -7.068095442264166195e-08
-8.500001999999999558e-03 -7.974571047952849767e-08
-8.349999999999999784e-03 -8.904229531481178128e-08
-8.200001000000000165e-03 -9.903581599246535916e-08
-8.050002000000000546e-03 -1.102532038999015640e-07
-7.900000000000000772e-03 -1.231501869369822089e-07
-7.750001000000000285e-03 -1.379966931835951982e-07
-7.600001999999999799e-03 -1.548226578051981051e-07
-7.449998999999999684e-03 -1.734490382432340994e-07
-7.300001000000000406e-03 -1.935992344215264893e-07
-7.150001999999999920e-03 -2.150540865386574296e-07
-7.000003000000000301e-03 -2.377933299158030422e-07
-6.850000000000000186e-03 -2.620668340114207240e-07
-6.700002000000000041e-03 -2.883631964323285501e-07
-6.550003000000000422e-03 -3.172847868881945033e-07
-6.400000000000000307e-03 -3.493785243335878477e-07
-6.250000999999999821e-03 -3.849945642286911607e-07
-6.100002999999999675e-03 -4.242366173912159866e-07
-5.950000000000000427e-03 -4.670300199904886540e-07
-5.800000999999999941e-03 -5.132807245900039561e-07
-5.650002999999999796e-03 -5.630546411339309998e-07
-5.499999999999999681e-03 -6.166940806906495709e-07
-5.350001000000000062e-03 -6.748147711732599419e-07
-5.200001999999999576e-03 -7.381826776509115007e-07
-5.049999999999999802e-03 -8.075298296716937330e-07
-4.900001000000000183e-03 -8.834003324409422930e-07
-4.750001999999999697e-03 -9.661061994847841561e-07
-4.599999999999999922e-03 -1.055818529493990354e-06
-4.450001000000000304e-03 -1.152750087385356892e-06
-4.300001999999999817e-03 -1.257336180060519837e-06
-4.149998999999999702e-03 -1.370319978377665393e-06
-4.000001000000000424e-03 -1.492695673732669093e-06
-3.850001999999999938e-03 -1.625540448912943248e-06
-3.699998999999999823e-03 -1.769827463249384891e-06
-3.550000000000000204e-03 -1.926324102896614932e-06
-3.400002000000000059e-03 -2.095634727083961479e-06
-3.250003000000000006e-03 -2.278367446706397459e-06
-3.099999999999999891e-03 -2.475332621543202549e-06
-2.950002000000000180e-03 -2.687662799871759489e-06
-2.800003000000000127e-03 -2.916784751505474560e-06
-2.650000000000000012e-03 -3.164263489452423528e-06
-2.500000999999999959e-03 -3.431608547543874010e-06
-2.350002999999999814e-03 -3.720162567333318293e-06
-2.200000000000000133e-03 -4.031137450510868803e-06
-2.050001000000000080e-03 -4.365783752291463315e-06
-1.900002000000000028e-03 -4.725593043986009434e-06
-1.750000000000000036e-03 -5.112409780849702656e-06
-1.600000999999999984e-03 -5.528394012799253687e-06
-1.450001999999999932e-03 -5.975854037387762219e-06
-1.299999999999999940e-03 -6.457058589148800820e-06
-1.150001000000000105e-03 -6.974150437599746510e-06
-1.000002000000000052e-03 -7.529217782575869933e-06
-8.499994999999999990e-04 -8.124483429128304124e-06
-7.000007000000000148e-04 -8.762493962422013283e-06
-5.500019000000000305e-04 -9.446192962059285492e-06
-3.999992999999999973e-04 -1.017883732856716961e-05
-2.500005000000000131e-04 -1.096380492526805028e-05
-1.000017000000000017e-04 -1.180444633064325899e-05
5.000085000000000087e-05 -1.270404936803970486e-05
1.999996999999999886e-04 -1.366597189189633355e-05
3.499985000000000270e-04 -1.469385006203083321e-05
4.999972999999999571e-04 -1.579174022481311113e-05
6.499998000000000104e-04 -1.696412255114410073e-05
7.999985999999999946e-04 -1.821574915084056556e-05
9.499975000000000129e-04 -1.955146763066295534e-05
1.100000000000000066e-03 -2.097611286444589496e-05
1.249998999999999902e-03 -2.249457793368492275e-05
1.399997999999999954e-03 -2.411200694041326642e-05
1.549999999999999946e-03 -2.583397690614219755e-05
1.699998999999999998e-03 -2.766655416053254157e-05
1.849998000000000050e-03 -2.961619065899867564e-05
2.000000000000000042e-03 -3.168953844578936696e-05
2.149999000000000094e-03 -3.389333505765534937e-05
2.299998000000000146e-03 -3.623440352384932339e-05
2.449999999999999921e-03 -3.871980879921466112e-05
2.599998999999999973e-03 -4.135703056817874312e-05
2.749998000000000026e-03 -4.415408693603239954e-05
2.900001000000000141e-03 -4.711949077318422496e-05
3.049998999999999853e-03 -5.026204962632618845e-05
3.199997999999999905e-03 -5.359070928534492850e-05
3.350001000000000020e-03 -5.711450648959726095e-05
3.500000000000000073e-03 -6.084272899897769094e-05
3.649997999999999784e-03 -6.478514114860445261e-05
3.800000999999999900e-03 -6.895207479828968644e-05
3.950000000000000386e-03 -7.335436384892091155e-05
4.099999000000000005e-03 -7.800314051564782858e-05
4.249997000000000150e-03 -8.290971163660287857e-05
4.400000000000000265e-03 -8.808560232864692807e-05
4.549998999999999884e-03 -9.354259964311495423e-05
4.699998000000000370e-03 -9.929287625709548593e-05
4.850000000000000144e-03 -1.053490996127948165e-04
4.999998999999999763e-03 -1.117244391934946179e-04
5.149998000000000249e-03 -1.184325083158910275e-04
5.300000000000000024e-03 -1.254871458513662219e-04
5.449998999999999642e-03 -1.329022343270480633e-04
5.599998000000000128e-03 -1.406917435815557837e-04
5.749999999999999903e-03 -1.488700654590502381e-04
5.899999000000000389e-03 -1.574522175360471010e-04
6.049998000000000008e-03 -1.664537703618407249e-04
6.200001000000000123e-03 -1.758904109010472894e-04
6.349999000000000268e-03 -1.857777097029611468e-04
6.499997999999999887e-03 -1.961313391802832484e-04
6.650001000000000002e-03 -2.069673500955104828e-04
6.799999999999999621e-03 -2.183022734243422747e-04
6.949997999999999766e-03 -2.301526692463085055e-04
7.100000999999999882e-03 -2.425350685371086001e-04
7.250000000000000368e-03 -2.554662059992551804e-04
7.399998999999999987e-03 -2.689632819965481758e-04
7.550000999999999761e-03 -2.830434823408722878e-04
7.700000000000000247e-03 -2.977235708385705948e-04
7.849998999999999866e-03 -3.130198456346988678e-04
7.999997999999999485e-03 -3.289489250164479017e-04
8.149999999999999259e-03 -3.455283003859221935e-04
8.299999000000000612e-03 -3.627754922490566969e-04
8.449998000000000231e-03 -3.807069151662290096e-04
8.600000000000000006e-03 -3.993379359599202871e-04
8.749998999999999624e-03 -4.186839796602725983e-04
8.899997999999999243e-03 -4.387613735161721706e-04
9.050000000000000752e-03 -4.595865320879966021e-04
9.199999000000000371e-03 -4.811744147446006536e-04
9.349997999999999990e-03 -5.035384674556553364e-04
9.500000999999999238e-03 -5.266921361908316612e-04
9.649998999999999383e-03 -5.506496527232229710e-04
9.799998000000000736e-03 -5.754246958531439304e-04
9.950000999999999984e-03 -6.010289071127772331e-04
1.009999999999999960e-02 -6.274720071814954281e-04
1.025000000000000043e-02 -6.547639495693147182e-04
1.039999999999999952e-02 -6.829157937318086624e-04
1.055000000000000035e-02 -7.119374931789934635e-04
1.069999999999999944e-02 -7.418355089612305164e-04
1.085000000000000027e-02 -7.726137991994619370e-04
1.099999999999999936e-02 -8.042769040912389755e-04
1.115000000000000019e-02 -8.368308772332966328e-04
1.129999999999999928e-02 -8.702801424078643322e-04
1.145000000000000011e-02 -9.046246414072811604e-04
1.159999999999999920e-02 -9.398612310178577900e-04
1.175000000000000003e-02 -9.759872918948531151e-04
1.190000000000000085e-02 -1.013001776300370693e-03
1.204999999999999995e-02 -1.050901482813060284e-03
1.220000000000000077e-02 -1.089678029529750347e-03
1.234999999999999987e-02 -1.129319425672292709e-03
1.250000000000000069e-02 -1.169814961031079292e-03
1.264999999999999979e-02 -1.211155089549720287e-03
1.280000000000000061e-02 -1.253326772712171078e-03
1.294999999999999971e-02 -1.296311384066939354e-03
1.310000000000000053e-02 -1.340086804702877998e-03
1.324999999999999963e-02 -1.384632079862058163e-03
1.340000000000000045e-02 -1.429927651770412922e-03
1.354999999999999954e-02 -1.475949771702289581e-03
1.370000000000000037e-02 -1.522667589597404003e-03
1.384999999999999946e-02 -1.570047461427748203e-03
1.400000000000000029e-02 -1.618056790903210640e-03
1.414999999999999938e-02 -1.666664262302219868e-03
1.430000000000000021e-02 -1.715833088383078575e-03
1.444999999999999930e-02 -1.765520311892032623e-03
1.460000000000000013e-02 -1.815679715946316719e-03
1.474999999999999922e-02 -1.866266247816383839e-03
1.490000000000000005e-02 -1.917234854772686958e-03
1.504999999999999914e-02 -1.968535594642162323e-03
1.519999999999999997e-02 -2.020112704485654831e-03
1.535000000000000080e-02 -2.071907976642251015e-03
1.549999999999999989e-02 -2.123864367604255676e-03
1.565000000000000072e-02 -2.175922738388180733e-03
1.580000000000000154e-02 -2.228019991889595985e-03
1.594999999999999890e-02 -2.280088607221841812e-03
1.609999999999999973e-02 -2.332059200853109360e-03
1.625000000000000056e-02 -2.383862389251589775e-03
1.640000000000000138e-02 -2.435426693409681320e-03
1.654999999999999874e-02 -2.486676909029483795e-03
1.669999999999999957e-02 -2.537534805014729500e-03
1.685000000000000039e-02 -2.587921218946576118e-03
1.700000000000000122e-02 -2.637755358591675758e-03
1.714999999999999858e-02 -2.686954569071531296e-03
1.729999999999999941e-02 -2.735433634370565414e-03
1.745000000000000023e-02 -2.783106639981269836e-03
1.760000000000000106e-02 -2.829886507242918015e-03
1.774999999999999842e-02 -2.875683829188346863e-03
1.789999999999999925e-02 -2.920406870543956757e-03
1.805000000000000007e-02 -2.963964361697435379e-03
1.820000000000000090e-02 -3.006265964359045029e-03
1.835000000000000173e-02 -3.047219943255186081e-03
1.849999999999999908e-02 -3.086732001975178719e-03
1.864999999999999991e-02 -3.124706214293837547e-03
1.880000000000000074e-02 -3.161048516631126404e-03
1.895000000000000157e-02 -3.195667639374732971e-03
1.909999999999999892e-02 -3.228471614420413971e-03
1.924999999999999975e-02 -3.259365912526845932e-03
1.940000000000000058e-02 -3.288255073130130768e-03
1.955000000000000140e-02 -3.315048292279243469e-03
1.969999999999999876e-02 -3.339656861498951912e-03
1.984999999999999959e-02 -3.361992072314023972e-03
2.000000000000000042e-02 -3.381964284926652908e-03
2.015000000000000124e-02 -3.399485256522893906e-03
2.029999999999999860e-02 -3.414471400901675224e-03
2.044999999999999943e-02 -3.426842391490936279e-03
2.060000000000000026e-02 -3.436518367379903793e-03
2.075000000000000108e-02 -3.443419933319091797e-03
2.089999999999999844e-02 -3.447471885010600090e-03
2.104999999999999927e-02 -3.448603907600045204e-03
2.120000000000000009e-02 -3.446747781708836555e-03
2.135000000000000092e-02 -3.441837849095463753e-03
2.149999999999999828e-02 -3.433811943978071213e-03
2.164999999999999911e-02 -3.422612324357032776e-03
2.179999999999999993e-02 -3.408185904845595360e-03
2.195000000000000076e-02 -3.390481695532798767e-03
2.210000000000000159e-02 -3.369454294443130493e-03
2.224999999999999895e-02 -3.345062956213951111e-03
2.239999999999999977e-02 -3.317271824926137924e-03
2.255000000000000060e-02 -3.286048769950866699e-03
2.270000000000000143e-02 -3.251365153118968010e-03
2.284999999999999878e-02 -3.213199088349938393e-03
2.299999999999999961e-02 -3.171535674482584000e-03
2.315000000000000044e-02 -3.126364434137940407e-03
2.330000000000000127e-02 -3.077677916735410690e-03
2.344999999999999862e-02 -3.025472862645983696e-03
2.359999999999999945e-02 -2.969754626974463463e-03
2.375000000000000028e-02 -2.910535084083676338e-03
2.390000000000000110e-02 -2.847830299288034439e-03
2.404999999999999846e-02 -2.781660063192248344e-03
2.419999999999999929e-02 -2.712049055844545364e-03
2.435000000000000012e-02 -2.639029640704393387e-03
2.450000000000000094e-02 -2.562641166150569916e-03
2.464999999999999830e-02 -2.482926240190863609e-03
2.479999999999999913e-02 -2.399932127445936203e-03
2.494999999999999996e-02 -2.313711913302540779e-03
2.510000000000000078e-02 -2.224324969574809074e-03
2.525000000000000161e-02 -2.131835324689745903e-03
2.539999999999999897e-02 -2.036311663687229156e-03
2.554999999999999979e-02 -1.937827211804687977e-03
2.570000000000000062e-02 -1.836460665799677372e-03
2.585000000000000145e-02 -1.732295146211981773e-03
2.599999999999999881e-02 -1.625416916795074940e-03
2.614999999999999963e-02 -1.515916548669338226e-03
2.630000000000000046e-02 -1.403890084475278854e-03
2.645000000000000129e-02 -1.289437524974346161e-03
2.659999999999999865e-02 -1.172660733573138714e-03
2.674999999999999947e-02 -1.053663669154047966e-03
2.690000000000000030e-02 -9.325552964583039284e-04
2.705000000000000113e-02 -8.094487129710614681e-04
2.719999999999999848e-02 -6.844586459919810295e-04
2.734999999999999931e-02 -5.576997064054012299e-04
2.750000000000000014e-02 -4.292882804293185472e-04
2.765000000000000097e-02 -2.993447415065020323e-04
2.779999999999999832e-02 -1.679920969763770700e-04
2.794999999999999915e-02 -3.535300129442475736e-05
2.809999999999999998e-02 9.845088789006695151e-05
2.825000000000000080e-02 2.332969597773626447e-04
2.840000000000000163e-02 3.690608427859842777e-04
2.854999999999999899e-02 5.056184018030762672e-04
2.869999999999999982e-02 6.428470951505005360e-04
2.885000000000000064e-02 7.806252688169479370e-04
2.900000000000000147e-02 9.188313269987702370e-04
2.914999999999999883e-02 1.057344488799571991e-03
2.929999999999999966e-02 1.196046359837055206e-03
2.945000000000000048e-02 1.334820524789392948e-03
2.960000000000000131e-02 1.473551499657332897e-03
2.974999999999999867e-02 1.612125779502093792e-03
2.989999999999999949e-02 1.750434166751801968e-03
3.005000000000000032e-02 1.888371421955525875e-03
3.020000000000000115e-02 2.025833819061517715e-03
3.034999999999999851e-02 2.162718679755926132e-03
3.049999999999999933e-02 2.298926934599876404e-03
3.065000000000000016e-02 2.434365451335906982e-03
3.080000000000000099e-02 2.568945754319429398e-03
3.094999999999999835e-02 2.702580532059073448e-03
3.109999999999999917e-02 2.835186431184411049e-03
3.125000000000000000e-02 2.966684754937887192e-03
3.139999999999999736e-02 3.097002860158681870e-03
3.155000000000000165e-02 3.226071596145629883e-03
3.169999999999999901e-02 3.353823907673358917e-03
3.185000000000000331e-02 3.480196930468082428e-03
3.200000000000000067e-02 3.605133155360817909e-03
3.214999999999999802e-02 3.728580195456743240e-03
3.230000000000000232e-02 3.850489854812622070e-03
3.244999999999999968e-02 3.970817662775516510e-03
3.259999999999999704e-02 4.089524969458580017e-03
3.275000000000000133e-02 4.206575918942689896e-03
3.289999999999999869e-02 4.321937914937734604e-03
3.305000000000000299e-02 4.435580223798751831e-03
3.320000000000000034e-02 4.547477699816226959e-03
3.334999999999999770e-02 4.657609853893518448e-03
3.350000000000000200e-02 4.765960387885570526e-03
3.364999999999999936e-02 4.872512537986040115e-03
3.379999999999999671e-02 4.977255128324031830e-03
3.395000000000000101e-02 5.080180708318948746e-03
3.409999999999999837e-02 5.181284621357917786e-03
3.425000000000000266e-02 5.280561279505491257e-03
3.440000000000000002e-02 5.378006026148796082e-03
3.454999999999999738e-02 5.473616532981395721e-03
3.470000000000000168e-02 5.567395128309726715e-03
3.484999999999999903e-02 5.659345537424087524e-03
3.500000000000000333e-02 5.749470554292201996e-03
3.515000000000000069e-02 5.837773438543081284e-03
3.529999999999999805e-02 5.924258381128311157e-03
3.545000000000000234e-02 6.008929572999477386e-03
3.559999999999999970e-02 6.091788876801729202e-03
3.574999999999999706e-02 6.172836292535066605e-03
3.590000000000000135e-02 6.252075079828500748e-03
3.604999999999999871e-02 6.329505238682031631e-03
3.620000000000000301e-02 6.405126769095659256e-03
3.635000000000000037e-02 6.478935945779085159e-03
3.649999999999999772e-02 6.550928112119436264e-03
3.665000000000000202e-02 6.621097214519977570e-03
3.679999999999999938e-02 6.689431611448526382e-03
3.694999999999999674e-02 6.755916401743888855e-03
3.710000000000000103e-02 6.820532958954572678e-03
3.724999999999999839e-02 6.883262190967798233e-03
3.740000000000000269e-02 6.944082677364349365e-03
3.755000000000000004e-02 7.002968341112136841e-03
3.769999999999999740e-02 7.059887051582336426e-03
3.785000000000000170e-02 7.114802952855825424e-03
3.799999999999999906e-02 7.167676929384469986e-03
3.815000000000000335e-02 7.218464277684688568e-03
3.830000000000000071e-02 7.267115171998739243e-03
3.844999999999999807e-02 7.313576526939868927e-03
3.860000000000000236e-02 7.357791997492313385e-03
3.874999999999999972e-02 7.399699185043573380e-03
3.889999999999999708e-02 7.439232431352138519e-03
3.905000000000000138e-02 7.476320490241050720e-03
3.919999999999999873e-02 7.510888390243053436e-03
3.935000000000000303e-02 7.542855106294155121e-03
3.950000000000000039e-02 7.572135422378778458e-03
3.964999999999999775e-02 7.598640397191047668e-03
3.980000000000000204e-02 7.622277829796075821e-03
3.994999999999999940e-02 7.642953656613826752e-03
4.009999999999999676e-02 7.660568691790103912e-03
4.025000000000000105e-02 7.675018627196550369e-03
4.039999999999999841e-02 7.686196360737085342e-03
4.055000000000000271e-02 7.693992927670478821e-03
4.070000000000000007e-02 7.698298431932926178e-03
4.084999999999999742e-02 7.698998786509037018e-03
4.100000000000000172e-02 7.695978507399559021e-03
4.114999999999999908e-02 7.689122576266527176e-03
4.130000000000000338e-02 7.678313646465539932e-03
4.145000000000000073e-02 7.663433905690908432e-03
4.159999999999999809e-02 7.644364144653081894e-03
4.175000000000000239e-02 7.620986085385084152e-03
4.189999999999999974e-02 7.593183312565088272e-03
4.204999999999999710e-02 7.560840342193841934e-03
4.220000000000000140e-02 7.523843087255954742e-03
4.234999999999999876e-02 7.482079789042472839e-03
4.250000000000000305e-02 7.435442879796028137e-03
4.265000000000000041e-02 7.383827585726976395e-03
4.279999999999999777e-02 7.327130064368247986e-03
4.295000000000000207e-02 7.265250198543071747e-03
4.309999999999999942e-02 7.198095787316560745e-03
4.324999999999999678e-02 7.125582080334424973e-03
4.340000000000000108e-02 7.047627121210098267e-03
4.354999999999999843e-02 6.964155938476324081e-03
4.370000000000000273e-02 6.875098682940006256e-03
4.385000000000000009e-02 6.780394818633794785e-03
4.399999999999999745e-02 6.679990328848361969e-03
4.415000000000000174e-02 6.573838181793689728e-03
4.429999999999999910e-02 6.461901124566793442e-03
4.445000000000000340e-02 6.344152614474296570e-03
4.460000000000000075e-02 6.220574025064706802e-03
4.474999999999999811e-02 6.091157440096139908e-03
4.490000000000000241e-02 5.955904722213745117e-03
4.504999999999999977e-02 5.814827512949705124e-03
4.519999999999999712e-02 5.667948164045810699e-03
4.535000000000000142e-02 5.515300203114748001e-03
4.549999999999999878e-02 5.356927402317523956e-03
4.565000000000000308e-02 5.192886106669902802e-03
4.580000000000000043e-02 5.023246631026268005e-03
4.594999999999999779e-02 4.848090000450611115e-03
4.610000000000000209e-02 4.667507018893957138e-03
4.624999999999999944e-02 4.481599666178226471e-03
4.639999999999999680e-02 4.290484357625246048e-03
4.655000000000000110e-02 4.094289150089025497e-03
4.669999999999999846e-02 3.893154207617044449e-03
4.685000000000000275e-02 3.687231568619608879e-03
4.700000000000000011e-02 3.476685611531138420e-03
4.714999999999999747e-02 3.261691657826304436e-03
4.730000000000000177e-02 3.042435273528099060e-03
4.744999999999999912e-02 2.819113433361053467e-03
4.760000000000000342e-02 2.591934986412525177e-03
4.775000000000000078e-02 2.361120656132698059e-03
4.789999999999999813e-02 2.126900479197502136e-03