-1.200000e-01 0.000000e+00
-1.190000e-01 0.000000e+00
-1.180000e-01 0.000000e+00
-1.170000e-01 0.000000e+00
-1.160000e-01 0.000000e+00
-1.150000e-01 0.000000e+00
-1.140000e-01 0.000000e+00
-1.130000e-01 0.000000e+00
-1.120000e-01 0.000000e+00
-1.110000e-01 0.000000e+00
-1.100000e-01 0.000000e+00
-1.090000e-01 0.000000e+00
-1.080000e-01 0.000000e+00
-1.070000e-01 0.000000e+00
-1.060000e-01 0.000000e+00
-1.050000e-01 0.000000e+00
-1.040000e-01 0.000000e+00
-1.030000e-01 0.000000e+00
-1.020000e-01 0.000000e+00
-1.010000e-01 0.000000e+00
-1.000000e-01 0.000000e+00
-9.900001e-02 0.000000e+00
-9.800000e-02 5.184804e-44
-9.700000e-02 4.736389e-43
-9.600000e-02 1.652131e-42
-9.500001e-02 -3.410760e-42
-9.400000e-02 -6.004564e-41
-9.300000e-02 -2.530325e-40
-9.200001e-02 -2.246506e-40
-9.100001e-02 2.774874e-39
-9.000000e-02 1.558010e-38
-8.900000e-02 3.449922e-38
-8.800000e-02 -2.254244e-38
-8.700000e-02 -4.191154e-37
-8.600000e-02 -1.395809e-36
-8.500001e-02 -1.757356e-36
-8.400001e-02 4.092232e-36
-8.300000e-02 2.602520e-35
-8.200000e-02 6.006248e-35
-8.100000e-02 3.733348e-35
-8.000000e-02 -2.217200e-34
-7.900000e-02 -8.748556e-34
-7.800000e-02 -1.485340e-33
-7.700001e-02 -1.296366e-34
-7.600001e-02 6.396281e-33
-7.500000e-02 1.834533e-32
-7.400000e-02 2.340418e-32
-7.300000e-02 -1.041220e-32
-7.200000e-02 -1.163361e-31
-7.100000e-02 -2.606591e-31
-7.000001e-02 -2.487962e-31
-6.900001e-02 2.630855e-31
-6.800000e-02 1.445052e-30
-6.700000e-02 2.625284e-30
-6.600000e-02 1.813842e-30
-6.500000e-02 -3.393076e-30
-6.400000e-02 -1.264295e-29
-6.300000e-02 -1.885468e-29
-6.200000e-02 -8.570506e-30
-6.100000e-02 2.746610e-29
-6.000000e-02 7.542533e-29
-5.900000e-02 8.907444e-29
-5.800000e-02 1.687531e-29
-5.700000e-02 -1.309352e-28
-5.600000e-02 -2.335355e-28
-5.500000e-02 -1.358523e-28
-5.400001e-02 1.129165e-28
-5.300000e-02 6.386726e-29
-5.200000e-02 -8.322203e-28
-5.100000e-02 -2.161617e-27
-5.000000e-02 -1.416517e-27
-4.900000e-02 5.202753e-27
-4.800000e-02 1.808560e-26
-4.700000e-02 2.701180e-26
-4.600000e-02 9.161978e-27
-4.500000e-02 -5.623445e-26
-4.400000e-02 -1.533326e-25
-4.300000e-02 -1.962929e-25
-4.200000e-02 -4.566060e-26
-4.100000e-02 3.805942e-25
-4.000000e-02 9.251583e-25
-3.900000e-02 1.083647e-24
-3.800000e-02 1.944832e-25
-3.700000e-02 -1.962593e-24
-3.600000e-02 -4.420344e-24
-3.500000e-02 -4.843750e-24
-3.400000e-02 -7.021635e-25
-3.300000e-02 8.188837e-24
-3.200000e-02 1.726506e-23
-3.100000e-02 1.769591e-23
-3.000000e-02 1.775514e-24
-2.900000e-02 -2.834012e-23
-2.800000e-02 -5.501731e-23
-2.700000e-02 -5.100314e-23
-2.600000e-02 5.585829e-25
-2.500000e-02 8.228022e-23
-2.400000e-02 1.369889e-22
-2.300000e-02 9.934483e-23
-2.200000e-02 -4.279310e-23
-2.100000e-02 -2.023265e-22
-2.000000e-02 -2.232356e-22
-1.900000e-02 -8.455882e-24
-1.800000e-02 3.269212e-22
-1.700000e-02 4.327265e-22
-1.600000e-02 -4.091222e-23
-1.500000e-02 -1.014855e-21
-1.400000e-02 -1.694843e-21
-1.300000e-02 -8.731435e-22
-1.200000e-02 2.034093e-21
-1.100000e-02 5.757168e-21
-9.999998e-03 6.934570e-21
-8.999996e-03 1.919175e-21
-8.000001e-03 -9.653415e-21
-6.999999e-03 -2.184805e-20
-5.999997e-03 -2.342172e-20
-5.000003e-03 -4.755452e-21
-4.000001e-03 3.183991e-20
-2.999999e-03 6.603149e-20
-1.999997e-03 6.614724e-20
-1.000002e-03 1.058958e-20
0.000000e+00 -8.666066e-20
1.000002e-03 -1.673580e-19
2.000004e-03 -1.548786e-19
2.999999e-03 -1.096909e-20
4.000001e-03 2.105871e-19
4.999995e-03 3.631783e-19
5.999997e-03 2.881054e-19
6.999999e-03 -5.315457e-20
8.000001e-03 -4.874025e-19
9.000003e-03 -6.815883e-19
1.000001e-02 -3.629903e-19
1.100001e-02 4.076623e-19
1.199999e-02 1.131549e-18
1.300000e-02 1.114500e-18
1.400000e-02 8.860345e-21
1.500000e-02 -1.690746e-18
1.600000e-02 -2.673877e-18
1.700000e-02 -1.602531e-18
1.800001e-02 1.670399e-18
1.900001e-02 5.338246e-18
2.000000e-02 6.249514e-18
2.100000e-02 2.031321e-18
2.200000e-02 -6.404278e-18
2.300000e-02 -1.398704e-17
2.400000e-02 -1.379789e-17
2.500001e-02 -2.077135e-18
2.600001e-02 1.709923e-17
2.700000e-02 3.159686e-17
2.800000e-02 2.763072e-17
2.900000e-02 3.420293e-19
3.000000e-02 -3.845938e-17
3.100000e-02 -6.296180e-17
3.200001e-02 -4.848421e-17
3.300001e-02 8.322774e-18
3.400001e-02 7.868329e-17
3.500000e-02 1.126804e-16
3.600000e-02 7.130374e-17
3.700000e-02 -3.858108e-17
3.800000e-02 -1.535373e-16
3.900000e-02 -1.844931e-16
4.000001e-02 -7.912090e-17
4.100001e-02 1.236117e-16
4.200000e-02 2.934487e-16
4.300000e-02 2.822951e-16
4.400000e-02 3.721423e-17
4.500000e-02 -3.244189e-16
4.600000e-02 -5.508672e-16
4.700001e-02 -4.118581e-16
4.800001e-02 1.100268e-16
4.900001e-02 7.331466e-16
5.000000e-02 9.991170e-16
5.100000e-02 5.752360e-16
5.200000e-02 -4.429671e-16
5.300000e-02 -1.466555e-15
5.400001e-02 -1.711501e-15
5.500001e-02 -7.418867e-16
5.600001e-02 1.087552e-15
5.700000e-02 2.661421e-15
5.800000e-02 2.724110e-15
5.900000e-02 7.891230e-16
6.000000e-02 -2.272491e-15
6.100000e-02 -4.502642e-15
6.200001e-02 -4.020790e-15
6.300001e-02 -4.497762e-16
6.400001e-02 4.398569e-15
6.500000e-02 7.288778e-15
6.600000e-02 5.586005e-15
6.700000e-02 -6.444853e-16
6.800000e-02 -8.002607e-15
6.900001e-02 -1.141822e-14
7.000001e-02 -7.449757e-15
7.100001e-02 2.818124e-15
7.200000e-02 1.349947e-14
7.300000e-02 1.706515e-14
7.400000e-02 9.410695e-15
7.500000e-02 -6.432368e-15
7.600001e-02 -2.094172e-14
7.700001e-02 -2.358326e-14
7.800001e-02 -1.018000e-14
7.900001e-02 1.277705e-14
8.000000e-02 3.064426e-14
8.100000e-02 2.956320e-14
8.200000e-02 6.668365e-15
8.300000e-02 -2.557441e-14
8.400001e-02 -4.525687e-14
8.500001e-02 -3.499806e-14
8.600001e-02 4.426513e-15
8.700001e-02 5.069259e-14
8.800000e-02 7.133298e-14
8.900000e-02 4.483960e-14
9.000000e-02 -2.156924e-14
9.100001e-02 -9.077106e-14
9.200001e-02 -1.153054e-13
9.300001e-02 -6.808987e-14
9.400001e-02 3.489488e-14
9.500000e-02 1.371042e-13
9.600000e-02 1.719685e-13
9.700000e-02 1.055658e-13
9.800000e-02 -3.548610e-14
9.900001e-02 -1.722070e-13
1.000000e-01 -2.176751e-13
1.010000e-01 -1.332851e-13
1.020000e-01 3.932569e-14
1.030000e-01 1.957610e-13
1.040000e-01 2.309977e-13
1.050000e-01 1.103645e-13
1.060000e-01 -9.766222e-14
1.070000e-01 -2.547053e-13
1.080000e-01 -2.386360e-13
1.090000e-01 -3.140397e-14
1.100000e-01 2.514780e-13
1.110000e-01 4.190200e-13
1.120000e-01 3.243537e-13
1.130000e-01 -2.607967e-14
1.140000e-01 -4.496273e-13
1.150000e-01 -6.799125e-13
1.160000e-01 -5.304548e-13
1.170000e-01 -3.075817e-14
1.180000e-01 5.599601e-13
1.190000e-01 8.883876e-13
1.200000e-01 7.235389e-13
1.210000e-01 1.221310e-13
1.220000e-01 -5.733118e-13
1.230000e-01 -9.248061e-13
1.240000e-01 -6.767364e-13
1.250000e-01 5.154622e-14
1.260000e-01 7.979355e-13
1.270000e-01 1.023948e-12
1.280000e-01 4.705009e-13
1.290000e-01 -6.210132e-13
1.300000e-01 -1.588583e-12
1.310000e-01 -1.721433e-12
1.320000e-01 -7.221138e-13
1.330000e-01 1.029388e-12
1.340000e-01 2.607813e-12
1.350000e-01 3.039477e-12
1.360000e-01 1.894402e-12
1.370000e-01 -3.883343e-13
1.380000e-01 -2.675115e-12
1.390000e-01 -3.752942e-12
1.400000e-01 -3.041138e-12
1.410000e-01 -9.623396e-13
1.420000e-01 1.286043e-12
1.430000e-01 2.456737e-12
1.440000e-01 2.041818e-12
1.450000e-01 6.153637e-13
1.460000e-01 -5.330185e-13
1.470000e-01 -2.900995e-13
1.480000e-01 1.418869e-12
1.490000e-01 3.397034e-12
1.500000e-01 3.820839e-12
1.510000e-01 1.452704e-12
1.520000e-01 -3.314063e-12
1.530000e-01 -8.309424e-12
1.540000e-01 -1.058706e-11
1.550000e-01 -8.109577e-12
1.560000e-01 -1.153831e-12
1.570000e-01 7.479315e-12
1.580000e-01 1.373191e-11
1.590000e-01 1.443143e-11
1.600000e-01 9.107546e-12
1.610000e-01 3.695239e-13
1.620000e-01 -7.482511e-12
1.630000e-01 -1.088163e-11
1.640000e-01 -9.033312e-12
1.650000e-01 -4.294783e-12
1.660000e-01 -5.764087e-13
1.670000e-01 -6.810316e-13
1.680000e-01 -4.246785e-12
1.690000e-01 -7.706467e-12
1.700000e-01 -6.492019e-12
1.710000e-01 1.731548e-12
1.720000e-01 1.482385e-11
1.730000e-01 2.653045e-11
1.740000e-01 2.957770e-11
1.750000e-01 1.991255e-11
1.760000e-01 -3.941292e-13
1.770000e-01 -2.349053e-11
1.780000e-01 -3.943459e-11
1.790000e-01 -4.131139e-11
1.800000e-01 -2.886181e-11
1.810000e-01 -8.437785e-12
1.820000e-01 1.077626e-11
1.830000e-01 2.204925e-11
1.840000e-01 2.464700e-11
1.850000e-01 2.335993e-11
1.860000e-01 2.423463e-11
1.870000e-01 2.925744e-11
1.880000e-01 3.367020e-11
1.890000e-01 2.819134e-11
1.900000e-01 5.353490e-12
1.910000e-01 -3.372897e-11
1.920000e-01 -7.670095e-11
1.930000e-01 -1.039863e-10
1.940000e-01 -9.820504e-11
1.950000e-01 -5.418154e-11
1.960000e-01 1.624063e-11
1.970000e-01 8.794140e-11
1.980000e-01 1.335413e-10
1.990000e-01 1.361516e-10
2.000000e-01 9.702909e-11
2.010000e-01 3.394493e-11
2.020000e-01 -2.872762e-11
2.030000e-01 -7.244302e-11
2.040000e-01 -9.223551e-11
2.050000e-01 -9.549107e-11
2.060000e-01 -9.303712e-11
2.070000e-01 -8.877646e-11
2.080000e-01 -7.520952e-11
2.090000e-01 -3.856750e-11
2.100000e-01 2.905319e-11
2.110000e-01 1.183327e-10
2.120000e-01 2.004835e-10
2.130000e-01 2.376289e-10
2.140000e-01 2.016597e-10
2.150000e-01 9.150336e-11
2.160000e-01 -6.158626e-11
2.170000e-01 -2.051641e-10
2.180000e-01 -2.884453e-10
2.190000e-01 -2.851359e-10
2.200000e-01 -2.040000e-10
2.210000e-01 -8.152329e-11
2.220000e-01 3.878250e-11
2.230000e-01 1.281641e-10
2.240000e-01 1.827570e-10
2.250000e-01 2.165841e-10
2.260000e-01 2.428996e-10
2.270000e-01 2.570275e-10
2.280000e-01 2.336177e-10
2.290000e-01 1.421783e-10
2.300000e-01 -2.719647e-11
2.310000e-01 -2.442025e-10
2.320000e-01 -4.395620e-10
2.330000e-01 -5.306980e-10
2.340000e-01 -4.608533e-10
2.350000e-01 -2.312441e-10
2.360000e-01 9.242496e-11
2.370000e-01 4.046662e-10
2.380000e-01 6.049417e-10
2.390000e-01 6.396702e-10
2.400000e-01 5.202716e-10
2.410000e-01 3.086137e-10
2.420000e-01 8.045198e-11
2.430000e-01 -1.111622e-10
2.440000e-01 -2.518024e-10
2.450000e-01 -3.530360e-10
2.460000e-01 -4.241908e-10
2.470000e-01 -4.473170e-10
2.480000e-01 -3.782889e-10
2.490000e-01 -1.753182e-10
2.500000e-01 1.608074e-10
2.510000e-01 5.621269e-10
2.520000e-01 9.044929e-10
2.530000e-01 1.053808e-09
2.540000e-01 9.306060e-10
2.550000e-01 5.543171e-10
2.560000e-01 4.536593e-11
2.570000e-01 -4.256289e-10
2.580000e-01 -7.146337e-10
2.590000e-01 -7.595841e-10
2.600000e-01 -5.988163e-10
2.610000e-01 -3.315439e-10
2.620000e-01 -6.395132e-11
2.630000e-01 1.391613e-10
2.640000e-01 2.818032e-10
2.650000e-01 4.081711e-10
2.660000e-01 5.327415e-10
2.670000e-01 6.128078e-10
2.680000e-01 5.600432e-10
2.690000e-01 2.940760e-10
2.700000e-01 -1.925293e-10
2.710000e-01 -8.067039e-10
2.720000e-01 -1.368931e-09
2.730000e-01 -1.682881e-09
2.740000e-01 -1.638425e-09
2.750000e-01 -1.265165e-09
2.760000e-01 -7.279795e-10
2.770000e-01 -2.368097e-10
2.780000e-01 2.364353e-11
2.790000e-01 -1.423395e-11
2.800000e-01 -2.750251e-10
2.810000e-01 -6.203495e-10
2.820000e-01 -9.306613e-10
2.830000e-01 -1.118815e-09
2.840000e-01 -1.245115e-09
2.850000e-01 -1.391025e-09
2.860000e-01 -1.548589e-09
2.870000e-01 -1.655189e-09
2.880000e-01 -1.623624e-09
2.890000e-01 -1.387389e-09
2.900000e-01 -8.816166e-10
2.910000e-01 -1.566329e-10
2.920000e-01 5.748237e-10
2.930000e-01 9.995000e-10
2.940000e-01 9.875123e-10
2.950000e-01 6.476646e-10
2.960000e-01 2.309708e-10
2.970000e-01 2.216760e-11
2.980000e-01 1.260099e-10
2.990000e-01 5.566703e-10
3.000000e-01 1.255033e-09
3.010000e-01 1.947814e-09
3.020000e-01 2.434920e-09
3.030000e-01 2.699107e-09
3.040000e-01 2.837612e-09
3.050000e-01 2.945650e-09
3.060000e-01 3.194260e-09
3.070000e-01 3.500628e-09
3.080000e-01 3.618983e-09
3.090000e-01 3.505618e-09
3.100000e-01 3.097735e-09
3.110000e-01 2.540476e-09
3.120000e-01 2.089362e-09
3.130000e-01 1.931322e-09
3.140000e-01 2.185476e-09
3.150000e-01 2.605998e-09
3.160000e-01 2.977417e-09
3.170000e-01 3.028376e-09
3.180000e-01 2.609557e-09
3.190000e-01 1.743906e-09
3.200000e-01 6.169394e-10
3.210000e-01 -4.599769e-10
3.220000e-01 -1.225237e-09
3.230000e-01 -1.639098e-09
3.240000e-01 -1.875117e-09
3.250000e-01 -2.176117e-09
3.260000e-01 -2.578854e-09
3.270000e-01 -3.003401e-09
3.280000e-01 -3.305796e-09
3.290000e-01 -3.460311e-09
3.300000e-01 -3.389628e-09
3.310000e-01 -3.187243e-09
3.320000e-01 -2.990192e-09
3.330000e-01 -3.053172e-09
3.340000e-01 -3.520070e-09
3.350000e-01 -4.284227e-09
3.360000e-01 -5.013248e-09
3.370000e-01 -5.219245e-09
3.380000e-01 -4.815314e-09
3.390000e-01 -3.991724e-09
3.400000e-01 -3.091341e-09
3.410000e-01 -2.358492e-09
3.420000e-01 -1.815168e-09
3.430000e-01 -1.387562e-09
3.440000e-01 -1.024127e-09
3.450000e-01 -5.818652e-10
3.460000e-01 -1.822009e-11
3.470000e-01 6.540937e-10
3.480000e-01 1.248722e-09
3.490000e-01 1.513461e-09
3.500000e-01 1.414437e-09
3.510000e-01 1.252286e-09
3.520000e-01 1.250623e-09
3.530000e-01 1.473943e-09
3.540000e-01 1.884616e-09
3.550000e-01 2.417675e-09
3.560000e-01 2.960921e-09
3.570000e-01 3.359401e-09
3.580000e-01 3.404694e-09
3.590000e-01 3.073945e-09
3.600000e-01 2.547665e-09
3.610000e-01 2.265612e-09
3.620000e-01 2.318957e-09
3.630000e-01 2.448587e-09
3.640000e-01 2.391884e-09
3.650000e-01 2.137613e-09
3.660000e-01 1.729801e-09
3.670000e-01 1.181276e-09
3.680000e-01 4.819185e-10
3.690000e-01 -9.714540e-11
3.700000e-01 -2.512364e-10
3.710000e-01 -3.798917e-11
3.720000e-01 1.361231e-10
3.730000e-01 -7.124523e-11
3.740000e-01 -5.530749e-10
3.750000e-01 -9.113266e-10
3.760000e-01 -9.808021e-10
3.770000e-01 -8.721424e-10
3.780000e-01 -7.256036e-10
3.790000e-01 -5.644050e-10
3.800000e-01 -4.068510e-10
3.810000e-01 -4.516618e-10
3.820000e-01 -8.198160e-10
3.830000e-01 -1.341251e-09
3.840000e-01 -1.628349e-09
3.850000e-01 -1.520691e-09
3.860000e-01 -1.222370e-09
3.870000e-01 -9.755288e-10
3.880000e-01 -7.823111e-10
3.890000e-01 -5.177379e-10
3.900000e-01 -2.225446e-10
3.910000e-01 -1.240542e-10
3.920000e-01 -2.589702e-10
3.930000e-01 -3.943937e-10
3.940000e-01 -3.072140e-10
3.950000e-01 -7.074002e-11
3.960000e-01 4.375456e-11
3.970000e-01 -3.799733e-11
3.980000e-01 -1.795057e-10
3.990000e-01 -2.387954e-10
4.000000e-01 -2.149233e-10
4.010000e-01 -1.689120e-10
4.020000e-01 -1.337397e-11
4.030000e-01 2.947441e-10
4.040000e-01 5.571567e-10
4.050000e-01 4.671543e-10
4.060000e-01 2.584022e-11
4.070000e-01 -4.428938e-10
4.080000e-01 -6.129615e-10
4.090000e-01 -4.915189e-10
4.100000e-01 -3.068290e-10
4.110000e-01 -1.830961e-10
4.120000e-01 -4.928125e-11
4.130000e-01 1.545810e-10
4.140000e-01 3.414473e-10
4.150000e-01 4.151075e-10
4.160000e-01 4.200172e-10
4.170000e-01 4.582227e-10
4.180000e-01 4.484815e-10
4.190000e-01 2.236247e-10
4.200000e-01 -1.815421e-10
4.210000e-01 -4.933789e-10
4.220001e-01 -4.990743e-10
4.230000e-01 -3.142959e-10
4.240000e-01 -2.013714e-10
4.250000e-01 -2.020599e-10
4.260000e-01 -1.120617e-10
4.270000e-01 1.515057e-10
4.280000e-01 4.114207e-10
4.290000e-01 4.724483e-10
4.300000e-01 3.960308e-10
4.310000e-01 3.849658e-10
4.320000e-01 4.764520e-10
4.330000e-01 5.117231e-10
4.340000e-01 3.932905e-10
4.350000e-01 2.187456e-10
4.360000e-01 8.080692e-11
4.370000e-01 -1.159963e-10
4.380000e-01 -4.889338e-10
4.390000e-01 -9.057221e-10
4.400000e-01 -1.082651e-09
4.410000e-01 -9.675368e-10
4.420000e-01 -8.667279e-10
4.430000e-01 -1.117444e-09
4.440000e-01 -1.724498e-09
4.450000e-01 -2.461609e-09
4.460000e-01 -3.244092e-09
4.470000e-01 -4.214972e-09
4.480000e-01 -5.474174e-09
4.490000e-01 -6.907124e-09
4.500000e-01 -8.385954e-09
4.510000e-01 -1.001417e-08
4.520000e-01 -1.200927e-08
4.530000e-01 -1.439178e-08
4.540000e-01 -1.698983e-08
4.550000e-01 -1.975810e-08
4.560000e-01 -2.292245e-08
4.570000e-01 -2.669370e-08
4.580000e-01 -3.098422e-08
4.590001e-01 -3.555252e-08
4.600000e-01 -4.037693e-08
4.610000e-01 -4.568430e-08
4.620000e-01 -5.158424e-08
4.630000e-01 -5.787317e-08
4.640000e-01 -6.430226e-08
4.650000e-01 -7.094075e-08
4.660000e-01 -7.807278e-08
4.670000e-01 -8.578972e-08
4.680000e-01 -9.385686e-08
4.690000e-01 -1.019869e-07
4.700000e-01 -1.100762e-07
4.710000e-01 -1.180339e-07
4.720000e-01 -1.255500e-07
4.730000e-01 -1.322149e-07
4.740000e-01 -1.378514e-07
4.750000e-01 -1.424931e-07
4.760000e-01 -1.459666e-07
4.770000e-01 -1.476658e-07
4.780000e-01 -1.468766e-07
4.790000e-01 -1.431746e-07
4.800000e-01 -1.363538e-07
4.810000e-01 -1.259937e-07
4.820001e-01 -1.113245e-07
4.830000e-01 -9.158566e-08
4.840000e-01 -6.634264e-08
4.850000e-01 -3.529522e-08
4.860000e-01 2.075922e-09
4.870000e-01 4.652179e-08
4.880000e-01 9.861333e-08
4.890000e-01 1.585822e-07
4.900000e-01 2.265574e-07
4.910000e-01 3.028340e-07
4.920000e-01 3.876198e-07
4.930000e-01 4.806852e-07
4.940000e-01 5.814445e-07
4.950000e-01 6.894561e-07
4.960001e-01 8.043926e-07
4.970000e-01 9.255455e-07
4.980000e-01 1.051314e-06
4.990000e-01 1.179655e-06
5.000000e-01 1.308590e-06
5.010000e-01 1.436374e-06
5.020000e-01 1.560818e-06
5.030000e-01 1.679280e-06
5.040000e-01 1.788660e-06
5.050000e-01 1.885950e-06
5.060000e-01 1.967685e-06
5.070000e-01 2.030003e-06
5.080000e-01 2.069173e-06
5.090000e-01 2.081455e-06
5.100001e-01 2.063476e-06
5.110000e-01 2.011970e-06
5.120000e-01 1.923392e-06
5.130000e-01 1.794542e-06
5.140000e-01 1.622371e-06
5.150000e-01 1.405169e-06
5.160000e-01 1.141918e-06
5.170000e-01 8.311763e-07
5.180000e-01 4.726608e-07
5.190001e-01 6.686605e-08
5.200000e-01 -3.841560e-07
5.210000e-01 -8.773641e-07
5.220000e-01 -1.409106e-06
5.230000e-01 -1.974709e-06
5.240000e-01 -2.568398e-06
5.250000e-01 -3.182693e-06
5.260000e-01 -3.809255e-06
5.270000e-01 -4.438785e-06
5.280000e-01 -5.062073e-06
5.290000e-01 -5.666749e-06
5.300000e-01 -6.241607e-06
5.310000e-01 -6.775459e-06
5.320000e-01 -7.257113e-06
5.330001e-01 -7.673923e-06
5.340000e-01 -8.012663e-06
5.350000e-01 -8.261224e-06
5.360000e-01 -8.409377e-06
5.370000e-01 -8.447125e-06
5.380000e-01 -8.366085e-06
5.390000e-01 -8.158124e-06
5.400000e-01 -7.818817e-06
5.410000e-01 -7.345443e-06
5.420001e-01 -6.735980e-06
5.430000e-01 -5.991329e-06
5.440000e-01 -5.114038e-06
5.450000e-01 -4.111644e-06
5.460000e-01 -2.994529e-06
5.470001e-01 -1.773180e-06
5.480000e-01 -4.599460e-07
5.490000e-01 9.297810e-07
5.500000e-01 2.375997e-06
5.510000e-01 3.857102e-06
5.520000e-01 5.351067e-06
5.530000e-01 6.836592e-06
5.540000e-01 8.289237e-06
5.550000e-01 9.682277e-06
5.560001e-01 1.099030e-05
5.570000e-01 1.219162e-05
5.580000e-01 1.326422e-05
5.590000e-01 1.418401e-05
5.600000e-01 1.492802e-05
5.610000e-01 1.547809e-05
5.620000e-01 1.582503e-05
5.630000e-01 1.595926e-05
5.640000e-01 1.586904e-05
5.650001e-01 1.554471e-05
5.660000e-01 1.498766e-05
5.670000e-01 1.420709e-05
5.680000e-01 1.321192e-05
5.690000e-01 1.200935e-05
5.700001e-01 1.061399e-05
5.710000e-01 9.048264e-06
5.720000e-01 7.335970e-06
5.730000e-01 5.502254e-06
5.740000e-01 3.570865e-06
5.750000e-01 1.574284e-06
5.760000e-01 -4.527392e-07
5.770000e-01 -2.476736e-06
5.780000e-01 -4.464993e-06
5.790001e-01 -6.389630e-06
5.800000e-01 -8.217408e-06
5.810000e-01 -9.915442e-06
5.820000e-01 -1.145637e-05
5.830000e-01 -1.281928e-05
5.840001e-01 -1.398308e-05
5.850000e-01 -1.492814e-05
5.860000e-01 -1.563979e-05
5.870000e-01 -1.610871e-05
5.880000e-01 -1.633081e-05
5.890000e-01 -1.630757e-05
5.900000e-01 -1.604315e-05
5.910000e-01 -1.554543e-05
5.920000e-01 -1.482540e-05
5.930001e-01 -1.389963e-05
5.940000e-01 -1.278988e-05
5.950000e-01 -1.151764e-05
5.960000e-01 -1.010959e-05
5.970000e-01 -8.592207e-06
5.980000e-01 -6.996095e-06
5.990000e-01 -5.350332e-06
6.000000e-01 -3.683817e-06
6.010000e-01 -2.024695e-06
6.020001e-01 -4.014000e-07
6.030000e-01 1.159351e-06
6.040000e-01 2.635468e-06
6.050000e-01 4.004454e-06
6.060000e-01 5.244277e-06
6.070001e-01 6.339047e-06
6.080000e-01 7.278519e-06
6.090000e-01 8.057104e-06
6.100000e-01 8.668168e-06
6.110000e-01 9.107520e-06
6.120000e-01 9.377574e-06
6.130000e-01 9.482668e-06
6.140000e-01 9.429496e-06
6.150000e-01 9.227457e-06
6.160001e-01 8.890493e-06
6.170000e-01 8.436706e-06
6.180000e-01 7.882569e-06
6.190000e-01 7.241819e-06
6.200000e-01 6.528629e-06
6.210001e-01 5.761394e-06
6.220000e-01 4.961272e-06
6.230000e-01 4.146757e-06
6.240000e-01 3.332272e-06
6.250001e-01 2.530011e-06
6.260000e-01 1.753797e-06
6.270000e-01 1.016946e-06
6.280000e-01 3.290625e-07
6.290000e-01 -3.032692e-07
6.300001e-01 -8.731658e-07
6.310000e-01 -1.372602e-06
6.320000e-01 -1.798053e-06
6.330000e-01 -2.152367e-06
6.340000e-01 -2.439700e-06
6.350001e-01 -2.661499e-06
6.360000e-01 -2.816542e-06
6.370000e-01 -2.906783e-06
6.380000e-01 -2.940240e-06
6.390001e-01 -2.926103e-06
6.400000e-01 -2.869765e-06
6.410000e-01 -2.774330e-06
6.420000e-01 -2.645556e-06
6.430000e-01 -2.491823e-06
6.440001e-01 -2.320601e-06
6.450000e-01 -2.135919e-06
6.460000e-01 -1.941007e-06
6.470000e-01 -1.741413e-06
6.480000e-01 -1.543205e-06
6.490000e-01 -1.348664e-06
6.500000e-01 -1.157223e-06
6.510000e-01 -9.700088e-07
6.520000e-01 -7.919989e-07
6.530001e-01 -6.278242e-07
6.540000e-01 -4.772046e-07
6.550000e-01 -3.362074e-07
6.560000e-01 -2.034431e-07
6.570000e-01 -8.168718e-08
6.580001e-01 2.602246e-08
6.590000e-01 1.209228e-07
6.600000e-01 2.065608e-07
6.610000e-01 2.840097e-07
6.620001e-01 3.518035e-07
6.630000e-01 4.096109e-07
6.640000e-01 4.594986e-07
6.650000e-01 5.023248e-07
6.660000e-01 5.352922e-07
6.670001e-01 5.554866e-07
6.680000e-01 5.646871e-07
6.690000e-01 5.678321e-07
6.700000e-01 5.668844e-07
6.710000e-01 5.587244e-07
6.720001e-01 5.399088e-07
6.730000e-01 5.116945e-07
6.740000e-01 4.780777e-07
6.750000e-01 4.408648e-07
6.760001e-01 3.986515e-07
6.770000e-01 3.511104e-07
6.780000e-01 3.011028e-07
6.790000e-01 2.515644e-07
6.800000e-01 2.020970e-07
6.810001e-01 1.509761e-07
6.820000e-01 9.957967e-08
6.830000e-01 5.218317e-08
6.840000e-01 1.130138e-08
6.850001e-01 -2.470460e-08
6.860000e-01 -5.798302e-08
6.870000e-01 -8.707957e-08
6.880000e-01 -1.081398e-07
6.890000e-01 -1.200751e-07
6.900001e-01 -1.256476e-07
6.910000e-01 -1.273202e-07
6.920000e-01 -1.239596e-07
6.930000e-01 -1.136023e-07
6.940000e-01 -9.767518e-08
6.950001e-01 -8.020197e-08
6.960000e-01 -6.308073e-08
6.970000e-01 -4.466574e-08
6.980000e-01 -2.341267e-08
6.990001e-01 -1.437002e-09
7.000000e-01 1.778881e-08
7.010000e-01 3.346941e-08
7.020000e-01 4.724188e-08
7.030000e-01 5.919856e-08
7.040001e-01 6.669279e-08
7.050000e-01 6.802020e-08
7.060000e-01 6.528035e-08
7.070000e-01 6.182609e-08
7.080001e-01 5.781567e-08
7.090001e-01 5.049105e-08
7.100000e-01 3.876130e-08
7.110000e-01 2.532215e-08
7.120000e-01 1.324634e-08
7.130001e-01 2.406978e-09
7.140000e-01 -9.188170e-09
7.150000e-01 -2.144270e-08
7.160000e-01 -3.159494e-08
7.170000e-01 -3.772129e-08
7.180001e-01 -4.068875e-08
7.190000e-01 -4.175013e-08
7.200000e-01 -3.989794e-08
7.210000e-01 -3.329546e-08
7.220001e-01 -2.279558e-08
7.230000e-01 -1.172816e-08
7.240000e-01 -2.059323e-09
7.250000e-01 7.609287e-09
7.260000e-01 1.907597e-08
7.270001e-01 3.122864e-08
7.280000e-01 4.119715e-08
7.290000e-01 4.810113e-08
7.300000e-01 5.375114e-08
7.310000e-01 5.934908e-08
7.320001e-01 6.317714e-08
7.330000e-01 6.262303e-08
7.340000e-01 5.742004e-08
7.350000e-01 4.934645e-08
7.360001e-01 3.940295e-08
7.370000e-01 2.692764e-08
7.380000e-01 1.178341e-08
7.390000e-01 -4.440153e-09
7.400000e-01 -2.034994e-08
7.410001e-01 -3.667515e-08
7.420000e-01 -5.475158e-08
7.430000e-01 -7.333119e-08
7.440000e-01 -8.867210e-08
7.450001e-01 -9.823555e-08
7.460001e-01 -1.031549e-07
7.470000e-01 -1.062461e-07
7.480000e-01 -1.084659e-07
7.490000e-01 -1.084265e-07
7.500001e-01 -1.047827e-07
7.510000e-01 -9.759515e-08
7.520000e-01 -8.723396e-08
7.530000e-01 -7.347478e-08
7.540000e-01 -5.669312e-08
7.550001e-01 -3.891512e-08
7.560000e-01 -2.231070e-08
7.570000e-01 -6.751975e-09
7.580000e-01 9.691576e-09
7.590001e-01 2.765512e-08
7.600001e-01 4.489414e-08
7.610000e-01 5.837512e-08
7.620000e-01 6.729431e-08
7.630000e-01 7.301924e-08
7.640001e-01 7.670792e-08
7.650000e-01 7.819949e-08
7.660000e-01 7.726146e-08
7.670000e-01 7.450910e-08
7.680001e-01 7.030826e-08
7.690001e-01 6.382595e-08
7.700000e-01 5.418758e-08
7.710000e-01 4.232220e-08
7.720000e-01 3.046375e-08
7.730001e-01 1.975945e-08
7.740000e-01 9.513428e-09
7.750000e-01 -8.291181e-10
7.760000e-01 -9.956750e-09
7.770000e-01 -1.590763e-08
7.780001e-01 -1.843767e-08
7.790000e-01 -1.902657e-08
7.800000e-01 -1.868818e-08
7.810000e-01 -1.689619e-08
7.820001e-01 -1.304829e-08
7.830001e-01 -7.851327e-09
7.840000e-01 -2.343597e-09
7.850000e-01 3.670323e-09
7.860000e-01 1.098527e-08
7.870001e-01 1.896979e-08
7.880000e-01 2.558158e-08
7.890000e-01 2.978032e-08
7.900000e-01 3.282952e-08
7.910001e-01 3.631919e-08
7.920001e-01 3.959661e-08
7.930000e-01 4.037906e-08
7.940000e-01 3.754207e-08
7.950000e-01 3.201558e-08
7.960001e-01 2.477043e-08
7.970001e-01 1.531009e-08
7.980000e-01 3.094442e-09
7.990000e-01 -1.059459e-08
8.000000e-01 -2.366323e-08
8.010001e-01 -3.576463e-08
8.020000e-01 -4.826904e-08
8.030000e-01 -6.134252e-08
8.040000e-01 -7.256523e-08
8.050001e-01 -7.951195e-08
8.060001e-01 -8.275276e-08
8.070000e-01 -8.488763e-08
8.080000e-01 -8.697748e-08
8.090000e-01 -8.746372e-08
8.100001e-01 -8.483732e-08
8.110000e-01 -7.966310e-08
8.120000e-01 -7.295824e-08
8.130000e-01 -6.392418e-08
8.140000e-01 -5.107455e-08
8.150001e-01 -3.526790e-08
8.160000e-01 -1.961905e-08
8.170000e-01 -5.812126e-09
8.180000e-01 7.843084e-09
8.190001e-01 2.343802e-08
8.200001e-01 3.969693e-08
8.210000e-01 5.296404e-08
8.220000e-01 6.163656e-08
8.230000e-01 6.762589e-08
8.240001e-01 7.297345e-08
8.250000e-01 7.688310e-08
8.260000e-01 7.748358e-08
8.270000e-01 7.515612e-08
8.280001e-01 7.199637e-08
8.290001e-01 6.829768e-08
8.300000e-01 6.189961e-08
8.310000e-01 5.192499e-08
8.320000e-01 4.120204e-08
8.330001e-01 3.314724e-08
8.340001e-01 2.728211e-08
8.350000e-01 2.011305e-08
8.360000e-01 1.031606e-08
8.370000e-01 7.744916e-10
8.380001e-01 -5.442473e-09
8.390000e-01 -9.071442e-09
8.400000e-01 -1.277624e-08
8.410000e-01 -1.656099e-08
8.420001e-01 -1.763010e-08
8.430001e-01 -1.485213e-08
8.440000e-01 -1.082500e-08
8.450000e-01 -8.176698e-09
8.460000e-01 -5.833527e-09
8.470001e-01 -1.127887e-09
8.480000e-01 5.386568e-09
8.490000e-01 9.978294e-09
8.500000e-01 1.083356e-08
8.510001e-01 1.052473e-08
8.520001e-01 1.190534e-08
8.530000e-01 1.351971e-08
8.540000e-01 1.155247e-08
8.550000e-01 5.510529e-09
8.560001e-01 -9.510615e-10
8.570001e-01 -5.394298e-09
8.580000e-01 -1.009624e-08
8.590000e-01 -1.836713e-08
8.600000e-01 -2.923467e-08
8.610001e-01 -3.851133e-08
8.620000e-01 -4.456189e-08
8.630000e-01 -5.004880e-08
8.640000e-01 -5.718685e-08
8.650001e-01 -6.398979e-08
8.660001e-01 -6.730356e-08
8.670000e-01 -6.774580e-08
8.680000e-01 -6.861154e-08
8.690000e-01 -7.020091e-08
8.700001e-01 -6.848752e-08
8.710001e-01 -6.066960e-08
8.720000e-01 -4.947707e-08
8.730000e-01 -3.953528e-08
8.740000e-01 -3.092931e-08
8.750001e-01 -1.950843e-08
8.760000e-01 -3.552628e-09
8.770000e-01 1.304917e-08
8.780000e-01 2.575996e-08
8.790001e-01 3.507749e-08
