-1.200000e-01 0.000000e+00
-1.190000e-01 0.000000e+00
-1.180000e-01 0.000000e+00
-1.170000e-01 0.000000e+00
-1.160000e-01 0.000000e+00
-1.150000e-01 0.000000e+00
-1.140000e-01 3.082406e-23
-1.130000e-01 -1.799250e-21
-1.120000e-01 -1.014602e-20
-1.110000e-01 -8.576764e-21
-1.100000e-01 7.608087e-20
-1.090000e-01 2.327675e-19
-1.080000e-01 -1.093795e-19
-1.070000e-01 -2.046795e-18
-1.060000e-01 -4.531827e-18
-1.050000e-01 4.532482e-19
-1.040000e-01 2.492188e-17
-1.030000e-01 5.897432e-17
-1.020000e-01 3.292606e-17
-1.010000e-01 -1.602801e-16
-1.000000e-01 -4.923915e-16
-9.900001e-02 -5.464516e-16
-9.800000e-02 4.265062e-16
-9.700000e-02 2.657414e-15
-9.600000e-02 4.443401e-15
-9.500001e-02 1.828627e-15
-9.400000e-02 -8.323629e-15
-9.300000e-02 -2.196753e-14
-9.200001e-02 -2.377796e-14
-9.100001e-02 5.447835e-15
-9.000000e-02 6.648048e-14
-8.900000e-02 1.183839e-13
-8.800000e-02 8.471388e-14
-8.700000e-02 -8.811905e-14
-8.600000e-02 -3.423257e-13
-8.500001e-02 -4.697335e-13
-8.400001e-02 -2.122434e-13
-8.300000e-02 4.961116e-13
-8.200000e-02 1.301887e-12
-8.100000e-02 1.476619e-12
-8.000000e-02 3.806695e-13
-7.900000e-02 -1.844678e-12
-7.800000e-02 -3.902976e-12
-7.700001e-02 -3.846117e-12
-7.600001e-02 -4.804646e-13
-7.500000e-02 5.149025e-12
-7.400000e-02 9.519978e-12
-7.300000e-02 8.461758e-12
-7.200000e-02 3.825811e-13
-7.100000e-02 -1.131426e-11
-7.000001e-02 -1.903174e-11
-6.900001e-02 -1.554965e-11
-6.800000e-02 1.124847e-13
-6.700000e-02 1.996559e-11
-6.600000e-02 3.068207e-11
-6.500000e-02 2.249426e-11
-6.400000e-02 -2.411227e-12
-6.300000e-02 -2.892067e-11
-6.200000e-02 -3.802725e-11
-6.100000e-02 -2.087846e-11
-6.000000e-02 1.241611e-11
-5.900000e-02 3.745158e-11
-5.800000e-02 3.264068e-11
-5.700000e-02 -2.638584e-12
-5.600000e-02 -4.340963e-11
-5.500000e-02 -5.439150e-11
-5.400001e-02 -1.674209e-11
-5.300000e-02 5.297043e-11
-5.200000e-02 1.079881e-10
-5.100000e-02 1.009285e-10
-5.000000e-02 1.904144e-11
-4.900000e-02 -1.003907e-10
-4.800000e-02 -1.882466e-10
-4.700000e-02 -1.857498e-10
-4.600000e-02 -8.298182e-11
-4.500000e-02 7.271997e-11
-4.400000e-02 2.044596e-10
-4.300000e-02 2.506199e-10
-4.200000e-02 1.969319e-10
-4.100000e-02 7.669876e-11
-4.000000e-02 -5.628648e-11
-3.900000e-02 -1.596361e-10
-3.800000e-02 -2.172815e-10
-3.700000e-02 -2.323233e-10
-3.600000e-02 -2.103172e-10
-3.500000e-02 -1.497761e-10
-3.400000e-02 -4.635262e-11
-3.300000e-02 9.619723e-11
-3.200000e-02 2.590084e-10
-3.100000e-02 4.085664e-10
-3.000000e-02 5.001171e-10
-2.900000e-02 4.811820e-10
-2.800000e-02 3.018822e-10
-2.700000e-02 -5.765891e-11
-2.600000e-02 -5.464107e-10
-2.500000e-02 -1.016102e-09
-2.400000e-02 -1.248340e-09
-2.300000e-02 -1.050018e-09
-2.200000e-02 -3.792620e-10
-2.100000e-02 5.788898e-10
-2.000000e-02 1.458605e-09
-1.900000e-02 1.881742e-09
-1.800000e-02 1.659376e-09
-1.700000e-02 8.971588e-10
-1.600000e-02 -7.270606e-11
-1.500000e-02 -8.931025e-10
-1.400000e-02 -1.378960e-09
-1.300000e-02 -1.570924e-09
-1.200000e-02 -1.613960e-09
-1.100000e-02 -1.566198e-09
-9.999998e-03 -1.302962e-09
-8.999996e-03 -6.096854e-10
-8.000001e-03 5.950446e-10
-6.999999e-03 2.080302e-09
-5.999997e-03 3.324624e-09
-5.000003e-03 3.754030e-09
-4.000001e-03 3.051706e-09
-2.999999e-03 1.340228e-09
-1.999997e-03 -8.720407e-10
-1.000002e-03 -2.927093e-09
0.000000e+00 -4.276155e-09
1.000002e-03 -4.623679e-09
2.000004e-03 -3.933503e-09
2.999999e-03 -2.372692e-09
4.000001e-03 -2.704987e-10
4.999995e-03 1.907812e-09
5.999997e-03 3.635040e-09
6.999999e-03 4.478753e-09
8.000001e-03 4.277225e-09
9.000003e-03 3.204265e-09
1.000001e-02 1.646705e-09
1.100001e-02 -3.433254e-11
1.199999e-02 -1.671745e-09
1.300000e-02 -3.242402e-09
1.400000e-02 -4.639783e-09
1.500000e-02 -5.490793e-09
1.600000e-02 -5.245248e-09
1.700000e-02 -3.551414e-09
1.800001e-02 -6.589040e-10
1.900001e-02 2.501903e-09
2.000000e-02 4.717622e-09
2.100000e-02 5.151198e-09
2.200000e-02 3.823438e-09
2.300000e-02 1.552974e-09
2.400000e-02 -5.977683e-10
2.500001e-02 -1.974391e-09
2.600001e-02 -2.600857e-09
2.700000e-02 -2.913225e-09
2.800000e-02 -3.228192e-09
2.900000e-02 -3.416337e-09
3.000000e-02 -3.049907e-09
3.100000e-02 -1.887082e-09
3.200001e-02 -2.294627e-10
3.300001e-02 1.185587e-09
3.400001e-02 1.685065e-09
3.500000e-02 1.144356e-09
3.600000e-02 6.720668e-11
3.700000e-02 -8.331149e-10
3.800000e-02 -1.120453e-09
3.900000e-02 -8.566294e-10
4.000001e-02 -3.520260e-10
4.100001e-02 2.362910e-10
4.200000e-02 1.068640e-09
4.300000e-02 2.319124e-09
4.400000e-02 3.821111e-09
4.500000e-02 4.917889e-09
4.600000e-02 4.918605e-09
4.700001e-02 3.693472e-09
4.800001e-02 1.971940e-09
4.900001e-02 8.466399e-10
5.000000e-02 1.059863e-09
5.100000e-02 2.361749e-09
5.200000e-02 3.885373e-09
5.300000e-02 4.740668e-09
5.400001e-02 4.977441e-09
5.500001e-02 5.414395e-09
5.600001e-02 7.015651e-09
5.700000e-02 9.696512e-09
5.800000e-02 1.213551e-08
5.900000e-02 1.256400e-08
6.000000e-02 1.016219e-08
6.100000e-02 6.131497e-09
6.200001e-02 2.396028e-09
6.300001e-02 6.040750e-10
6.400001e-02 9.584511e-10
6.500000e-02 2.519069e-09
6.600000e-02 3.851625e-09
6.700000e-02 3.984880e-09
6.800000e-02 2.855117e-09
6.900001e-02 1.352490e-09
7.000001e-02 -1.303704e-10
7.100001e-02 -1.587079e-09
7.200000e-02 -4.063850e-09
7.300000e-02 -7.856734e-09
7.400000e-02 -1.201551e-08
7.500000e-02 -1.517493e-08
7.600001e-02 -1.598482e-08
7.700001e-02 -1.553097e-08
7.800001e-02 -1.588865e-08
7.900001e-02 -1.873730e-08
8.000000e-02 -2.291173e-08
8.100000e-02 -2.618676e-08
8.200000e-02 -2.825045e-08
8.300000e-02 -2.958096e-08
8.400001e-02 -3.063556e-08
8.500001e-02 -3.216137e-08
8.600001e-02 -3.457972e-08
8.700001e-02 -3.727030e-08
8.800000e-02 -3.849952e-08
8.900000e-02 -3.709355e-08
9.000000e-02 -3.383479e-08
9.100001e-02 -3.177324e-08
9.200001e-02 -3.336839e-08
9.300001e-02 -3.706616e-08
9.400001e-02 -3.855887e-08
9.500000e-02 -3.614496e-08
9.600000e-02 -3.086729e-08
9.700000e-02 -2.565827e-08
9.800000e-02 -2.293258e-08
9.900001e-02 -2.197957e-08
1.000000e-01 -2.139406e-08
1.010000e-01 -1.897649e-08
1.020000e-01 -1.289698e-08
1.030000e-01 -4.607386e-09
1.040000e-01 3.032028e-09
1.050000e-01 8.223083e-09
1.060000e-01 1.274418e-08
1.070000e-01 2.003048e-08
1.080000e-01 3.264552e-08
1.090000e-01 4.994865e-08
1.100000e-01 6.857772e-08
1.110000e-01 8.600227e-08
1.120000e-01 1.031894e-07
1.130000e-01 1.230087e-07
1.140000e-01 1.487333e-07
1.150000e-01 1.809549e-07
1.160000e-01 2.175339e-07
1.170000e-01 2.552033e-07
1.180000e-01 2.923643e-07
1.190000e-01 3.310452e-07
1.200000e-01 3.750520e-07
1.210000e-01 4.263193e-07
1.220000e-01 4.836720e-07
1.230000e-01 5.428628e-07
1.240000e-01 5.999791e-07
1.250000e-01 6.547634e-07
1.260000e-01 7.101262e-07
1.270000e-01 7.691451e-07
1.280000e-01 8.300522e-07
1.290000e-01 8.871029e-07
1.300000e-01 9.354699e-07
1.310000e-01 9.738942e-07
1.320000e-01 1.004282e-06
1.330000e-01 1.028653e-06
1.340000e-01 1.046748e-06
1.350000e-01 1.054250e-06
1.360000e-01 1.044325e-06
1.370000e-01 1.010791e-06
1.380000e-01 9.528449e-07
1.390000e-01 8.754650e-07
1.400000e-01 7.814597e-07
1.410000e-01 6.686314e-07
1.420000e-01 5.295005e-07
1.430000e-01 3.583118e-07
1.440000e-01 1.559529e-07
1.450000e-01 -7.142080e-08
1.460000e-01 -3.190944e-07
1.470000e-01 -5.858601e-07
1.480000e-01 -8.737989e-07
1.490000e-01 -1.185763e-06
1.500000e-01 -1.522378e-06
1.510000e-01 -1.878303e-06
1.520000e-01 -2.242130e-06
1.530000e-01 -2.602523e-06
1.540000e-01 -2.955523e-06
1.550000e-01 -3.303488e-06
1.560000e-01 -3.647612e-06
1.570000e-01 -3.979862e-06
1.580000e-01 -4.284724e-06
1.590000e-01 -4.547328e-06
1.600000e-01 -4.762871e-06
1.610000e-01 -4.931062e-06
1.620000e-01 -5.051377e-06
1.630000e-01 -5.117530e-06
1.640000e-01 -5.121110e-06
1.650000e-01 -5.050795e-06
1.660000e-01 -4.896574e-06
1.670000e-01 -4.658970e-06
1.680000e-01 -4.342583e-06
1.690000e-01 -3.954250e-06
1.700000e-01 -3.493507e-06
1.710000e-01 -2.953893e-06
1.720000e-01 -2.331493e-06
1.730000e-01 -1.632521e-06
1.740000e-01 -8.748902e-07
1.750000e-01 -7.379276e-08
1.760000e-01 7.597628e-07
1.770000e-01 1.624603e-06
1.780000e-01 2.517430e-06
1.790000e-01 3.424502e-06
1.800000e-01 4.324786e-06
1.810000e-01 5.197275e-06
1.820000e-01 6.023009e-06
1.830000e-01 6.792427e-06
1.840000e-01 7.498136e-06
1.850000e-01 8.134200e-06
1.860000e-01 8.686795e-06
1.870000e-01 9.136274e-06
1.880000e-01 9.462237e-06
1.890000e-01 9.653973e-06
1.900000e-01 9.714218e-06
1.910000e-01 9.651994e-06
1.920000e-01 9.468698e-06
1.930000e-01 9.155076e-06
1.940000e-01 8.700124e-06
1.950000e-01 8.105708e-06
1.960000e-01 7.386901e-06
1.970000e-01 6.565824e-06
1.980000e-01 5.660928e-06
1.990000e-01 4.680827e-06
2.000000e-01 3.629364e-06
2.010000e-01 2.513989e-06
2.020000e-01 1.351698e-06
2.030000e-01 1.712469e-07
2.040000e-01 -9.988435e-07
2.050000e-01 -2.136338e-06
2.060000e-01 -3.231340e-06
2.070000e-01 -4.278321e-06
2.080000e-01 -5.267211e-06
2.090000e-01 -6.173970e-06
2.100000e-01 -6.971473e-06
2.110000e-01 -7.642026e-06
2.120000e-01 -8.184288e-06
2.130000e-01 -8.604897e-06
2.140000e-01 -8.907169e-06
2.150000e-01 -9.084964e-06
2.160000e-01 -9.126205e-06
2.170000e-01 -9.024152e-06
2.180000e-01 -8.782728e-06
2.190000e-01 -8.419316e-06
2.200000e-01 -7.954353e-06
2.210000e-01 -7.403083e-06
2.220000e-01 -6.768038e-06
2.230000e-01 -6.046525e-06
2.240000e-01 -5.246082e-06
2.250000e-01 -4.395959e-06
2.260000e-01 -3.527792e-06
2.270000e-01 -2.660556e-06
2.280000e-01 -1.798267e-06
2.290000e-01 -9.433134e-07
2.300000e-01 -1.047156e-07
2.310000e-01 7.015187e-07
2.320000e-01 1.455948e-06
2.330000e-01 2.138549e-06
2.340000e-01 2.738263e-06
2.350000e-01 3.259862e-06
2.360000e-01 3.713649e-06
2.370000e-01 4.100904e-06
2.380000e-01 4.406611e-06
2.390000e-01 4.612783e-06
2.400000e-01 4.715694e-06
2.410000e-01 4.731119e-06
2.420000e-01 4.681700e-06
2.430000e-01 4.578033e-06
2.440000e-01 4.415691e-06
2.450000e-01 4.186819e-06
2.460000e-01 3.894209e-06
2.470000e-01 3.552006e-06
2.480000e-01 3.180641e-06
2.490000e-01 2.797577e-06
2.500000e-01 2.411020e-06
2.510000e-01 2.017565e-06
2.520000e-01 1.609907e-06
2.530000e-01 1.189765e-06
2.540000e-01 7.759518e-07
2.550000e-01 3.939931e-07
2.560000e-01 5.777110e-08
2.570000e-01 -2.415036e-07
2.580000e-01 -5.216934e-07
2.590000e-01 -7.894268e-07
2.600000e-01 -1.030501e-06
2.610000e-01 -1.224849e-06
2.620000e-01 -1.364479e-06
2.630000e-01 -1.458693e-06
2.640000e-01 -1.523470e-06
2.650000e-01 -1.570449e-06
2.660000e-01 -1.599557e-06
2.670000e-01 -1.601355e-06
2.680000e-01 -1.565211e-06
2.690000e-01 -1.489338e-06
2.700000e-01 -1.387903e-06
2.710000e-01 -1.283122e-06
2.720000e-01 -1.187844e-06
2.730000e-01 -1.094246e-06
2.740000e-01 -9.829091e-07
2.750000e-01 -8.449206e-07
2.760000e-01 -6.945193e-07
2.770000e-01 -5.570255e-07
2.780000e-01 -4.462781e-07
2.790000e-01 -3.544192e-07
2.800000e-01 -2.626766e-07
2.810000e-01 -1.601220e-07
2.820000e-01 -5.199399e-08
2.830000e-01 4.583853e-08
2.840000e-01 1.192529e-07
2.850000e-01 1.654626e-07
2.860000e-01 1.960216e-07
2.870000e-01 2.289016e-07
2.880000e-01 2.742017e-07
2.890000e-01 3.232344e-07
2.900000e-01 3.541245e-07
2.910000e-01 3.533605e-07
2.920000e-01 3.313398e-07
2.930000e-01 3.141358e-07
2.940000e-01 3.185742e-07
2.950000e-01 3.367713e-07
2.960000e-01 3.454770e-07
2.970000e-01 3.297937e-07
2.980000e-01 2.952838e-07
2.990000e-01 2.606321e-07
3.000000e-01 2.412344e-07
3.010000e-01 2.381676e-07
3.020000e-01 2.391080e-07
3.030000e-01 2.278284e-07
3.040000e-01 1.961889e-07
3.050000e-01 1.524895e-07
3.060000e-01 1.175340e-07
3.070000e-01 1.068383e-07
3.080000e-01 1.145181e-07
3.090000e-01 1.170738e-07
3.100000e-01 9.589166e-08
3.110000e-01 5.633774e-08
3.120000e-01 2.200977e-08
3.130000e-01 1.080116e-08
3.140000e-01 1.811532e-08
3.150000e-01 2.379693e-08
3.160000e-01 1.232911e-08
3.170000e-01 -1.454737e-08
3.180000e-01 -4.175035e-08
3.190000e-01 -5.374477e-08
3.200000e-01 -4.553476e-08
3.210000e-01 -2.597881e-08
3.220000e-01 -1.242188e-08
3.230000e-01 -1.724675e-08
3.240000e-01 -3.550940e-08
3.250000e-01 -4.690446e-08
3.260000e-01 -3.460991e-08
3.270000e-01 -3.904461e-09
3.280000e-01 2.102843e-08
3.290000e-01 2.081379e-08
3.300000e-01 3.747118e-10
3.310000e-01 -1.647913e-08
3.320000e-01 -1.091757e-08
3.330000e-01 1.404851e-08
3.340000e-01 3.876130e-08
3.350000e-01 4.544245e-08
3.360000e-01 3.168134e-08
3.370000e-01 1.023591e-08
3.380000e-01 -1.366516e-09
3.390000e-01 6.256869e-09
3.400000e-01 2.596016e-08
3.410000e-01 3.738069e-08
3.420000e-01 2.360866e-08
3.430000e-01 -1.141052e-08
3.440000e-01 -4.322328e-08
3.450000e-01 -4.889398e-08
3.460000e-01 -2.970819e-08
3.470000e-01 -1.001945e-08
3.480000e-01 -1.269518e-08
3.490000e-01 -3.707555e-08
3.500000e-01 -6.157688e-08
3.510000e-01 -6.565006e-08
3.520000e-01 -4.746244e-08
3.530000e-01 -2.285742e-08
3.540000e-01 -1.096237e-08
3.550000e-01 -2.007846e-08
3.560000e-01 -4.206663e-08
3.570000e-01 -5.756215e-08
3.580000e-01 -5.028073e-08
3.590000e-01 -2.195520e-08
3.600000e-01 6.207756e-09
3.610000e-01 1.142689e-08
3.620000e-01 -8.129291e-09
3.630000e-01 -3.011519e-08
3.640000e-01 -2.985621e-08
3.650000e-01 -5.256425e-09
3.660000e-01 2.170123e-08
3.670000e-01 2.740171e-08
3.680000e-01 8.344159e-09
3.690000e-01 -1.848798e-08
3.700000e-01 -3.284026e-08
3.710000e-01 -2.724619e-08
3.720000e-01 -1.009516e-08
3.730000e-01 2.234628e-09
3.740000e-01 -2.419938e-09
3.750000e-01 -2.197453e-08
3.760000e-01 -3.936907e-08
3.770000e-01 -3.574314e-08
3.780000e-01 -9.138603e-09
3.790000e-01 2.035370e-08
3.800000e-01 2.825163e-08
3.810000e-01 1.041190e-08
3.820000e-01 -1.196349e-08
3.830000e-01 -1.351475e-08
3.840000e-01 1.052979e-08
3.850000e-01 4.166520e-08
3.860000e-01 5.777792e-08
3.870000e-01 5.277013e-08
3.880000e-01 3.859213e-08
3.890000e-01 3.261914e-08
3.900000e-01 4.408116e-08
3.910000e-01 6.794187e-08
3.920000e-01 8.763948e-08
3.930000e-01 8.621942e-08
3.940000e-01 6.094012e-08
3.950000e-01 2.893523e-08
3.960000e-01 1.414685e-08
3.970000e-01 2.441027e-08
3.980000e-01 4.232345e-08
3.990000e-01 4.202536e-08
4.000000e-01 1.547107e-08
4.010000e-01 -2.013644e-08
4.020000e-01 -4.080539e-08
4.030000e-01 -3.881064e-08
4.040000e-01 -2.687466e-08
4.050000e-01 -2.327397e-08
4.060000e-01 -3.603168e-08
4.070000e-01 -5.912261e-08
4.080000e-01 -7.876258e-08
4.090000e-01 -8.273821e-08
4.100000e-01 -6.890326e-08
4.110000e-01 -4.873903e-08
4.120000e-01 -3.992011e-08
4.130000e-01 -4.991182e-08
4.140000e-01 -6.620309e-08
4.150000e-01 -6.695308e-08
4.160000e-01 -4.393763e-08
4.170000e-01 -1.264544e-08
4.180000e-01 3.253263e-09
4.190000e-01 -3.818457e-09
4.200000e-01 -1.913520e-08
4.210000e-01 -2.260072e-08
4.220001e-01 -8.195798e-09
4.230000e-01 1.345438e-08
4.240000e-01 2.729462e-08
4.250000e-01 2.574922e-08
4.260000e-01 1.216102e-08
4.270000e-01 -2.037837e-09
4.280000e-01 -4.076298e-09
4.290000e-01 1.019106e-08
4.300000e-01 2.955107e-08
4.310000e-01 3.448878e-08
4.320000e-01 1.629650e-08
4.330000e-01 -1.107526e-08
4.340000e-01 -2.258838e-08
4.350000e-01 -7.426536e-09
4.360000e-01 1.976133e-08
4.370000e-01 3.452402e-08
4.380000e-01 2.715780e-08
4.390000e-01 9.681798e-09
4.400000e-01 1.161652e-09
4.410000e-01 1.025995e-08
4.420000e-01 3.122523e-08
4.430000e-01 5.116948e-08
4.440000e-01 5.864638e-08
4.450000e-01 4.989289e-08
4.460000e-01 3.269793e-08
4.470000e-01 2.331745e-08
4.480000e-01 3.323498e-08
4.490000e-01 5.591937e-08
4.500000e-01 7.026551e-08
4.510000e-01 6.131148e-08
4.520000e-01 3.641139e-08
4.530000e-01 1.735765e-08
4.540000e-01 1.682457e-08
4.550000e-01 2.621141e-08
4.560000e-01 2.727165e-08
4.570000e-01 1.161982e-08
4.580000e-01 -1.372382e-08
4.590001e-01 -3.632070e-08
4.600000e-01 -4.881161e-08
4.610000e-01 -5.083086e-08
4.620000e-01 -4.687899e-08
4.630000e-01 -4.488385e-08
4.640000e-01 -5.211476e-08
4.650000e-01 -6.732691e-08
4.660000e-01 -7.854541e-08
4.670000e-01 -7.415834e-08
4.680000e-01 -5.726918e-08
4.690000e-01 -4.459991e-08
4.700000e-01 -4.816593e-08
4.710000e-01 -6.099265e-08
4.720000e-01 -6.480586e-08
4.730000e-01 -5.046795e-08
4.740000e-01 -2.663623e-08
4.750000e-01 -8.244669e-09
4.760000e-01 -1.184318e-09
4.770000e-01 -4.035599e-10
4.780000e-01 1.283126e-09
4.790000e-01 7.318320e-09
4.800000e-01 1.813355e-08
4.810000e-01 3.147677e-08
4.820001e-01 4.062859e-08
4.830000e-01 3.775315e-08
4.840000e-01 2.345249e-08
4.850000e-01 1.023540e-08
4.860000e-01 1.101401e-08
4.870000e-01 2.389933e-08
4.880000e-01 3.310848e-08
4.890000e-01 2.685090e-08
4.900000e-01 1.073602e-08
4.910000e-01 3.566925e-10
4.920000e-01 3.309879e-09
4.930000e-01 1.290087e-08
4.940000e-01 1.851950e-08
4.950000e-01 1.683378e-08
4.960001e-01 1.119201e-08
4.970000e-01 5.168772e-09
4.980000e-01 1.271189e-09
4.990000e-01 3.237972e-09
5.000000e-01 1.336488e-08
5.010000e-01 2.674301e-08
5.020000e-01 3.348316e-08
5.030000e-01 3.005741e-08
5.040000e-01 2.516680e-08
5.050000e-01 2.986647e-08
5.060000e-01 4.322479e-08
5.070000e-01 5.267867e-08
5.080000e-01 4.923876e-08
5.090000e-01 3.768440e-08
5.100001e-01 2.906413e-08
5.110000e-01 2.684291e-08
5.120000e-01 2.501579e-08
5.130000e-01 1.825174e-08
5.140000e-01 8.270206e-09
5.150000e-01 -1.011031e-09
5.160000e-01 -9.587140e-09
5.170000e-01 -1.899937e-08
5.180000e-01 -2.721180e-08
5.190001e-01 -3.110924e-08
5.200000e-01 -3.338779e-08
5.210000e-01 -4.130091e-08
5.220000e-01 -5.638771e-08
5.230000e-01 -6.975545e-08
5.240000e-01 -7.174131e-08
5.250000e-01 -6.413289e-08
5.260000e-01 -5.801256e-08
5.270000e-01 -5.964819e-08
5.280000e-01 -6.330713e-08
5.290000e-01 -5.996391e-08
5.300000e-01 -4.890236e-08
5.310000e-01 -3.678335e-08
5.320000e-01 -2.772373e-08
5.330001e-01 -1.967862e-08
5.340000e-01 -1.074735e-08
5.350000e-01 -3.533360e-09
5.360000e-01 -1.910792e-10
5.370000e-01 3.050167e-09
5.380000e-01 1.154302e-08
5.390000e-01 2.358231e-08
5.400000e-01 3.111183e-08
5.410000e-01 3.014414e-08
5.420001e-01 2.616915e-08
5.430000e-01 2.643267e-08
5.440000e-01 3.015225e-08
5.450000e-01 3.071048e-08
5.460000e-01 2.606134e-08
5.470001e-01 2.165778e-08
5.480000e-01 2.178254e-08
5.490000e-01 2.278148e-08
5.500000e-01 1.870798e-08
5.510000e-01 1.094314e-08
5.520000e-01 7.199759e-09
5.530000e-01 1.105974e-08
5.540000e-01 1.715773e-08
5.550000e-01 1.864981e-08
5.560001e-01 1.581540e-08
5.570000e-01 1.400610e-08
5.580000e-01 1.555233e-08
5.590000e-01 1.818225e-08
5.600000e-01 2.093290e-08
5.610000e-01 2.643787e-08
5.620000e-01 3.513824e-08
5.630000e-01 4.137453e-08
5.640000e-01 3.965630e-08
5.650001e-01 3.322269e-08
5.660000e-01 3.135771e-08
5.670000e-01 3.724261e-08
5.680000e-01 4.267115e-08
5.690000e-01 3.759835e-08
5.700001e-01 2.232665e-08
5.710000e-01 6.618549e-09
5.720000e-01 -2.039570e-09
5.730000e-01 -5.283965e-09
5.740000e-01 -8.835038e-09
5.750000e-01 -1.507391e-08
5.760000e-01 -2.311936e-08
5.770000e-01 -3.289341e-08
5.780000e-01 -4.464000e-08
5.790001e-01 -5.531773e-08
5.800000e-01 -6.030778e-08
5.810000e-01 -6.027089e-08
5.820000e-01 -6.244942e-08
5.830000e-01 -7.175795e-08
5.840001e-01 -8.265948e-08
5.850000e-01 -8.411930e-08
5.860000e-01 -7.274742e-08
5.870000e-01 -5.722050e-08
5.880000e-01 -4.803789e-08
5.890000e-01 -4.580139e-08
5.900000e-01 -4.236718e-08
5.910000e-01 -3.168819e-08
5.920000e-01 -1.590671e-08
5.930001e-01 -1.093895e-09
5.940000e-01 9.138091e-09
5.950000e-01 1.443044e-08
5.960000e-01 1.572701e-08
5.970000e-01 1.589182e-08
5.980000e-01 2.030374e-08
5.990000e-01 3.223418e-08
6.000000e-01 4.686999e-08
6.010000e-01 5.384433e-08
6.020001e-01 4.850059e-08
6.030000e-01 3.858516e-08
6.040000e-01 3.639892e-08
6.050000e-01 4.466469e-08
6.060000e-01 5.326027e-08
6.070001e-01 5.070615e-08
6.080000e-01 3.638723e-08
6.090000e-01 1.999956e-08
6.100000e-01 1.116405e-08
6.110000e-01 1.198629e-08
6.120000e-01 1.815184e-08
6.130000e-01 2.352240e-08
6.140000e-01 2.324549e-08
6.150000e-01 1.627268e-08
6.160001e-01 7.643592e-09
6.170000e-01 6.190760e-09
6.180000e-01 1.604673e-08
6.190000e-01 3.015836e-08
6.200000e-01 3.549732e-08
6.210001e-01 2.659074e-08
6.220000e-01 1.210357e-08
6.230000e-01 5.898315e-09
6.240000e-01 1.240564e-08
6.250001e-01 2.282215e-08
6.260000e-01 2.530635e-08
6.270000e-01 1.657996e-08
6.280000e-01 3.166416e-09
6.290000e-01 -6.148134e-09
6.300001e-01 -7.401795e-09
6.310000e-01 -3.249042e-09
6.320000e-01 -8.991137e-10
6.330000e-01 -7.817334e-09
6.340000e-01 -2.581142e-08
6.350001e-01 -4.748629e-08
6.360000e-01 -6.082190e-08
6.370000e-01 -6.030737e-08
6.380000e-01 -5.335873e-08
6.390001e-01 -5.328231e-08
6.400000e-01 -6.503454e-08
6.410000e-01 -7.949113e-08
6.420000e-01 -8.286668e-08
6.430000e-01 -7.076414e-08
6.440001e-01 -5.191576e-08
6.450000e-01 -3.914705e-08
6.460000e-01 -3.812703e-08
6.470000e-01 -4.400297e-08
6.480000e-01 -4.643721e-08
6.490000e-01 -3.745485e-08
6.500000e-01 -1.719573e-08
6.510000e-01 5.439453e-09
6.520000e-01 1.890199e-08
6.530001e-01 1.898111e-08
6.540000e-01 1.390874e-08
6.550000e-01 1.760199e-08
6.560000e-01 3.581886e-08
6.570000e-01 5.933806e-08
6.580001e-01 7.226321e-08
6.590000e-01 6.726138e-08
6.600000e-01 5.199998e-08
6.610000e-01 4.100349e-08
6.620001e-01 4.230670e-08
6.630000e-01 5.172058e-08
6.640000e-01 5.803828e-08
6.650000e-01 5.275999e-08
6.660000e-01 3.656524e-08
6.670001e-01 1.888094e-08
6.680000e-01 1.093645e-08
6.690000e-01 1.646120e-08
6.700000e-01 2.741382e-08
6.710000e-01 3.019042e-08
6.720001e-01 1.831565e-08
6.730000e-01 -6.193090e-10
6.740000e-01 -1.181799e-08
6.750000e-01 -7.634661e-09
6.760001e-01 5.386106e-09
6.770000e-01 1.366895e-08
6.780000e-01 9.792204e-09
6.790000e-01 -1.573687e-09
6.800000e-01 -9.219153e-09
6.810001e-01 -5.567125e-09
6.820000e-01 7.430845e-09
6.830000e-01 2.003401e-08
6.840000e-01 2.201607e-08
6.850001e-01 1.077898e-08
6.860000e-01 -5.648168e-09
6.870000e-01 -1.459144e-08
6.880000e-01 -1.020132e-08
6.890000e-01 2.250289e-10
6.900001e-01 2.684502e-09
6.910000e-01 -9.708515e-09
6.920000e-01 -2.975203e-08
6.930000e-01 -4.348331e-08
6.940000e-01 -4.381460e-08
6.950001e-01 -3.636691e-08
6.960000e-01 -3.286332e-08
6.970000e-01 -4.019266e-08
6.980000e-01 -5.533106e-08
6.990001e-01 -6.862643e-08
7.000000e-01 -7.121967e-08
7.010000e-01 -6.148507e-08
7.020000e-01 -4.674337e-08
7.030000e-01 -3.809796e-08
7.040001e-01 -4.073541e-08
7.050000e-01 -4.802220e-08
7.060000e-01 -4.684914e-08
7.070000e-01 -3.071648e-08
7.080001e-01 -7.128989e-09
7.090001e-01 9.448456e-09
7.100000e-01 1.200134e-08
7.110000e-01 7.298276e-09
7.120000e-01 8.105445e-09
7.130001e-01 2.067608e-08
7.140000e-01 4.016930e-08
7.150000e-01 5.626237e-08
7.160000e-01 6.156854e-08
7.170000e-01 5.617710e-08
7.180001e-01 4.709543e-08
7.190000e-01 4.362126e-08
7.200000e-01 5.016670e-08
7.210000e-01 6.117477e-08
7.220001e-01 6.452427e-08
7.230000e-01 5.294307e-08
7.240000e-01 3.256002e-08
7.250000e-01 1.800930e-08
7.260000e-01 1.789009e-08
7.270001e-01 2.630418e-08
7.280000e-01 2.980097e-08
7.290000e-01 2.142076e-08
7.300000e-01 6.373732e-09
7.310000e-01 -4.936027e-09
7.320001e-01 -6.843820e-09
7.330000e-01 -1.497092e-09
7.340000e-01 4.685162e-09
7.350000e-01 5.626706e-09
7.360001e-01 -9.796395e-10
7.370000e-01 -1.128245e-08
7.380000e-01 -1.647743e-08
7.390000e-01 -9.995738e-09
7.400000e-01 4.581960e-09
7.410001e-01 1.489702e-08
7.420000e-01 1.177262e-08
7.430000e-01 -7.693117e-10
7.440000e-01 -9.731764e-09
7.450001e-01 -7.386284e-09
7.460001e-01 9.740333e-10
7.470000e-01 4.058329e-09
7.480000e-01 -3.187523e-09
7.490000e-01 -1.614794e-08
7.500001e-01 -2.717433e-08
7.510000e-01 -3.238014e-08
7.520000e-01 -3.240202e-08
7.530000e-01 -3.038434e-08
7.540000e-01 -3.097970e-08
7.550001e-01 -3.828358e-08
7.560000e-01 -5.117098e-08
7.570000e-01 -6.160886e-08
7.580000e-01 -6.144256e-08
7.590001e-01 -5.195900e-08
7.600001e-01 -4.380220e-08
7.610000e-01 -4.523132e-08
7.620000e-01 -5.230457e-08
7.630000e-01 -5.342892e-08
7.640001e-01 -4.277103e-08
7.650000e-01 -2.603932e-08
7.660000e-01 -1.271415e-08
7.670000e-01 -5.882929e-09
7.680001e-01 -1.598222e-09
7.690001e-01 4.518197e-09
7.700000e-01 1.358192e-08
7.710000e-01 2.516760e-08
7.720000e-01 3.833623e-08
7.730001e-01 4.971999e-08
7.740000e-01 5.433372e-08
7.750000e-01 5.154889e-08
7.760000e-01 4.838002e-08
7.770000e-01 5.278692e-08
7.780001e-01 6.351561e-08
7.790000e-01 7.019050e-08
7.800000e-01 6.517375e-08
7.810000e-01 5.258572e-08
7.820001e-01 4.291229e-08
7.830001e-01 4.051762e-08
7.840000e-01 4.010067e-08
7.850000e-01 3.513198e-08
7.860000e-01 2.568355e-08
7.870001e-01 1.621520e-08
7.880000e-01 9.049742e-09
7.890000e-01 3.543306e-09
7.900000e-01 -6.495782e-11
7.910001e-01 -5.017213e-10
7.920001e-01 3.432632e-10
7.930000e-01 -2.644761e-09
7.940000e-01 -1.098018e-08
7.950000e-01 -1.844683e-08
7.960001e-01 -1.769914e-08
7.970001e-01 -1.015591e-08
7.980000e-01 -5.218652e-09
7.990000e-01 -8.678214e-09
8.000000e-01 -1.554274e-08
8.010001e-01 -1.692518e-08
8.020000e-01 -1.145164e-08
8.030000e-01 -6.043024e-09
8.040000e-01 -6.327724e-09
8.050001e-01 -1.064929e-08
8.060001e-01 -1.465720e-08
8.070000e-01 -1.776716e-08
8.080000e-01 -2.188659e-08
8.090000e-01 -2.629965e-08
8.100001e-01 -2.838401e-08
8.110000e-01 -2.916259e-08
8.120000e-01 -3.349406e-08
8.130000e-01 -4.268404e-08
8.140000e-01 -5.046117e-08
8.150001e-01 -5.002170e-08
8.160000e-01 -4.342011e-08
8.170000e-01 -3.963139e-08
8.180000e-01 -4.299470e-08
8.190001e-01 -4.770325e-08
8.200001e-01 -4.581821e-08
8.210000e-01 -3.742441e-08
8.220000e-01 -2.918241e-08
8.230000e-01 -2.454500e-08
8.240001e-01 -2.006049e-08
8.250000e-01 -1.190619e-08
8.260000e-01 -1.612769e-09
8.270000e-01 7.439283e-09
8.280001e-01 1.606537e-08
8.290001e-01 2.751455e-08
8.300000e-01 4.070252e-08
8.310000e-01 4.994061e-08
8.320000e-01 5.272756e-08
8.330001e-01 5.385083e-08
8.340001e-01 5.872424e-08
8.350000e-01 6.526164e-08
8.360000e-01 6.663315e-08
8.370000e-01 6.138170e-08
8.380001e-01 5.604271e-08
8.390000e-01 5.604505e-08
8.400000e-01 5.791836e-08
8.410000e-01 5.411387e-08
8.420001e-01 4.347847e-08
8.430001e-01 3.250516e-08
8.440000e-01 2.622164e-08
8.450000e-01 2.221623e-08
8.460000e-01 1.563423e-08
8.470001e-01 6.504244e-09
8.480000e-01 -1.500958e-09
8.490000e-01 -7.578311e-09
8.500000e-01 -1.438904e-08
8.510001e-01 -2.193834e-08
8.520001e-01 -2.557768e-08
8.530000e-01 -2.278681e-08
8.540000e-01 -1.864368e-08
8.550000e-01 -2.026314e-08
8.560001e-01 -2.685496e-08
8.570001e-01 -2.992758e-08
8.580000e-01 -2.447624e-08
8.590000e-01 -1.600537e-08
8.600000e-01 -1.357310e-08
8.610001e-01 -1.844876e-08
8.620000e-01 -2.359197e-08
8.630000e-01 -2.348513e-08
8.640000e-01 -2.008717e-08
8.650001e-01 -1.801084e-08
8.660001e-01 -1.792088e-08
8.670000e-01 -1.785469e-08
8.680000e-01 -1.840519e-08
8.690000e-01 -2.200475e-08
8.700001e-01 -2.739606e-08
8.710001e-01 -2.952522e-08
8.720000e-01 -2.691992e-08
8.730000e-01 -2.551288e-08
8.740000e-01 -3.136307e-08
8.750001e-01 -4.129557e-08
8.760000e-01 -4.525796e-08
8.770000e-01 -3.851542e-08
8.780000e-01 -2.758426e-08
8.790001e-01 -2.191381e-08
