-4.000000000000000083e-02 0.000000000000000000e+00
-3.984999999999999654e-02 0.000000000000000000e+00
-3.969999999999999918e-02 0.000000000000000000e+00
-3.955000000000000182e-02 0.000000000000000000e+00
-3.939999999999999752e-02 0.000000000000000000e+00
-3.925000000000000017e-02 0.000000000000000000e+00
-3.910000000000000281e-02 0.000000000000000000e+00
-3.894999999999999851e-02 -0.000000000000000000e+00
-3.880000000000000115e-02 0.000000000000000000e+00
-3.864999999999999686e-02 -1.485376372184306095e-43
-3.849999999999999950e-02 5.687870466694432491e-42
-3.835000000000000214e-02 3.734460407425637494e-40
-3.819999999999999785e-02 -1.750777817172340609e-38
-3.805000000000000049e-02 -2.843113063512227589e-37
-3.790000000000000313e-02 1.051812385244664774e-35
-3.774999999999999883e-02 7.858854152171902239e-35
-3.760000000000000148e-02 -1.789516235656083535e-34
-3.744999999999999718e-02 -8.099540463818279818e-32
-3.729999999999999982e-02 1.118857058169160314e-30
-3.715000000000000246e-02 -7.718149958120541682e-30
-3.699999999999999817e-02 -6.733072902752927804e-30
-3.685000000000000081e-02 3.365824889475120195e-27
-3.670000000000000345e-02 -6.902603794905806748e-26
-3.654999999999999916e-02 5.265401995469635287e-25
-3.640000000000000180e-02 8.022448672504112206e-25
-3.624999999999999750e-02 -4.072292474811736866e-23
-3.610000000000000014e-02 1.498710385699300916e-22
-3.595000000000000279e-02 1.134969550553572553e-21
-3.579999999999999849e-02 -4.658905372613479468e-21
-3.565000000000000113e-02 -2.774389300779570325e-20
-3.549999999999999684e-02 1.278052692207388060e-20
-3.534999999999999948e-02 3.773971219718326807e-19
-3.520000000000000212e-02 1.355973396715567368e-18
-3.504999999999999782e-02 3.123145513761604632e-18
-3.490000000000000047e-02 5.931306026936997920e-18
-3.475000000000000311e-02 1.038150380806717214e-17
-3.459999999999999881e-02 1.753282265636169334e-17
-3.445000000000000145e-02 2.736329844501544098e-17
-3.429999999999999716e-02 3.241182160580420926e-17
-3.414999999999999980e-02 1.225650305386255932e-17
-3.400000000000000244e-02 -3.647655404866528514e-17
-3.384999999999999815e-02 1.790549233773520890e-17
-3.370000000000000079e-02 5.690363633885245440e-16
-3.355000000000000343e-02 1.909627732771821199e-15
-3.339999999999999913e-02 2.602794180542062491e-15
-3.325000000000000178e-02 -2.705686660776831370e-15
-3.309999999999999748e-02 -2.064947232573600272e-14
-3.295000000000000012e-02 -4.262514752511985250e-14
-3.280000000000000276e-02 -1.743052181540569179e-14
-3.264999999999999847e-02 1.431777195718894613e-13
-3.250000000000000111e-02 4.436414614578804150e-13
-3.234999999999999681e-02 5.565725289501111117e-13
-3.219999999999999946e-02 -2.868796237891213519e-13
-3.205000000000000210e-02 -2.687848424734462505e-12
-3.189999999999999780e-02 -5.441979332443391826e-12
-3.175000000000000044e-02 -4.037286564090303287e-12
-3.160000000000000309e-02 7.565327704572855083e-12
-3.144999999999999879e-02 2.914724364644349919e-11
-3.130000000000000143e-02 4.373167106219710831e-11
-3.115000000000000061e-02 1.725034698418781431e-11
-3.099999999999999978e-02 -7.653015721142963912e-11
-3.084999999999999895e-02 -2.090656814335289937e-10
-3.070000000000000159e-02 -2.668814891304549519e-10
-3.055000000000000077e-02 -9.675893419824888042e-11
-3.039999999999999994e-02 3.551832439274704711e-10
-3.024999999999999911e-02 8.937053874724654179e-10
-3.009999999999999828e-02 1.082382627970446265e-09
-2.995000000000000093e-02 5.298484428983840644e-10
-2.980000000000000010e-02 -6.392001372645950141e-10
-2.964999999999999927e-02 -1.461754717269059256e-09
-2.949999999999999845e-02 -3.213186938744172494e-10
-2.935000000000000109e-02 4.310490631098673475e-09
-2.920000000000000026e-02 1.299383445285684502e-08
-2.904999999999999943e-02 2.497207596263706364e-08
-2.889999999999999861e-02 3.879243237747687090e-08
-2.875000000000000125e-02 5.370205258259375114e-08
-2.860000000000000042e-02 7.099124843534809770e-08
-2.844999999999999959e-02 9.426404545820332714e-08
-2.829999999999999877e-02 1.281032808719828608e-07
-2.815000000000000141e-02 1.756225458393601002e-07
-2.800000000000000058e-02 2.363762519053125288e-07
-2.784999999999999976e-02 3.062038445023063105e-07
-2.769999999999999893e-02 3.793916789618378971e-07
-2.755000000000000157e-02 4.517361560374411056e-07
-2.740000000000000074e-02 5.222739787313912529e-07
-2.724999999999999992e-02 5.926155495217244606e-07
-2.709999999999999909e-02 6.650155341958452482e-07
-2.695000000000000173e-02 7.412817808472027536e-07
-2.680000000000000090e-02 8.233004678004363086e-07
-2.665000000000000008e-02 9.139428129856241867e-07
-2.649999999999999925e-02 1.016841565615322907e-06
-2.634999999999999842e-02 1.135130901275260840e-06
-2.620000000000000107e-02 1.270434268008102663e-06
-2.605000000000000024e-02 1.422681748408649582e-06
-2.589999999999999941e-02 1.590228976056096144e-06
-2.574999999999999858e-02 1.770227981978678145e-06
-2.560000000000000123e-02 1.960253712240955792e-06
-2.545000000000000040e-02 2.161115162380156107e-06
-2.529999999999999957e-02 2.378140607106615789e-06
-2.514999999999999875e-02 2.618383859953610227e-06
-2.500000000000000139e-02 2.885765979954157956e-06
-2.485000000000000056e-02 3.179744680892326869e-06
-2.469999999999999973e-02 3.499585318422759883e-06
-2.454999999999999891e-02 3.848856522381538525e-06
-2.440000000000000155e-02 4.233673280396033078e-06
-2.425000000000000072e-02 4.656494184018811211e-06
-2.409999999999999989e-02 5.114295618113828823e-06
-2.394999999999999907e-02 5.604900707112392411e-06
-2.380000000000000171e-02 6.133750957815209404e-06
-2.365000000000000088e-02 6.711799869663082063e-06
-2.350000000000000006e-02 7.346987331402488053e-06
-2.334999999999999923e-02 8.040806278586387634e-06
-2.319999999999999840e-02 8.794136192591395229e-06
-2.305000000000000104e-02 9.612904250388965011e-06
-2.290000000000000022e-02 1.050457103701774031e-05
-2.274999999999999939e-02 1.147109742305474356e-05
-2.259999999999999856e-02 1.251063076779246330e-05
-2.245000000000000120e-02 1.362735656584845856e-05
-2.230000000000000038e-02 1.483515825384529307e-05
-2.214999999999999955e-02 1.614807661098893732e-05
-2.199999999999999872e-02 1.757001700752880424e-05
-2.185000000000000137e-02 1.909866114147007465e-05
-2.170000000000000054e-02 2.073858922813087702e-05
-2.154999999999999971e-02 2.250489160360302776e-05
-2.139999999999999888e-02 2.441220203763805330e-05
-2.125000000000000153e-02 2.646560642460826784e-05
-2.110000000000000070e-02 2.866723298211582005e-05
-2.094999999999999987e-02 3.102913979091681540e-05
-2.079999999999999905e-02 3.357367313583381474e-05
-2.065000000000000169e-02 3.632078369264490902e-05
-2.050000000000000086e-02 3.928039950551465154e-05
-2.035000000000000003e-02 4.245950913173146546e-05
-2.019999999999999921e-02 4.587250441545620561e-05
-2.004999999999999838e-02 4.954057658324018121e-05
-1.990000000000000102e-02 5.348365812096744776e-05
-1.975000000000000019e-02 5.771808355348184705e-05
-1.959999999999999937e-02 6.226162804523482919e-05
-1.944999999999999854e-02 6.713614857289940119e-05
-1.930000000000000118e-02 7.236396777443587780e-05
-1.915000000000000036e-02 7.796551653882488608e-05
-1.899999999999999953e-02 8.396290650125592947e-05
-1.884999999999999870e-02 9.038292046170681715e-05
-1.870000000000000134e-02 9.725377458380535245e-05
-1.855000000000000052e-02 1.046014949679374695e-04
-1.839999999999999969e-02 1.124530826928094029e-04
-1.824999999999999886e-02 1.208417670568451285e-04
-1.810000000000000150e-02 1.298050046898424625e-04
-1.795000000000000068e-02 1.393774291500449181e-04
-1.779999999999999985e-02 1.495899923611432314e-04
-1.764999999999999902e-02 1.604772842256352305e-04
-1.750000000000000167e-02 1.720815780572593212e-04
-1.735000000000000084e-02 1.844474463723599911e-04
-1.720000000000000001e-02 1.976159255718812346e-04
-1.704999999999999918e-02 2.116279210895299911e-04
-1.689999999999999836e-02 2.265313087264075875e-04
-1.675000000000000100e-02 2.423800178803503513e-04
-1.660000000000000017e-02 2.592266246210783720e-04
-1.644999999999999934e-02 2.771205909084528685e-04
-1.629999999999999852e-02 2.961145364679396152e-04
-1.615000000000000116e-02 3.162686771247535944e-04
-1.600000000000000033e-02 3.376466629561036825e-04
-1.584999999999999951e-02 3.603106888476759195e-04
-1.569999999999999868e-02 3.843233571387827396e-04
-1.554999999999999959e-02 4.097521887160837650e-04
-1.540000000000000049e-02 4.366687790025025606e-04
-1.524999999999999967e-02 4.651446943171322346e-04
-1.510000000000000057e-02 4.952523158863186836e-04
-1.494999999999999975e-02 5.270689143799245358e-04
-1.480000000000000066e-02 5.606767372228205204e-04
-1.464999999999999983e-02 5.961582064628601074e-04
-1.450000000000000074e-02 6.335956277325749397e-04
-1.434999999999999991e-02 6.730761379003524780e-04
-1.420000000000000082e-02 7.146933348849415779e-04
-1.404999999999999999e-02 7.585415150970220566e-04
-1.389999999999999916e-02 8.047114242799580097e-04
-1.375000000000000007e-02 8.532946812920272350e-04
-1.359999999999999924e-02 9.043909376487135887e-04
-1.345000000000000015e-02 9.581067133694887161e-04
-1.329999999999999932e-02 1.014547655358910561e-03
-1.315000000000000023e-02 1.073816791176795959e-03
-1.299999999999999940e-02 1.136018894612789154e-03
-1.285000000000000031e-02 1.201263861730694771e-03
-1.269999999999999948e-02 1.269663567654788494e-03
-1.255000000000000039e-02 1.341329771094024181e-03
-1.239999999999999956e-02 1.416375511325895786e-03
-1.225000000000000047e-02 1.494917087256908417e-03
-1.209999999999999964e-02 1.577071729116141796e-03
-1.195000000000000055e-02 1.662954571656882763e-03
-1.179999999999999973e-02 1.752680866047739983e-03
-1.165000000000000063e-02 1.846369588747620583e-03
-1.149999999999999981e-02 1.944140763953328133e-03
-1.135000000000000071e-02 2.046109875664114952e-03
-1.119999999999999989e-02 2.152389613911509514e-03
-1.105000000000000079e-02 2.263096161186695099e-03
-1.089999999999999997e-02 2.378348726779222488e-03
-1.074999999999999914e-02 2.498264191672205925e-03
-1.060000000000000005e-02 2.622950822114944458e-03
-1.044999999999999922e-02 2.752513391897082329e-03
-1.030000000000000013e-02 2.887057373300194740e-03
-1.014999999999999930e-02 3.026688238605856895e-03
-1.000000000000000021e-02 3.171505872160196304e-03
-9.850001000000000589e-03 3.321605268865823746e-03
-9.700001999999999236e-03 3.477078862488269806e-03
-9.550001000000000670e-03 3.638013033196330070e-03
-9.400000999999999843e-03 3.804486012086272240e-03
-9.250002000000000224e-03 3.976569510996341705e-03
-9.100000999999999923e-03 4.154331050813198090e-03
-8.950001000000000831e-03 4.337832797318696976e-03
-8.800001999999999477e-03 4.527128767222166061e-03
-8.650000999999999177e-03 4.722259473055601120e-03
-8.500001999999999558e-03 4.923258908092975616e-03
-8.349999999999999784e-03 5.130154080688953400e-03
-8.200001000000000165e-03 5.342961288988590240e-03
-8.050002000000000546e-03 5.561680998653173447e-03
-7.900000000000000772e-03 5.786302033811807632e-03
-7.750001000000000285e-03 6.016803439706563950e-03
-7.600001999999999799e-03 6.253155879676342010e-03
-7.449998999999999684e-03 6.495312787592411041e-03
-7.300001000000000406e-03 6.743211299180984497e-03
-7.150001999999999920e-03 6.996774114668369293e-03
-7.000003000000000301e-03 7.255908101797103882e-03
-6.850000000000000186e-03 7.520502898842096329e-03
-6.700002000000000041e-03 7.790430914610624313e-03
-6.550003000000000422e-03 8.065549656748771667e-03
-6.400000000000000307e-03 8.345698937773704529e-03
-6.250000999999999821e-03 8.630699478089809418e-03
-6.100002999999999675e-03 8.920348249375820160e-03
-5.950000000000000427e-03 9.214420802891254425e-03
-5.800000999999999941e-03 9.512676857411861420e-03
-5.650002999999999796e-03 9.814854711294174194e-03
-5.499999999999999681e-03 1.012067031115293503e-02
-5.350001000000000062e-03 1.042981445789337158e-02
-5.200001999999999576e-03 1.074195839464664459e-02
-5.049999999999999802e-03 1.105675008147954941e-02
-4.900001000000000183e-03 1.137381419539451599e-02
-4.750001999999999697e-03 1.169274747371673584e-02
-4.599999999999999922e-03 1.201312430202960968e-02
-4.450001000000000304e-03 1.233449764549732208e-02
-4.300001999999999817e-03 1.265639718621969223e-02
-4.149998999999999702e-03 1.297832466661930084e-02
-4.000001000000000424e-03 1.329975854605436325e-02
-3.850001999999999938e-03 1.362015493214130402e-02
-3.699998999999999823e-03 1.393894199281930923e-02
-3.550000000000000204e-03 1.425552368164062500e-02
-3.400002000000000059e-03 1.456927880644798279e-02
-3.250003000000000006e-03 1.487956568598747253e-02
-3.099999999999999891e-03 1.518572494387626648e-02
-2.950002000000000180e-03 1.548706647008657455e-02
-2.800003000000000127e-03 1.578287966549396515e-02
-2.650000000000000012e-03 1.607243530452251434e-02
-2.500000999999999959e-03 1.635497622191905975e-02
-2.350002999999999814e-03 1.662973500788211823e-02
-2.200000000000000133e-03 1.689591817557811737e-02
-2.050001000000000080e-03 1.715271547436714172e-02
-1.900002000000000028e-03 1.739930734038352966e-02
-1.750000000000000036e-03 1.763485185801982880e-02
-1.600000999999999984e-03 1.785849221050739288e-02
-1.450001999999999932e-03 1.806935854256153107e-02
-1.299999999999999940e-03 1.826657354831695557e-02
-1.150001000000000105e-03 1.844924874603748322e-02
-1.000002000000000052e-03 1.861648634076118469e-02
-8.499994999999999990e-04 1.876738294959068298e-02
-7.000007000000000148e-04 1.890103518962860107e-02
-5.500019000000000305e-04 1.901653222739696503e-02
-3.999992999999999973e-04 1.911296509206295013e-02
-2.500005000000000131e-04 1.918942108750343323e-02
-1.000017000000000017e-04 1.924499496817588806e-02
5.000085000000000087e-05 1.927879266440868378e-02
1.999996999999999886e-04 1.928992569446563721e-02
3.499985000000000270e-04 1.927751488983631134e-02
4.999972999999999571e-04 1.924069225788116455e-02
6.499998000000000104e-04 1.917861588299274445e-02
7.999985999999999946e-04 1.909045130014419556e-02
9.499975000000000129e-04 1.897539012134075165e-02
1.100000000000000066e-03 1.883264631032943726e-02
1.249998999999999902e-03 1.866146549582481384e-02
1.399997999999999954e-03 1.846111752092838287e-02
1.549999999999999946e-03 1.823090948164463043e-02
1.699998999999999998e-03 1.797017641365528107e-02
1.849998000000000050e-03 1.767829619348049164e-02
2.000000000000000042e-03 1.735468767583370209e-02
2.149999000000000094e-03 1.699880883097648621e-02
2.299998000000000146e-03 1.661016419529914856e-02
2.449999999999999921e-03 1.618831045925617218e-02
2.599998999999999973e-03 1.573285460472106934e-02
2.749998000000000026e-03 1.524346135556697845e-02
2.900001000000000141e-03 1.471984293311834335e-02
3.049998999999999853e-03 1.416177209466695786e-02
3.199997999999999905e-03 1.356908679008483887e-02
3.350001000000000020e-03 1.294168550521135330e-02
3.500000000000000073e-03 1.227953564375638962e-02
3.649997999999999784e-03 1.158266980201005936e-02
3.800000999999999900e-03 1.085119321942329407e-02
3.950000000000000386e-03 1.008528098464012146e-02
4.099999000000000005e-03 9.285178966820240021e-03
4.249997000000000150e-03 8.451207540929317474e-03
4.400000000000000265e-03 7.583762984722852707e-03
4.549998999999999884e-03 6.683325394988059998e-03
4.699998000000000370e-03 5.750448442995548248e-03
4.850000000000000144e-03 4.785764962434768677e-03
4.999998999999999763e-03 3.789986483752727509e-03
5.149998000000000249e-03 2.763907192274928093e-03
5.300000000000000024e-03 1.708399504423141479e-03
5.449998999999999642e-03 6.244156393222510815e-04
5.599998000000000128e-03 -4.870105476584285498e-04
5.749999999999999903e-03 -1.624763128347694874e-03
5.899999000000000389e-03 -2.787647768855094910e-03
6.049998000000000008e-03 -3.974393475800752640e-03
6.200001000000000123e-03 -5.183652043342590332e-03
6.349999000000000268e-03 -6.413997150957584381e-03
6.499997999999999887e-03 -7.663929369300603867e-03
6.650001000000000002e-03 -8.931878022849559784e-03
6.799999999999999621e-03 -1.021620165556669235e-02
6.949997999999999766e-03 -1.151518523693084717e-02
7.100000999999999882e-03 -1.282704994082450867e-02
7.250000000000000368e-03 -1.414995454251766205e-02
7.399998999999999987e-03 -1.548200286924839020e-02
7.550000999999999761e-03 -1.682123728096485138e-02
7.700000000000000247e-03 -1.816564612090587616e-02
7.849998999999999866e-03 -1.951316744089126587e-02
7.999997999999999485e-03 -2.086169458925724030e-02
8.149999999999999259e-03 -2.220907621085643768e-02
8.299999000000000612e-03 -2.355312369763851166e-02
8.449998000000000231e-03 -2.489161491394042969e-02
8.600000000000000006e-03 -2.622230537235736847e-02
8.749998999999999624e-03 -2.754291892051696777e-02
8.899997999999999243e-03 -2.885116264224052429e-02
9.050000000000000752e-03 -3.014472499489784241e-02
9.199999000000000371e-03 -3.142129257321357727e-02
9.349997999999999990e-03 -3.267854079604148865e-02
9.500000999999999238e-03 -3.391414508223533630e-02
9.649998999999999383e-03 -3.512579947710037231e-02
9.799998000000000736e-03 -3.631120175123214722e-02
9.950000999999999984e-03 -3.746806830167770386e-02
1.009999999999999960e-02 -3.859414532780647278e-02
1.025000000000000043e-02 -3.968719765543937683e-02
1.039999999999999952e-02 -4.074502363801002502e-02
1.055000000000000035e-02 -4.176547005772590637e-02
1.069999999999999944e-02 -4.274643212556838989e-02
1.085000000000000027e-02 -4.368584603071212769e-02
1.099999999999999936e-02 -4.458170756697654724e-02
1.115000000000000019e-02 -4.543208330869674683e-02
1.129999999999999928e-02 -4.623509570956230164e-02
1.145000000000000011e-02 -4.698894545435905457e-02
1.159999999999999920e-02 -4.769190400838851929e-02
1.175000000000000003e-02 -4.834233969449996948e-02
1.190000000000000085e-02 -4.893869534134864807e-02
1.204999999999999995e-02 -4.947950318455696106e-02
1.220000000000000077e-02 -4.996340349316596985e-02
1.234999999999999987e-02 -5.038912594318389893e-02
1.250000000000000069e-02 -5.075550824403762817e-02
1.264999999999999979e-02 -5.106148868799209595e-02
1.280000000000000061e-02 -5.130612105131149292e-02
1.294999999999999971e-02 -5.148857459425926208e-02
1.310000000000000053e-02 -5.160813778638839722e-02
1.324999999999999963e-02 -5.166421085596084595e-02
1.340000000000000045e-02 -5.165631696581840515e-02
1.354999999999999954e-02 -5.158410593867301941e-02
1.370000000000000037e-02 -5.144734308123588562e-02
1.384999999999999946e-02 -5.124593153595924377e-02
1.400000000000000029e-02 -5.097988992929458618e-02
1.414999999999999938e-02 -5.064937472343444824e-02
1.430000000000000021e-02 -5.025466158986091614e-02
1.444999999999999930e-02 -4.979616031050682068e-02
1.460000000000000013e-02 -4.927440360188484192e-02
1.474999999999999922e-02 -4.869004711508750916e-02
1.490000000000000005e-02 -4.804387316107749939e-02
1.504999999999999914e-02 -4.733679071068763733e-02
1.519999999999999997e-02 -4.656983539462089539e-02
1.535000000000000080e-02 -4.574415460228919983e-02
1.549999999999999989e-02 -4.486101865768432617e-02
1.565000000000000072e-02 -4.392180219292640686e-02
1.580000000000000154e-02 -4.292800277471542358e-02
1.594999999999999890e-02 -4.188121110200881958e-02
1.609999999999999973e-02 -4.078313708305358887e-02
1.625000000000000056e-02 -3.963559120893478394e-02
1.640000000000000138e-02 -3.844048082828521729e-02
1.654999999999999874e-02 -3.719978779554367065e-02
1.669999999999999957e-02 -3.591559454798698425e-02
1.685000000000000039e-02 -3.459006175398826599e-02
1.700000000000000122e-02 -3.322543203830718994e-02
1.714999999999999858e-02 -3.182401135563850403e-02
1.729999999999999941e-02 -3.038817830383777618e-02
1.745000000000000023e-02 -2.892037481069564819e-02
1.760000000000000106e-02 -2.742308750748634338e-02
1.774999999999999842e-02 -2.589885517954826355e-02
1.789999999999999925e-02 -2.435025759041309357e-02
1.805000000000000007e-02 -2.277991175651550293e-02
1.820000000000000090e-02 -2.119046822190284729e-02
1.835000000000000173e-02 -1.958459615707397461e-02
1.849999999999999908e-02 -1.796498335897922516e-02
1.864999999999999991e-02 -1.633432880043983459e-02
1.880000000000000074e-02 -1.469533797353506088e-02
1.895000000000000157e-02 -1.305070985108613968e-02
1.909999999999999892e-02 -1.140313874930143356e-02
1.924999999999999975e-02 -9.755301289260387421e-03
1.940000000000000058e-02 -8.109858259558677673e-03
1.955000000000000140e-02 -6.469445303082466125e-03
1.969999999999999876e-02 -4.836660809814929962e-03
1.984999999999999959e-02 -3.214065916836261749e-03
2.000000000000000042e-02 -1.604179502464830875e-03
2.015000000000000124e-02 -9.469707038078922778e-06
2.029999999999999860e-02 1.567650353536009789e-03
2.044999999999999943e-02 3.124826587736606598e-03
2.060000000000000026e-02 4.659765865653753281e-03
2.075000000000000108e-02 6.170244887471199036e-03
2.089999999999999844e-02 7.654116023331880569e-03
2.104999999999999927e-02 9.109310805797576904e-03
2.120000000000000009e-02 1.053384225815534592e-02
2.135000000000000092e-02 1.192580442875623703e-02
2.149999999999999828e-02 1.328338216990232468e-02
2.164999999999999911e-02 1.460485160350799561e-02
2.179999999999999993e-02 1.588858291506767273e-02
2.195000000000000076e-02 1.713304407894611359e-02
2.210000000000000159e-02 1.833679899573326111e-02
2.224999999999999895e-02 1.949852518737316132e-02
2.239999999999999977e-02 2.061699144542217255e-02
2.255000000000000060e-02 2.169107086956501007e-02
2.270000000000000143e-02 2.271974086761474609e-02
2.284999999999999878e-02 2.370208874344825745e-02
2.299999999999999961e-02 2.463730797171592712e-02
2.315000000000000044e-02 2.552470006048679352e-02
2.330000000000000127e-02 2.636366710066795349e-02
2.344999999999999862e-02 2.715372480452060699e-02
2.359999999999999945e-02 2.789448946714401245e-02
2.375000000000000028e-02 2.858567796647548676e-02
2.390000000000000110e-02 2.922711521387100220e-02
2.404999999999999846e-02 2.981872670352458954e-02
2.419999999999999929e-02 3.036053664982318878e-02
2.435000000000000012e-02 3.085266798734664917e-02
2.450000000000000094e-02 3.129534050822257996e-02
2.464999999999999830e-02 3.168886899948120117e-02
2.479999999999999913e-02 3.203365579247474670e-02
2.494999999999999996e-02 3.233018517494201660e-02
2.510000000000000078e-02 3.257903829216957092e-02
2.525000000000000161e-02 3.278086334466934204e-02
2.539999999999999897e-02 3.293640539050102234e-02
2.554999999999999979e-02 3.304646536707878113e-02
2.570000000000000062e-02 3.311193361878395081e-02
2.585000000000000145e-02 3.313375264406204224e-02
2.599999999999999881e-02 3.311294317245483398e-02
2.614999999999999963e-02 3.305057063698768616e-02
2.630000000000000046e-02 3.294777125120162964e-02
2.645000000000000129e-02 3.280572220683097839e-02
2.659999999999999865e-02 3.262565657496452332e-02
2.674999999999999947e-02 3.240884840488433838e-02
2.690000000000000030e-02 3.215660899877548218e-02
2.705000000000000113e-02 3.187029063701629639e-02
2.719999999999999848e-02 3.155126795172691345e-02
2.734999999999999931e-02 3.120095655322074890e-02
2.750000000000000014e-02 3.082079067826271057e-02
2.765000000000000097e-02 3.041222132742404938e-02
2.779999999999999832e-02 2.997672185301780701e-02
2.794999999999999915e-02 2.951577119529247284e-02
2.809999999999999998e-02 2.903085947036743164e-02
2.825000000000000080e-02 2.852347493171691895e-02
2.840000000000000163e-02 2.799511514604091644e-02
2.854999999999999899e-02 2.744727209210395813e-02
2.869999999999999982e-02 2.688143216073513031e-02
2.885000000000000064e-02 2.629907242953777313e-02
2.900000000000000147e-02 2.570165880024433136e-02
2.914999999999999883e-02 2.509063668549060822e-02
2.929999999999999966e-02 2.446743845939636230e-02
2.945000000000000048e-02 2.383347041904926300e-02
2.960000000000000131e-02 2.319011650979518890e-02
2.974999999999999867e-02 2.253873646259307861e-02
2.989999999999999949e-02 2.188066579401493073e-02
3.005000000000000032e-02 2.121720090508460999e-02
3.020000000000000115e-02 2.054960653185844421e-02
3.034999999999999851e-02 1.987911574542522430e-02
3.049999999999999933e-02 1.920692436397075653e-02
3.065000000000000016e-02 1.853418909013271332e-02
3.080000000000000099e-02 1.786202937364578247e-02
3.094999999999999835e-02 1.719151996076107025e-02
3.109999999999999917e-02 1.652370207011699677e-02
3.125000000000000000e-02 1.585957035422325134e-02
3.139999999999999736e-02 1.520007103681564331e-02
3.155000000000000165e-02 1.454611029475927353e-02
3.169999999999999901e-02 1.389854960143566132e-02
3.185000000000000331e-02 1.325820572674274445e-02
3.200000000000000067e-02 1.262584887444972992e-02
3.214999999999999802e-02 1.200220733880996704e-02
3.230000000000000232e-02 1.138796284794807434e-02
3.244999999999999968e-02 1.078375056385993958e-02
3.259999999999999704e-02 1.019016094505786896e-02
3.275000000000000133e-02 9.607737883925437927e-03
3.289999999999999869e-02 9.036986157298088074e-03
3.305000000000000299e-02 8.478366769850254059e-03
3.320000000000000034e-02 7.932294160127639771e-03
3.334999999999999770e-02 7.399143651127815247e-03
3.350000000000000200e-02 6.879248656332492828e-03
3.364999999999999936e-02 6.372900679707527161e-03
3.379999999999999671e-02 5.880352575331926346e-03
3.395000000000000101e-02 5.401819478720426559e-03
3.409999999999999837e-02 4.937481600791215897e-03
3.425000000000000266e-02 4.487483296543359756e-03
3.440000000000000002e-02 4.051931668072938919e-03
3.454999999999999738e-02 3.630898892879486084e-03
3.470000000000000168e-02 3.224426181986927986e-03
3.484999999999999903e-02 2.832524711266160011e-03
3.500000000000000333e-02 2.455177251249551773e-03
3.515000000000000069e-02 2.092337002977728844e-03
3.529999999999999805e-02 1.743931206874549389e-03
3.545000000000000234e-02 1.409862423315644264e-03
3.559999999999999970e-02 1.090008183382451534e-03
3.574999999999999706e-02 7.842216291464865208e-04
3.590000000000000135e-02 4.923347732983529568e-04
3.604999999999999871e-02 2.141617005690932274e-04
3.620000000000000301e-02 -5.050114123150706291e-05
3.635000000000000037e-02 -3.018754359800368547e-04
3.649999999999999772e-02 -5.401991074904799461e-04
3.665000000000000202e-02 -7.657237001694738865e-04
3.679999999999999938e-02 -9.787139715626835823e-04
3.694999999999999674e-02 -1.179448212496936321e-03
3.710000000000000103e-02 -1.368215773254632950e-03
3.724999999999999839e-02 -1.545313163660466671e-03
3.740000000000000269e-02 -1.711043529212474823e-03
3.755000000000000004e-02 -1.865718630142509937e-03
3.769999999999999740e-02 -2.009658608585596085e-03
3.785000000000000170e-02 -2.143188612535595894e-03
3.799999999999999906e-02 -2.266636118292808533e-03
3.815000000000000335e-02 -2.380331512540578842e-03
3.830000000000000071e-02 -2.484607743099331856e-03
3.844999999999999807e-02 -2.579797990620136261e-03
3.860000000000000236e-02 -2.666234271600842476e-03
3.874999999999999972e-02 -2.744249301031231880e-03
3.889999999999999708e-02 -2.814177190884947777e-03
3.905000000000000138e-02 -2.876351121813058853e-03
3.919999999999999873e-02 -2.931099850684404373e-03
3.935000000000000303e-02 -2.978746080771088600e-03
3.950000000000000039e-02 -3.019609954208135605e-03
3.964999999999999775e-02 -3.054007655009627342e-03
3.980000000000000204e-02 -3.082250477746129036e-03
3.994999999999999940e-02 -3.104644129052758217e-03
4.009999999999999676e-02 -3.121489658951759338e-03
4.025000000000000105e-02 -3.133083926513791084e-03
4.039999999999999841e-02 -3.139715176075696945e-03
4.055000000000000271e-02 -3.141662804409861565e-03
4.070000000000000007e-02 -3.139199456200003624e-03
4.084999999999999742e-02 -3.132592188194394112e-03
4.100000000000000172e-02 -3.122101537883281708e-03
4.114999999999999908e-02 -3.107979195192456245e-03
4.130000000000000338e-02 -3.090469865128397942e-03
4.145000000000000073e-02 -3.069810569286346436e-03
4.159999999999999809e-02 -3.046229714527726173e-03
4.175000000000000239e-02 -3.019945463165640831e-03
4.189999999999999974e-02 -2.991168294101953506e-03
4.204999999999999710e-02 -2.960102399811148643e-03
4.220000000000000140e-02 -2.926944987848401070e-03
4.234999999999999876e-02 -2.891885815188288689e-03
4.250000000000000305e-02 -2.855103928595781326e-03
4.265000000000000041e-02 -2.816771855577826500e-03
4.279999999999999777e-02 -2.777053043246269226e-03
4.295000000000000207e-02 -2.736103720963001251e-03
4.309999999999999942e-02 -2.694071736186742783e-03
4.324999999999999678e-02 -2.651098649948835373e-03
4.340000000000000108e-02 -2.607321366667747498e-03
4.354999999999999843e-02 -2.562867477536201477e-03
4.370000000000000273e-02 -2.517856657505035400e-03
4.385000000000000009e-02 -2.472401130944490433e-03
4.399999999999999745e-02 -2.426607534289360046e-03
4.415000000000000174e-02 -2.380576217547059059e-03
4.429999999999999910e-02 -2.334401477128267288e-03
4.445000000000000340e-02 -2.288171555846929550e-03
4.460000000000000075e-02 -2.241970272734761238e-03
4.474999999999999811e-02 -2.195874461904168129e-03
4.490000000000000241e-02 -2.149953739717602730e-03
4.504999999999999977e-02 -2.104271901771426201e-03
4.519999999999999712e-02 -2.058890182524919510e-03
4.535000000000000142e-02 -2.013866556808352470e-03
4.549999999999999878e-02 -1.969252945855259895e-03
4.565000000000000308e-02 -1.925096497870981693e-03
4.580000000000000043e-02 -1.881439355202019215e-03
4.594999999999999779e-02 -1.838320633396506310e-03
4.610000000000000209e-02 -1.795774092897772789e-03
4.624999999999999944e-02 -1.753829536028206348e-03
4.639999999999999680e-02 -1.712514669634401798e-03
4.655000000000000110e-02 -1.671855687163770199e-03
4.669999999999999846e-02 -1.631875406019389629e-03
4.685000000000000275e-02 -1.592591754160821438e-03
4.700000000000000011e-02 -1.554019632749259472e-03
4.714999999999999747e-02 -1.516171498224139214e-03
4.730000000000000177e-02 -1.479057245887815952e-03
4.744999999999999912e-02 -1.442684559151530266e-03
4.760000000000000342e-02 -1.407060306519269943e-03
4.775000000000000078e-02 -1.372190890833735466e-03
4.789999999999999813e-02 -1.338080037385225296e-03
4.805000000000000243e-02 -1.304726931266486645e-03
4.819999999999999979e-02 -1.272128196433186531e-03
4.834999999999999715e-02 -1.240280806086957455e-03