 -0.12000000000000000          0.0000000000000000
 -0.11889999999999999          0.0000000000000000
 -0.11780000000000000          0.0000000000000000
 -0.11670000000000000         -1.2938855716015940E-012
 -0.11559999999999999         -2.1593881197046194E-012
 -0.11449999999999999          4.1498679492768531E-012
 -0.11340000000000000         -1.0380641658758183E-011
 -0.11230000000000000         -1.4457700314718380E-010
 -0.11119999999999999         -4.1024339481054994E-010
 -0.11009999999999999         -3.8475667096804500E-010
 -0.10900000000000000          7.1693928571647803E-010
 -0.10790000000000000          2.8614515201752511E-009
 -0.10679999999999999          3.6604810293994205E-009
 -0.10569999999999999         -8.7241014412597906E-010
 -0.10460000000000000         -1.1501274599368116E-008
 -0.10349999999999999         -2.0209824924677378E-008
 -0.10239999999999999         -1.2033958718404847E-008
 -0.10130000000000000          2.1053912391266749E-008
 -0.10020000000000000          6.2860678440301854E-008
  -9.9099999999999994E-002     7.2426672659275937E-008
  -9.7999999999999990E-002     1.3137984922195756E-008
  -9.6899999999999986E-002    -1.0367669744937302E-007
  -9.5799999999999996E-002    -2.0150217494574463E-007
  -9.4699999999999993E-002    -1.7993821188611037E-007
  -9.3599999999999989E-002     1.6064092278611497E-009
  -9.2499999999999999E-002     2.6394457108835923E-007
  -9.1399999999999995E-002     4.3623768419820408E-007
  -9.0299999999999991E-002     3.6957828797312686E-007
  -8.9200000000000002E-002     5.3429332069754309E-008
  -8.8099999999999984E-002    -3.6277066328693763E-007
  -8.6999999999999994E-002    -6.6517554841993842E-007
  -8.5899999999999990E-002    -7.0826700948600774E-007
  -8.4799999999999986E-002    -4.7501470135102863E-007
  -8.3699999999999997E-002    -3.2589667853244464E-008
  -8.2599999999999993E-002     5.3840307145947008E-007
  -8.1499999999999989E-002     1.1398336710044532E-006
  -8.0399999999999999E-002     1.5755040294607170E-006
  -7.9299999999999995E-002     1.5175368162090308E-006
  -7.8199999999999992E-002     6.4832676116566290E-007
  -7.7100000000000002E-002    -1.0474110467839637E-006
  -7.5999999999999984E-002    -3.0520618565788027E-006
  -7.4899999999999994E-002    -4.3885288505407516E-006
  -7.3799999999999991E-002    -4.0521172195440158E-006
  -7.2699999999999987E-002    -1.5851722992010764E-006
  -7.1599999999999997E-002     2.5505562462058151E-006
  -7.0499999999999993E-002     7.0305559347616509E-006
  -6.9399999999999989E-002     1.0116431440110318E-005
  -6.8300000000000000E-002     1.0257900612486992E-005
  -6.7199999999999996E-002     6.5867288867593743E-006
  -6.6099999999999992E-002    -8.5181159192870837E-007
  -6.5000000000000002E-002    -1.1175286090292502E-005
  -6.3899999999999985E-002    -2.3033315301290713E-005
  -6.2799999999999995E-002    -3.5189470509067178E-005
  -6.1699999999999991E-002    -4.7122473915806040E-005
  -6.0599999999999994E-002    -5.9367634094087407E-005
  -5.9499999999999990E-002    -7.3399176471866667E-005
  -5.8399999999999994E-002    -9.1121248260606080E-005
  -5.7299999999999990E-002    -1.1430763697717339E-004
  -5.6199999999999986E-002    -1.4435854973271489E-004
  -5.5099999999999996E-002    -1.8247180560138077E-004
  -5.3999999999999992E-002    -2.2998767963144928E-004
  -5.2899999999999989E-002    -2.8858106816187501E-004
  -5.1799999999999985E-002    -3.6022052518092096E-004
  -5.0699999999999995E-002    -4.4712872477248311E-004
  -4.9599999999999991E-002    -5.5201241048052907E-004
  -4.8499999999999988E-002    -6.7852332722395658E-004
  -4.7399999999999998E-002    -8.3158432971686125E-004
  -4.6299999999999994E-002    -1.0172539623454213E-003
  -4.5199999999999990E-002    -1.2422313448041677E-003
  -4.4099999999999986E-002    -1.5135200228542089E-003
  -4.2999999999999997E-002    -1.8387276213616133E-003
  -4.1899999999999993E-002    -2.2269641049206257E-003
  -4.0799999999999989E-002    -2.6897741481661797E-003
  -3.9699999999999985E-002    -3.2415089663118124E-003
  -3.8599999999999995E-002    -3.8990261964499950E-003
  -3.7499999999999992E-002    -4.6811350621283054E-003
  -3.6399999999999988E-002    -5.6082848459482193E-003
  -3.5299999999999984E-002    -6.7026289179921150E-003
  -3.4199999999999994E-002    -7.9882312566041946E-003
  -3.3099999999999991E-002    -9.4912350177764893E-003
  -3.1999999999999987E-002    -1.1240183375775814E-002
  -3.0899999999999997E-002    -1.3266810216009617E-002
  -2.9799999999999993E-002    -1.5607277862727642E-002
  -2.8699999999999989E-002    -1.8303247168660164E-002
  -2.7599999999999986E-002    -2.1402010694146156E-002
  -2.6499999999999996E-002    -2.4955516681075096E-002
  -2.5399999999999992E-002    -2.9018951579928398E-002
  -2.4299999999999988E-002    -3.3649913966655731E-002
  -2.3199999999999985E-002    -3.8908585906028748E-002
  -2.2099999999999995E-002    -4.4858425855636597E-002
  -2.0999999999999991E-002    -5.1566425710916519E-002
  -1.9899999999999987E-002    -5.9102445840835571E-002
  -1.8799999999999983E-002    -6.7538060247898102E-002
  -1.7699999999999994E-002    -7.6945565640926361E-002
  -1.6599999999999990E-002    -8.7397336959838867E-002
  -1.5499999999999986E-002    -9.8965033888816833E-002
  -1.4399999999999996E-002   -0.11171789467334747
  -1.3299999999999992E-002   -0.12572045624256134
  -1.2199999999999989E-002   -0.14103032648563385
  -1.1099999999999985E-002   -0.15769679844379425
  -9.9999999999999950E-003   -0.17576001584529877
  -8.8999999999999913E-003   -0.19524952769279480
  -7.7999999999999875E-003   -0.21618133783340454
  -6.6999999999999837E-003   -0.23855383694171906
  -5.5999999999999939E-003   -0.26234394311904907
  -4.4999999999999901E-003   -0.28750461339950562
  -3.3999999999999864E-003   -0.31396347284317017
  -2.2999999999999826E-003   -0.34162122011184692
  -1.1999999999999927E-003   -0.37034898996353149
  -9.9999999999988987E-005   -0.39998492598533630
   1.0000000000000148E-003   -0.43033111095428467
   2.1000000000000185E-003   -0.46115207672119141
   3.2000000000000084E-003   -0.49217444658279419
   4.3000000000000121E-003   -0.52308630943298340
   5.4000000000000159E-003   -0.55353593826293945
   6.5000000000000058E-003   -0.58313071727752686
   7.6000000000000234E-003   -0.61143767833709717
   8.7000000000000133E-003   -0.63798666000366211
   9.8000000000000032E-003   -0.66227501630783081
   1.0900000000000021E-002   -0.68377161026000977
   1.2000000000000011E-002   -0.70191967487335205
   1.3100000000000001E-002   -0.71614009141921997
   1.4200000000000018E-002   -0.72583663463592529
   1.5300000000000008E-002   -0.73040390014648438
   1.6400000000000026E-002   -0.72923642396926880
   1.7500000000000016E-002   -0.72173839807510376
   1.8600000000000005E-002   -0.70733183622360229
   1.9700000000000023E-002   -0.68546509742736816
   2.0800000000000013E-002   -0.65562278032302856
   2.1900000000000003E-002   -0.61733800172805786
   2.3000000000000020E-002   -0.57020521163940430
   2.4100000000000010E-002   -0.51389020681381226
   2.5200000000000000E-002   -0.44813799858093262
   2.6300000000000018E-002   -0.37278032302856445
   2.7400000000000008E-002   -0.28774529695510864
   2.8500000000000025E-002   -0.19306707382202148
   2.9600000000000015E-002    -8.8895604014396667E-002
   3.0700000000000005E-002     2.4496316909790039E-002
   3.1800000000000023E-002    0.14671111106872559
   3.2900000000000013E-002    0.27722546458244324
   3.4000000000000002E-002    0.41538870334625244
   3.5100000000000020E-002    0.56042200326919556
   3.6200000000000010E-002    0.71141856908798218
   3.7300000000000028E-002    0.86734819412231445
   3.8400000000000017E-002     1.0270655155181885
   3.9500000000000007E-002     1.1893192529678345
   4.0600000000000025E-002     1.3527619838714600
   4.1700000000000015E-002     1.5159596204757690
   4.2800000000000005E-002     1.6774024963378906
   4.3900000000000022E-002     1.8355199098587036
   4.5000000000000012E-002     1.9886976480484009
   4.6100000000000002E-002     2.1352961063385010
   4.7200000000000020E-002     2.2736663818359375
   4.8300000000000010E-002     2.4021670818328857
   4.9400000000000027E-002     2.5191812515258789
   5.0500000000000017E-002     2.6231355667114258
   5.1600000000000007E-002     2.7125213146209717
   5.2700000000000025E-002     2.7859141826629639
   5.3800000000000014E-002     2.8419907093048096
   5.4900000000000004E-002     2.8795437812805176
   5.6000000000000022E-002     2.8974983692169189
   5.7100000000000012E-002     2.8949284553527832
   5.8200000000000002E-002     2.8710730075836182
   5.9300000000000019E-002     2.8253479003906250
   6.0400000000000009E-002     2.7573566436767578
   6.1500000000000027E-002     2.6668994426727295
   6.2600000000000017E-002     2.5539815425872803
   6.3700000000000007E-002     2.4188220500946045
   6.4800000000000024E-002     2.2618613243103027
   6.5900000000000014E-002     2.0837633609771729
   6.7000000000000004E-002     1.8854130506515503
   6.8100000000000022E-002     1.6679137945175171
   6.9200000000000012E-002     1.4325824975967407
   7.0300000000000029E-002     1.1809465885162354
   7.1400000000000019E-002    0.91473805904388428
   7.2500000000000009E-002    0.63588166236877441
   7.3600000000000027E-002    0.34647893905639648
   7.4700000000000016E-002     4.8789381980895996E-002
   7.5800000000000006E-002   -0.25478750467300415
   7.6900000000000024E-002   -0.56173050403594971
   7.8000000000000014E-002   -0.86941874027252197
   7.9100000000000004E-002    -1.1751579046249390
   8.0200000000000021E-002    -1.4762109518051147
   8.1300000000000011E-002    -1.7698304653167725
   8.2400000000000029E-002    -2.0532889366149902
   8.3500000000000019E-002    -2.3239078521728516
   8.4600000000000009E-002    -2.5790886878967285
   8.5700000000000026E-002    -2.8163468837738037
   8.6800000000000016E-002    -3.0333459377288818
   8.7900000000000006E-002    -3.2279314994812012
   8.9000000000000024E-002    -3.3981611728668213
   9.0100000000000013E-002    -3.5423307418823242
   9.1200000000000003E-002    -3.6590003967285156
   9.2300000000000021E-002    -3.7470178604125977
   9.3400000000000011E-002    -3.8055391311645508
   9.4500000000000028E-002    -3.8340446949005127
   9.5600000000000018E-002    -3.8323481082916260
   9.6700000000000008E-002    -3.8006002902984619
   9.7800000000000026E-002    -3.7392890453338623
   9.8900000000000016E-002    -3.6492366790771484
  0.10000000000000001         -3.5315928459167480
  0.10110000000000002         -3.3878188133239746
  0.10220000000000001         -3.2196669578552246
  0.10330000000000003         -3.0291547775268555
  0.10440000000000002         -2.8185362815856934
  0.10550000000000001         -2.5902714729309082
  0.10660000000000003         -2.3469920158386230
  0.10770000000000002         -2.0914626121520996
  0.10880000000000001         -1.8265380859375000
  0.10990000000000003         -1.5551213026046753
  0.11100000000000002         -1.2801214456558228
  0.11210000000000001         -1.0044153928756714
  0.11320000000000002        -0.73081189393997192
  0.11430000000000001        -0.46201181411743164
  0.11540000000000003        -0.20057030022144318
  0.11650000000000002          5.1136754453182220E-002
  0.11760000000000001         0.29094135761260986
  0.11870000000000003         0.51690447330474854
  0.11980000000000002         0.72733247280120850
  0.12090000000000001         0.92079311609268188
  0.12200000000000003          1.0961278676986694
  0.12310000000000001          1.2524567842483521
  0.12420000000000003          1.3891806602478027
  0.12530000000000002          1.5059734582901001
  0.12640000000000001          1.6027710437774658
  0.12750000000000003          1.6797603368759155
  0.12860000000000002          1.7373635768890381
  0.12970000000000001          1.7762206792831421
  0.13080000000000003          1.7971662282943726
  0.13190000000000002          1.8012034893035889
  0.13300000000000001          1.7894788980484009
  0.13410000000000000          1.7632572650909424
  0.13520000000000004          1.7238961458206177
  0.13630000000000003          1.6728192567825317
  0.13740000000000002          1.6114902496337891
  0.13850000000000001          1.5413870811462402
  0.13960000000000000          1.4639796018600464
  0.14070000000000005          1.3807103633880615
  0.14180000000000004          1.2929762601852417
  0.14290000000000003          1.2021107673645020
  0.14400000000000002          1.1093685626983643
  0.14510000000000001          1.0159132480621338
  0.14620000000000000         0.92280948162078857
  0.14730000000000004         0.83101803064346313
  0.14840000000000003         0.74139165878295898
  0.14950000000000002         0.65467172861099243
  0.15060000000000001         0.57148575782775879
  0.15170000000000000         0.49234914779663086
  0.15280000000000005         0.41767099499702454
  0.15390000000000004         0.34776157140731812
  0.15500000000000003         0.28283926844596863
  0.15610000000000002         0.22303561866283417
  0.15720000000000001         0.16840039193630219
  0.15830000000000000         0.11890916526317596
  0.15940000000000004          7.4473559856414795E-002
  0.16050000000000003          3.4952234476804733E-002
  0.16160000000000002          1.6014091670513153E-004
  0.16270000000000001         -3.0124727636575699E-002
  0.16380000000000000         -5.6155472993850708E-002
  0.16490000000000005         -7.8209154307842255E-002
  0.16600000000000004         -9.6578255295753479E-002
  0.16710000000000003        -0.11156214773654938
  0.16820000000000002        -0.12346101552248001
  0.16930000000000001        -0.13257263600826263
  0.17040000000000000        -0.13919006288051605
  0.17150000000000004        -0.14359854161739349
  0.17260000000000003        -0.14607159793376923
  0.17370000000000002        -0.14686755836009979
  0.17480000000000001        -0.14622773230075836
  0.17590000000000000        -0.14437596499919891
  0.17700000000000005        -0.14151839911937714
  0.17810000000000004        -0.13784268498420715
  0.17920000000000003        -0.13351704180240631
  0.18030000000000002        -0.12869063019752502
  0.18140000000000001        -0.12349528819322586
  0.18250000000000000        -0.11804737895727158
  0.18360000000000004        -0.11244870722293854
  0.18470000000000003        -0.10678616911172867
  0.18580000000000002        -0.10113155096769333
  0.18690000000000001         -9.5543205738067627E-002
  0.18800000000000000         -9.0069115161895752E-002
  0.18910000000000005         -8.4749497473239899E-002
  0.19020000000000004         -7.9617425799369812E-002
  0.19130000000000003         -7.4697673320770264E-002
  0.19240000000000002         -7.0005893707275391E-002
  0.19350000000000001         -6.5550044178962708E-002
  0.19460000000000005         -6.1333514750003815E-002
  0.19570000000000004         -5.7357780635356903E-002
  0.19680000000000003         -5.3622733801603317E-002
  0.19790000000000002         -5.0125114619731903E-002
  0.19900000000000001         -4.6857275068759918E-002
  0.20010000000000000         -4.3808091431856155E-002
  0.20120000000000005         -4.0965709835290909E-002
  0.20230000000000004         -3.8319893181324005E-002
  0.20340000000000003         -3.5862099379301071E-002
  0.20450000000000002         -3.3583588898181915E-002
  0.20560000000000000         -3.1473644077777863E-002
  0.20670000000000005         -2.9519526287913322E-002
  0.20780000000000004         -2.7708139270544052E-002
  0.20890000000000003         -2.6027832180261612E-002
