 -0.12000000000000000          0.0000000000000000
 -0.11889999999999999          0.0000000000000000
 -0.11780000000000000          0.0000000000000000
 -0.11670000000000000          0.0000000000000000
 -0.11559999999999999          0.0000000000000000
 -0.11449999999999999          0.0000000000000000
 -0.11340000000000000         -7.1597723138704800E-014
 -0.11230000000000000         -2.0318313275358851E-013
 -0.11119999999999999          5.7633135460213869E-013
 -0.11009999999999999          3.3909613398469540E-012
 -0.10900000000000000          2.1151019304055385E-012
 -0.10790000000000000         -2.1595216934122696E-011
 -0.10679999999999999         -6.5109882763092486E-011
 -0.10569999999999999         -2.7533220495201682E-011
 -0.10460000000000000          2.7108218447757793E-010
 -0.10349999999999999          7.4463890609166583E-010
 -0.10239999999999999          5.2651366599931748E-010
 -0.10130000000000000         -1.7064087920459770E-009
 -0.10020000000000000         -5.5004143462156208E-009
  -9.9099999999999994E-002    -5.8172728856220601E-009
  -9.7999999999999990E-002     5.2176027942607561E-009
  -9.6899999999999986E-002     2.7570369098839365E-008
  -9.5799999999999996E-002     3.9875690305279932E-008
  -9.4699999999999993E-002     4.2686219003940096E-009
  -9.3599999999999989E-002    -9.2932971540449216E-008
  -9.2499999999999999E-002    -1.8554389669134252E-007
  -9.1399999999999995E-002    -1.2829333684294397E-007
  -9.0299999999999991E-002     1.8056718431580521E-007
  -8.9200000000000002E-002     6.0358564724083408E-007
  -8.8099999999999984E-002     7.0193993906286778E-007
  -8.6999999999999994E-002     2.4175426105443876E-008
  -8.5899999999999990E-002    -1.3213129932410084E-006
  -8.4799999999999986E-002    -2.3146492367231986E-006
  -8.3699999999999997E-002    -1.5213026927085593E-006
  -8.2599999999999993E-002     1.5287821497622645E-006
  -8.1499999999999989E-002     5.1117067414452322E-006
  -8.0399999999999999E-002     5.7829620345728472E-006
  -7.9299999999999995E-002     1.0886031986956368E-006
  -7.8199999999999992E-002    -7.2230977821163833E-006
  -7.7100000000000002E-002    -1.2785899343725760E-005
  -7.5999999999999984E-002    -8.9234827100881375E-006
  -7.4899999999999994E-002     4.6435930016741622E-006
  -7.3799999999999991E-002     1.8754271877696738E-005
  -7.2699999999999987E-002     2.0270881577744149E-005
  -7.1599999999999997E-002     3.8382036109396722E-006
  -7.0499999999999993E-002    -1.9913406504201703E-005
  -6.9399999999999989E-002    -2.9687453206861392E-005
  -6.8300000000000000E-002    -1.1806214388343506E-005
  -6.7199999999999996E-002     2.2998085114522837E-005
  -6.6099999999999992E-002     4.2404921259731054E-005
  -6.5000000000000002E-002     1.8924336472991854E-005
  -6.3899999999999985E-002    -3.9302452933043242E-005
  -6.2799999999999995E-002    -8.3600105426739901E-005
  -6.1699999999999991E-002    -5.9586145653156564E-005
  -6.0599999999999994E-002     4.0122075006365776E-005
  -5.9499999999999990E-002     1.5170994447544217E-004
  -5.8399999999999994E-002     1.7657801799941808E-004
  -5.7299999999999990E-002     6.1033639212837443E-005
  -5.6199999999999986E-002    -1.4336274762172252E-004
  -5.5099999999999996E-002    -2.9812686261720955E-004
  -5.3999999999999992E-002    -2.7499042334966362E-004
  -5.2899999999999989E-002    -6.1384678701870143E-005
  -5.1799999999999985E-002     2.1486097830347717E-004
  -5.0699999999999995E-002     3.7224177503958344E-004
  -4.9599999999999991E-002     3.1132576987147331E-004
  -4.8499999999999988E-002     8.9507673692423850E-005
  -4.7399999999999998E-002    -1.2999995669815689E-004
  -4.6299999999999994E-002    -2.1419295808300376E-004
  -4.5199999999999990E-002    -1.6512871661689132E-004
  -4.4099999999999986E-002    -1.0170613677473739E-004
  -4.2999999999999997E-002    -1.3399585441220552E-004
  -4.1899999999999993E-002    -2.4349591694772243E-004
  -4.0799999999999989E-002    -2.8208384173922241E-004
  -3.9699999999999985E-002    -1.0019703040597960E-004
  -3.8599999999999995E-002     3.0123876058496535E-004
  -3.7499999999999992E-002     7.2817475302144885E-004
  -3.6399999999999988E-002     9.0666400501504540E-004
  -3.5299999999999984E-002     6.7134283017367125E-004
  -3.4199999999999994E-002     8.7447995611000806E-005
  -3.3099999999999991E-002    -5.8291194727644324E-004
  -3.1999999999999987E-002    -1.0415922151878476E-003
  -3.0899999999999997E-002    -1.1260806350037456E-003
  -2.9799999999999993E-002    -8.7975885253399611E-004
  -2.8699999999999989E-002    -4.8822720418684185E-004
  -2.7599999999999986E-002    -1.3821182074025273E-004
  -2.6499999999999996E-002     1.0388539521954954E-004
  -2.5399999999999992E-002     3.1839599250815809E-004
  -2.4299999999999988E-002     6.5032462589442730E-004
  -2.3199999999999985E-002     1.1746088275685906E-003
  -2.2099999999999995E-002     1.8082197057083249E-003
  -2.0999999999999991E-002     2.3554367944598198E-003
  -1.9899999999999987E-002     2.6890707667917013E-003
  -1.8799999999999983E-002     2.9515980277210474E-003
  -1.7699999999999994E-002     3.5958939697593451E-003
  -1.6599999999999990E-002     5.1600015722215176E-003
  -1.5499999999999986E-002     7.8726224601268768E-003
  -1.4399999999999996E-002     1.1373639106750488E-002
  -1.3299999999999992E-002     1.4825787395238876E-002
  -1.2199999999999989E-002     1.7437174916267395E-002
  -1.1099999999999985E-002     1.9074682146310806E-002
  -9.9999999999999950E-003     2.0508898422122002E-002
  -8.8999999999999913E-003     2.3055514320731163E-002
  -7.7999999999999875E-003     2.7829980477690697E-002
  -6.6999999999999837E-003     3.5156924277544022E-002
  -5.5999999999999939E-003     4.4584717601537704E-002
  -4.4999999999999901E-003     5.5491171777248383E-002
  -3.3999999999999864E-003     6.7802049219608307E-002
  -2.2999999999999826E-003     8.2259699702262878E-002
  -1.1999999999999927E-003    0.10005392134189606
  -9.9999999999988987E-005    0.12214680761098862
   1.0000000000000148E-003    0.14885136485099792
   2.1000000000000185E-003    0.17999427020549774
   3.2000000000000084E-003    0.21550565958023071
   4.3000000000000121E-003    0.25595858693122864
   5.4000000000000159E-003    0.30267032980918884
   6.5000000000000058E-003    0.35736107826232910
   7.6000000000000234E-003    0.42167240381240845
   8.7000000000000133E-003    0.49692240357398987
   9.8000000000000032E-003    0.58419191837310791
   1.0900000000000021E-002    0.68463999032974243
   1.2000000000000011E-002    0.79973024129867554
   1.3100000000000001E-002    0.93126380443572998
   1.4200000000000018E-002     1.0812208652496338
   1.5300000000000008E-002     1.2515068054199219
   1.6400000000000026E-002     1.4437766075134277
   1.7500000000000016E-002     1.6594526767730713
   1.8600000000000005E-002     1.8999568223953247
   1.9700000000000023E-002     2.1670203208923340
   2.0800000000000013E-002     2.4628729820251465
   2.1900000000000003E-002     2.7900772094726562
   2.3000000000000020E-002     3.1509845256805420
   2.4100000000000010E-002     3.5470697879791260
   2.5200000000000000E-002     3.9786374568939209
   2.6300000000000018E-002     4.4450230598449707
   2.7400000000000008E-002     4.9453749656677246
   2.8500000000000025E-002     5.4790334701538086
   2.9600000000000015E-002     6.0457315444946289
   3.0700000000000005E-002     6.6449794769287109
   3.1800000000000023E-002     7.2749543190002441
   3.2900000000000013E-002     7.9325623512268066
   3.4000000000000002E-002     8.6128749847412109
   3.5100000000000020E-002     9.3096208572387695
   3.6200000000000010E-002     10.015304565429688
   3.7300000000000028E-002     10.721117019653320
   3.8400000000000017E-002     11.417037963867188
   3.9500000000000007E-002     12.092288017272949
   4.0600000000000025E-002     12.734816551208496
   4.1700000000000015E-002     13.332533836364746
   4.2800000000000005E-002     13.871683120727539
   4.3900000000000022E-002     14.337258338928223
   4.5000000000000012E-002     14.713100433349609
   4.6100000000000002E-002     14.981124877929688
   4.7200000000000020E-002     15.122858047485352
   4.8300000000000010E-002     15.119600296020508
   4.9400000000000027E-002     14.952258110046387
   5.0500000000000017E-002     14.602583885192871
   5.1600000000000007E-002     14.053417205810547
   5.2700000000000025E-002     13.289899826049805
   5.3800000000000014E-002     12.298049926757812
   5.4900000000000004E-002     11.067033767700195
   5.6000000000000022E-002     9.5874834060668945
   5.7100000000000012E-002     7.8506002426147461
   5.8200000000000002E-002     5.8515501022338867
   5.9300000000000019E-002     3.5882334709167480
   6.0400000000000009E-002     1.0653166770935059
   6.1500000000000027E-002    -1.7099833488464355
   6.2600000000000017E-002    -4.7226333618164062
   6.3700000000000007E-002    -7.9545168876647949
   6.4800000000000024E-002    -11.381366729736328
   6.5900000000000014E-002    -14.975016593933105
   6.7000000000000004E-002    -18.700057983398438
   6.8100000000000022E-002    -22.519824981689453
   6.9200000000000012E-002    -26.393367767333984
   7.0300000000000029E-002    -30.273750305175781
   7.1400000000000019E-002    -34.109321594238281
   7.2500000000000009E-002    -37.847911834716797
   7.3600000000000027E-002    -41.435134887695312
   7.4700000000000016E-002    -44.812137603759766
   7.5800000000000006E-002    -47.923599243164062
   7.6900000000000024E-002    -50.712120056152344
   7.8000000000000014E-002    -53.123065948486328
   7.9100000000000004E-002    -55.104976654052734
   8.0200000000000021E-002    -56.611099243164062
   8.1300000000000011E-002    -57.600082397460938
   8.2400000000000029E-002    -58.039802551269531
   8.3500000000000019E-002    -57.902416229248047
   8.4600000000000009E-002    -57.170001983642578
   8.5700000000000026E-002    -55.827266693115234
   8.6800000000000016E-002    -53.873302459716797
   8.7900000000000006E-002    -51.316333770751953
   8.9000000000000024E-002    -48.177566528320312
   9.0100000000000013E-002    -44.488334655761719
   9.1200000000000003E-002    -40.289733886718750
   9.2300000000000021E-002    -35.628032684326172
   9.3400000000000011E-002    -30.559534072875977
   9.4500000000000028E-002    -25.149799346923828
   9.5600000000000018E-002    -19.475700378417969
   9.6700000000000008E-002    -13.620866775512695
   9.7800000000000026E-002    -7.6715002059936523
   9.8900000000000016E-002    -1.7143000364303589
  0.10000000000000001          4.1652336120605469
  0.10110000000000002          9.8787336349487305
  0.10220000000000001          15.338233947753906
  0.10330000000000003          20.455801010131836
  0.10440000000000002          25.150667190551758
  0.10550000000000001          29.353134155273438
  0.10660000000000003          33.000068664550781
  0.10770000000000002          36.040134429931641
  0.10880000000000001          38.428852081298828
  0.10990000000000003          40.132118225097656
  0.11100000000000002          41.130683898925781
  0.11210000000000001          41.419399261474609
  0.11320000000000002          41.009243011474609
  0.11430000000000001          39.924568176269531
  0.11540000000000003          38.201778411865234
  0.11650000000000002          35.885742187500000
  0.11760000000000001          33.035778045654297
  0.11870000000000003          29.726152420043945
  0.11980000000000002          26.037239074707031
  0.12090000000000001          22.063526153564453
  0.12200000000000003          17.899732589721680
  0.12310000000000001          13.647950172424316
  0.12420000000000003          9.4096670150756836
  0.12530000000000002          5.3026752471923828
  0.12640000000000001          1.4340666532516479
  0.12750000000000003         -2.0899999141693115
  0.12860000000000002         -5.1704335212707520
  0.12970000000000001         -7.7203502655029297
  0.13080000000000003         -9.6551332473754883
  0.13190000000000002         -10.892333030700684
  0.13300000000000001         -11.365425109863281
  0.13410000000000000         -11.021091461181641
  0.13520000000000004         -9.8265171051025391
  0.13630000000000003         -7.7725000381469727
  0.13740000000000002         -4.8579750061035156
  0.13850000000000001         -1.0888833999633789
  0.13960000000000000          3.5088250637054443
  0.14070000000000005          8.8904085159301758
  0.14180000000000004          14.987391471862793
  0.14290000000000003          21.707033157348633
  0.14400000000000002          28.947799682617188
  0.14510000000000001          36.600086212158203
  0.14620000000000000          44.543968200683594
  0.14730000000000004          52.653182983398438
  0.14840000000000003          60.782001495361328
  0.14950000000000002          68.771118164062500
  0.15060000000000001          76.457122802734375
  0.15170000000000000          83.686882019042969
  0.15280000000000005          90.314147949218750
  0.15390000000000004          96.192649841308594
  0.15500000000000003          101.17961883544922
  0.15610000000000002          105.13861846923828
  0.15720000000000001          107.94650268554688
  0.15830000000000000          109.49953460693359
  0.15940000000000004          109.71753692626953
  0.16050000000000003          108.54087066650391
  0.16160000000000002          105.92243194580078
  0.16270000000000001          101.83723449707031
  0.16380000000000000          96.289733886718750
  0.16490000000000005          89.310569763183594
  0.16600000000000004          80.958404541015625
  0.16710000000000003          71.312332153320312
  0.16820000000000002          60.470867156982422
  0.16930000000000001          48.552101135253906
  0.17040000000000000          35.698734283447266
  0.17150000000000004          22.075866699218750
  0.17260000000000003          7.8629999160766602
  0.17370000000000002         -6.7506666183471680
  0.17480000000000001         -21.573333740234375
  0.17590000000000000         -36.406700134277344
  0.17700000000000005         -51.048366546630859
  0.17810000000000004         -65.293266296386719
  0.17920000000000003         -78.940666198730469
  0.18030000000000002         -91.801704406738281
  0.18140000000000001         -103.70423126220703
  0.18250000000000000         -114.49626922607422
  0.18360000000000004         -124.04230499267578
  0.18470000000000003         -132.21762084960938
  0.18580000000000002         -138.91473388671875
  0.18690000000000001         -144.05987548828125
  0.18800000000000000         -147.60334777832031
  0.18910000000000005         -149.52595520019531
  0.19020000000000004         -149.83886718750000
  0.19130000000000003         -148.56259155273438
  0.19240000000000002         -145.73475646972656
  0.19350000000000001         -141.41976928710938
  0.19460000000000005         -135.71490478515625
  0.19570000000000004         -128.72770690917969
  0.19680000000000003         -120.59030151367188
  0.19790000000000002         -111.43830108642578
  0.19900000000000001         -101.41470336914062
  0.20010000000000000         -90.664367675781250
  0.20120000000000005         -79.343338012695312
  0.20230000000000004         -67.613899230957031
  0.20340000000000003         -55.641834259033203
  0.20450000000000002         -43.581165313720703
  0.20560000000000000         -31.576133728027344
  0.20670000000000005         -19.759300231933594
  0.20780000000000004         -8.2570333480834961
  0.20890000000000003          2.8087334632873535
