 -0.12000000000000000          0.0000000000000000
 -0.11889999999999999          0.0000000000000000
 -0.11780000000000000          0.0000000000000000
 -0.11670000000000000          0.0000000000000000
 -0.11559999999999999          0.0000000000000000
 -0.11449999999999999          9.5060924650169909E-005
 -0.11340000000000000          4.8254741705022752E-004
 -0.11230000000000000          7.7322969445958734E-004
 -0.11119999999999999         -1.0704675223678350E-003
 -0.11009999999999999         -7.6224282383918762E-003
 -0.10900000000000000         -1.6600469127297401E-002
 -0.10790000000000000         -1.5404697507619858E-002
 -0.10679999999999999          1.3600359670817852E-002
 -0.10569999999999999          7.1748659014701843E-002
 -0.10460000000000000         0.12169016897678375
 -0.10349999999999999          9.4744734466075897E-002
 -0.10239999999999999         -5.6625515222549438E-002
 -0.10130000000000000        -0.29151788353919983
 -0.10020000000000000        -0.46292451024055481
  -9.9099999999999994E-002   -0.39085352420806885
  -9.7999999999999990E-002     7.1606696583330631E-003
  -9.6899999999999986E-002    0.62088996171951294
  -9.5799999999999996E-002     1.1624538898468018
  -9.4699999999999993E-002     1.2861925363540649
  -9.3599999999999989E-002    0.74649602174758911
  -9.2499999999999999E-002   -0.46362143754959106
  -9.1399999999999995E-002    -2.0140390396118164
  -9.0299999999999991E-002    -3.2200155258178711
  -8.9200000000000002E-002    -3.2127914428710938
  -8.8099999999999984E-002    -1.3825027942657471
  -8.6999999999999994E-002     2.0387279987335205
  -8.5899999999999990E-002     5.6720552444458008
  -8.4799999999999986E-002     7.4170126914978027
  -8.3699999999999997E-002     5.6286773681640625
  -8.2599999999999993E-002    0.39818909764289856
  -8.1499999999999989E-002    -6.0454006195068359
  -8.0399999999999999E-002    -10.354396820068359
  -7.9299999999999995E-002    -10.030300140380859
  -7.8199999999999992E-002    -5.0563282966613770
  -7.7100000000000002E-002     1.9797286987304688
  -7.5999999999999984E-002     7.4250802993774414
  -7.4899999999999994E-002     8.7560710906982422
  -7.3799999999999991E-002     6.0014395713806152
  -7.2699999999999987E-002     1.5506855249404907
  -7.1599999999999997E-002    -1.4247583150863647
  -7.0499999999999993E-002   -0.91241484880447388
  -6.9399999999999989E-002     2.7656550407409668
  -6.8300000000000000E-002     7.1551256179809570
  -6.7199999999999996E-002     9.0656604766845703
  -6.6099999999999992E-002     6.2712936401367188
  -6.5000000000000002E-002    -1.5958160161972046
  -6.3899999999999985E-002    -13.489724159240723
  -6.2799999999999995E-002    -28.048837661743164
  -6.1699999999999991E-002    -43.749130249023438
  -6.0599999999999994E-002    -57.085590362548828
  -5.9499999999999990E-002    -59.944194793701172
  -5.8399999999999994E-002    -39.397224426269531
  -5.7299999999999990E-002     17.441698074340820
  -5.6199999999999986E-002     114.88002014160156
  -5.5099999999999996E-002     242.49671936035156
  -5.3999999999999992E-002     378.12646484375000
  -5.2899999999999989E-002     501.08184814453125
  -5.1799999999999985E-002     608.07055664062500
  -5.0699999999999995E-002     719.90521240234375
  -4.9599999999999991E-002     872.13745117187500
  -4.8499999999999988E-002     1094.6500244140625
  -4.7399999999999998E-002     1394.8255615234375
  -4.6299999999999994E-002     1757.6848144531250
  -4.5199999999999990E-002     2164.3291015625000
  -4.4099999999999986E-002     2616.3115234375000
  -4.2999999999999997E-002     3148.9328613281250
  -4.1899999999999993E-002     3824.4753417968750
  -4.0799999999999989E-002     4710.2631835937500
  -3.9699999999999985E-002     5855.8740234375000
  -3.8599999999999995E-002     7283.1791992187500
  -3.7499999999999992E-002     8994.6005859375000
  -3.6399999999999988E-002     10995.494140625000
  -3.5299999999999984E-002     13320.563476562500
  -3.4199999999999994E-002     16051.730468750000
  -3.3099999999999991E-002     19316.875000000000
  -3.1999999999999987E-002     23266.488281250000
  -3.0899999999999997E-002     28038.154296875000
  -2.9799999999999993E-002     33730.867187500000
  -2.8699999999999989E-002     40411.703125000000
  -2.7599999999999986E-002     48158.753906250000
  -2.6499999999999996E-002     57117.140625000000
  -2.5399999999999992E-002     67528.609375000000
  -2.4299999999999988E-002     79709.171875000000
  -2.3199999999999985E-002     93985.109375000000
  -2.2099999999999995E-002     110630.60937500000
  -2.0999999999999991E-002     129854.84375000000
  -1.9899999999999987E-002     151847.70312500000
  -1.8799999999999983E-002     176854.48437500000
  -1.7699999999999994E-002     205225.60937500000
  -1.6599999999999990E-002     237410.20312500000
  -1.5499999999999986E-002     273903.34375000000
  -1.4399999999999996E-002     315185.50000000000
  -1.3299999999999992E-002     361691.65625000000
  -1.2199999999999989E-002     413819.40625000000
  -1.1099999999999985E-002     471954.71875000000
  -9.9999999999999950E-003     536498.56250000000
  -8.8999999999999913E-003     607870.31250000000
  -7.7999999999999875E-003     686494.12500000000
  -6.6999999999999837E-003     772776.87500000000
  -5.5999999999999939E-003     867074.18750000000
  -4.4999999999999901E-003     969663.12500000000
  -3.3999999999999864E-003     1080732.7500000000
  -2.2999999999999826E-003     1200389.8750000000
  -1.1999999999999927E-003     1328670.6250000000
  -9.9999999999988987E-005     1465541.8750000000
   1.0000000000000148E-003     1610846.6250000000
   2.1000000000000185E-003     1764241.6250000000
   3.2000000000000084E-003     1925137.2500000000
   4.3000000000000121E-003     2092703.3750000000
   5.4000000000000159E-003     2265925.5000000000
   6.5000000000000058E-003     2443652.2500000000
   7.6000000000000234E-003     2624605.2500000000
   8.7000000000000133E-003     2807303.0000000000
   9.8000000000000032E-003     2989977.7500000000
   1.0900000000000021E-002     3170525.0000000000
   1.2000000000000011E-002     3346560.7500000000
   1.3100000000000001E-002     3515467.7500000000
   1.4200000000000018E-002     3674443.2500000000
   1.5300000000000008E-002     3820545.7500000000
   1.6400000000000026E-002     3950659.2500000000
   1.7500000000000016E-002     4061495.2500000000
   1.8600000000000005E-002     4149616.2500000000
   1.9700000000000023E-002     4211554.0000000000
   2.0800000000000013E-002     4243826.0000000000
   2.1900000000000003E-002     4243024.0000000000
   2.3000000000000020E-002     4205807.5000000000
   2.4100000000000010E-002     4129008.2500000000
   2.5200000000000000E-002     4009637.2500000000
   2.6300000000000018E-002     3844961.7500000000
   2.7400000000000008E-002     3632681.5000000000
   2.8500000000000025E-002     3370904.7500000000
   2.9600000000000015E-002     3058334.0000000000
   3.0700000000000005E-002     2694241.7500000000
   3.1800000000000023E-002     2278549.5000000000
   3.2900000000000013E-002     1811857.0000000000
   3.4000000000000002E-002     1295436.6250000000
   3.5100000000000020E-002     731330.12500000000
   3.6200000000000010E-002     122351.03906250000
   3.7300000000000028E-002    -527853.43750000000
   3.8400000000000017E-002    -1214866.1250000000
   3.9500000000000007E-002    -1933401.0000000000
   4.0600000000000025E-002    -2677396.5000000000
   4.1700000000000015E-002    -3440214.5000000000
   4.2800000000000005E-002    -4214511.0000000000
   4.3900000000000022E-002    -4992531.0000000000
   4.5000000000000012E-002    -5765972.0000000000
   4.6100000000000002E-002    -6526155.5000000000
   4.7200000000000020E-002    -7264156.0000000000
   4.8300000000000010E-002    -7971003.0000000000
   4.9400000000000027E-002    -8637846.0000000000
   5.0500000000000017E-002    -9256063.0000000000
   5.1600000000000007E-002    -9817271.0000000000
   5.2700000000000025E-002    -10313530.000000000
   5.3800000000000014E-002    -10737474.000000000
   5.4900000000000004E-002    -11082551.000000000
   5.6000000000000022E-002    -11343124.000000000
   5.7100000000000012E-002    -11514566.000000000
   5.8200000000000002E-002    -11593278.000000000
   5.9300000000000019E-002    -11576771.000000000
   6.0400000000000009E-002    -11463737.000000000
   6.1500000000000027E-002    -11254173.000000000
   6.2600000000000017E-002    -10949398.000000000
   6.3700000000000007E-002    -10552029.000000000
   6.4800000000000024E-002    -10065877.000000000
   6.5900000000000014E-002    -9495880.0000000000
   6.7000000000000004E-002    -8848074.0000000000
   6.8100000000000022E-002    -8129459.5000000000
   6.9200000000000012E-002    -7348004.0000000000
   7.0300000000000029E-002    -6512429.0000000000
   7.1400000000000019E-002    -5632091.5000000000
   7.2500000000000009E-002    -4716892.5000000000
   7.3600000000000027E-002    -3777038.5000000000
   7.4700000000000016E-002    -2822961.7500000000
   7.5800000000000006E-002    -1865018.1250000000
   7.6900000000000024E-002    -913388.93750000000
   7.8000000000000014E-002     22159.427734375000
   7.9100000000000004E-002     932207.50000000000
   8.0200000000000021E-002     1807838.8750000000
   8.1300000000000011E-002     2640809.0000000000
   8.2400000000000029E-002     3423728.2500000000
   8.3500000000000019E-002     4150211.5000000000
   8.4600000000000009E-002     4814946.5000000000
   8.5700000000000026E-002     5413474.0000000000
   8.6800000000000016E-002     5942255.5000000000
   8.7900000000000006E-002     6398718.5000000000
   8.9000000000000024E-002     6781263.0000000000
   9.0100000000000013E-002     7089580.5000000000
   9.1200000000000003E-002     7324513.5000000000
   9.2300000000000021E-002     7487718.0000000000
   9.3400000000000011E-002     7581498.5000000000
   9.4500000000000028E-002     7608674.5000000000
   9.5600000000000018E-002     7572811.5000000000
   9.6700000000000008E-002     7478176.5000000000
   9.7800000000000026E-002     7329685.0000000000
   9.8900000000000016E-002     7132634.0000000000
  0.10000000000000001          6892348.5000000000
  0.10110000000000002          6614193.0000000000
  0.10220000000000001          6303597.0000000000
  0.10330000000000003          5966170.5000000000
  0.10440000000000002          5607559.5000000000
  0.10550000000000001          5233184.0000000000
  0.10660000000000003          4848058.5000000000
  0.10770000000000002          4456815.0000000000
  0.10880000000000001          4063815.0000000000
  0.10990000000000003          3673201.0000000000
  0.11100000000000002          3288797.5000000000
  0.11210000000000001          2913850.2500000000
  0.11320000000000002          2551088.0000000000
  0.11430000000000001          2202799.2500000000
  0.11540000000000003          1870981.2500000000
  0.11650000000000002          1557348.1250000000
  0.11760000000000001          1263233.1250000000
  0.11870000000000003          989450.06250000000
  0.11980000000000002          736414.68750000000
  0.12090000000000001          504302.03125000000
  0.12200000000000003          293231.43750000000
  0.12310000000000001          103166.82812500000
  0.12420000000000003         -66306.164062500000
  0.12530000000000002         -216052.07812500000
  0.12640000000000001         -347207.43750000000
  0.12750000000000003         -460815.81250000000
  0.12860000000000002         -557656.68750000000
  0.12970000000000001         -638402.37500000000
  0.13080000000000003         -703951.18750000000
  0.13190000000000002         -755612.75000000000
  0.13300000000000001         -794911.06250000000
  0.13410000000000000         -823202.37500000000
  0.13520000000000004         -841458.37500000000
  0.13630000000000003         -850396.62500000000
  0.13740000000000002         -850850.56250000000
  0.13850000000000001         -843944.93750000000
  0.13960000000000000         -830961.93750000000
  0.14070000000000005         -813008.00000000000
  0.14180000000000004         -790827.68750000000
  0.14290000000000003         -764897.75000000000
  0.14400000000000002         -735769.43750000000
  0.14510000000000001         -704164.37500000000
  0.14620000000000000         -670917.06250000000
  0.14730000000000004         -636688.62500000000
  0.14840000000000003         -601879.75000000000
  0.14950000000000002         -566751.87500000000
  0.15060000000000001         -531661.81250000000
  0.15170000000000000         -497100.37500000000
  0.15280000000000005         -463507.53125000000
  0.15390000000000004         -431109.87500000000
  0.15500000000000003         -399918.59375000000
  0.15610000000000002         -369968.18750000000
  0.15720000000000001         -341476.40625000000
  0.15830000000000000         -314767.12500000000
  0.15940000000000004         -290039.93750000000
  0.16050000000000003         -267174.31250000000
  0.16160000000000002         -245897.96875000000
  0.16270000000000001         -226051.00000000000
  0.16380000000000000         -207782.26562500000
  0.16490000000000005         -191380.25000000000
  0.16600000000000004         -176941.04687500000
  0.16710000000000003         -164204.79687500000
  0.16820000000000002         -152710.64062500000
  0.16930000000000001         -142202.73437500000
  0.17040000000000000         -132775.31250000000
  0.17150000000000004         -124677.77343750000
  0.17260000000000003         -117942.87500000000
  0.17370000000000002         -112244.57812500000
  0.17480000000000001         -107102.06250000000
  0.17590000000000000         -102261.36718750000
  0.17700000000000005         -97840.234375000000
  0.17810000000000004         -94125.828125000000
  0.17920000000000003         -91202.273437500000
  0.18030000000000002         -88808.367187500000
  0.18140000000000001         -86515.796875000000
  0.18250000000000000         -84088.703125000000
  0.18360000000000004         -81621.468750000000
  0.18470000000000003         -79366.320312500000
  0.18580000000000002         -77427.687500000000
  0.18690000000000001         -75652.062500000000
  0.18800000000000000         -73787.640625000000
  0.18910000000000005         -71714.195312500000
  0.19020000000000004         -69517.445312500000
  0.19130000000000003         -67328.492187500000
  0.19240000000000002         -65186.410156250000
  0.19350000000000001         -63009.843750000000
  0.19460000000000005         -60760.636718750000
  0.19570000000000004         -58519.433593750000
  0.19680000000000003         -56417.125000000000
  0.19790000000000002         -54456.515625000000
  0.19900000000000001         -52475.171875000000
  0.20010000000000000         -50296.972656250000
  0.20120000000000005         -47950.394531250000
  0.20230000000000004         -45678.003906250000
  0.20340000000000003         -43719.546875000000
  0.20450000000000002         -42068.726562500000
  0.20560000000000000         -40467.636718750000
  0.20670000000000005         -38678.718750000000
  0.20780000000000004         -36742.433593750000
  0.20890000000000003         -34969.011718750000
