 -0.12000000000000000          0.0000000000000000
 -0.11889999999999999          0.0000000000000000
 -0.11780000000000000          0.0000000000000000
 -0.11670000000000000         -2.0869456420768984E-006
 -0.11559999999999999         -7.0124124249559827E-006
 -0.11449999999999999         -6.5525591708137654E-006
 -0.11340000000000000          1.2906185475003440E-005
 -0.11230000000000000          4.8707581299822778E-005
 -0.11119999999999999          6.4864187152124941E-005
 -0.11009999999999999          1.2473256902012508E-005
 -0.10900000000000000         -1.1524414003361017E-004
 -0.10790000000000000         -2.4465259048156440E-004
 -0.10679999999999999         -2.5112635921686888E-004
 -0.10569999999999999         -4.7337278374470770E-005
 -0.10460000000000000          3.3433322096243501E-004
 -0.10349999999999999          7.2133506182581186E-004
 -0.10239999999999999          8.4846990648657084E-004
 -0.10130000000000000          4.6146183740347624E-004
 -0.10020000000000000         -5.1525956951081753E-004
  -9.9099999999999994E-002    -1.7729247920215130E-003
  -9.7999999999999990E-002    -2.5389690417796373E-003
  -9.6899999999999986E-002    -1.8793827621266246E-003
  -9.5799999999999996E-002     5.6372559629380703E-004
  -9.4699999999999993E-002     3.8440944626927376E-003
  -9.3599999999999989E-002     5.7867276482284069E-003
  -9.2499999999999999E-002     4.2948890477418900E-003
  -9.1399999999999995E-002    -7.6608086237683892E-004
  -9.0299999999999991E-002    -6.6902707330882549E-003
  -8.9200000000000002E-002    -9.3009173870086670E-003
  -8.8099999999999984E-002    -6.0497638769447803E-003
  -8.6999999999999994E-002     1.5129663515836000E-003
  -8.5899999999999990E-002     8.3033945411443710E-003
  -8.4799999999999986E-002     9.4165885820984840E-003
  -8.3699999999999997E-002     4.1889804415404797E-003
  -8.2599999999999993E-002    -2.9765011277049780E-003
  -8.1499999999999989E-002    -6.1214519664645195E-003
  -8.0399999999999999E-002    -2.8159453067928553E-003
  -7.9299999999999995E-002     3.6358209326863289E-003
  -7.8199999999999992E-002     6.9707967340946198E-003
  -7.7100000000000002E-002     3.3381301909685135E-003
  -7.5999999999999984E-002    -5.5748564191162586E-003
  -7.4899999999999994E-002    -1.4446471817791462E-002
  -7.3799999999999991E-002    -1.9290601834654808E-002
  -7.2699999999999987E-002    -2.0675858482718468E-002
  -7.1599999999999997E-002    -2.2273380309343338E-002
  -7.0499999999999993E-002    -2.6600692421197891E-002
  -6.9399999999999989E-002    -3.2625336199998856E-002
  -6.8300000000000000E-002    -3.7754919379949570E-002
  -6.7199999999999996E-002    -4.1852619498968124E-002
  -6.6099999999999992E-002    -4.8520319163799286E-002
  -6.5000000000000002E-002    -6.1762072145938873E-002
  -6.3899999999999985E-002    -8.1424437463283539E-002
  -6.2799999999999995E-002   -0.10274486243724823
  -6.1699999999999991E-002   -0.12135513126850128
  -6.0599999999999994E-002   -0.13901473581790924
  -5.9499999999999990E-002   -0.16378955543041229
  -5.8399999999999994E-002   -0.20362347364425659
  -5.7299999999999990E-002   -0.25936150550842285
  -5.6199999999999986E-002   -0.32457971572875977
  -5.5099999999999996E-002   -0.39311644434928894
  -5.3999999999999992E-002   -0.46696162223815918
  -5.2899999999999989E-002   -0.55611723661422729
  -5.1799999999999985E-002   -0.66992467641830444
  -5.0699999999999995E-002   -0.80864864587783813
  -4.9599999999999991E-002   -0.96474629640579224
  -4.8499999999999988E-002    -1.1337505578994751
  -4.7399999999999998E-002    -1.3241181373596191
  -4.6299999999999994E-002    -1.5550296306610107
  -4.5199999999999990E-002    -1.8426432609558105
  -4.4099999999999986E-002    -2.1877098083496094
  -4.2999999999999997E-002    -2.5772833824157715
  -4.1899999999999993E-002    -3.0004994869232178
  -4.0799999999999989E-002    -3.4636249542236328
  -3.9699999999999985E-002    -3.9896874427795410
  -3.8599999999999995E-002    -4.6021976470947266
  -3.7499999999999992E-002    -5.3086872100830078
  -3.6399999999999988E-002    -6.1001758575439453
  -3.5299999999999984E-002    -6.9676704406738281
  -3.4199999999999994E-002    -7.9186639785766602
  -3.3099999999999991E-002    -8.9768190383911133
  -3.1999999999999987E-002    -10.164557456970215
  -3.0899999999999997E-002    -11.484719276428223
  -2.9799999999999993E-002    -12.921472549438477
  -2.8699999999999989E-002    -14.457583427429199
  -2.7599999999999986E-002    -16.092739105224609
  -2.6499999999999996E-002    -17.844671249389648
  -2.5399999999999992E-002    -19.730285644531250
  -2.4299999999999988E-002    -21.747564315795898
  -2.3199999999999985E-002    -23.875604629516602
  -2.2099999999999995E-002    -26.089174270629883
  -2.0999999999999991E-002    -28.375707626342773
  -1.9899999999999987E-002    -30.732130050659180
  -1.8799999999999983E-002    -33.147914886474609
  -1.7699999999999994E-002    -35.589054107666016
  -1.6599999999999990E-002    -38.006942749023438
  -1.5499999999999986E-002    -40.357460021972656
  -1.4399999999999996E-002    -42.609237670898438
  -1.3299999999999992E-002    -44.739418029785156
  -1.2199999999999989E-002    -46.712348937988281
  -1.1099999999999985E-002    -48.466556549072266
  -9.9999999999999950E-003    -49.932823181152344
  -8.8999999999999913E-003    -51.044750213623047
  -7.7999999999999875E-003    -51.757209777832031
  -6.6999999999999837E-003    -52.017829895019531
  -5.5999999999999939E-003    -51.758602142333984
  -4.4999999999999901E-003    -50.892349243164062
  -3.3999999999999864E-003    -49.337001800537109
  -2.2999999999999826E-003    -47.042720794677734
  -1.1999999999999927E-003    -43.991638183593750
  -9.9999999999988987E-005    -40.171905517578125
   1.0000000000000148E-003    -35.534454345703125
   2.1000000000000185E-003    -30.003641128540039
   3.2000000000000084E-003    -23.515642166137695
   4.3000000000000121E-003    -16.057746887207031
   5.4000000000000159E-003    -7.6668434143066406
   6.5000000000000058E-003     1.5954960584640503
   7.6000000000000234E-003     11.693361282348633
   8.7000000000000133E-003     22.605390548706055
   9.8000000000000032E-003     34.310752868652344
   1.0900000000000021E-002     46.721210479736328
   1.2000000000000011E-002     59.703903198242188
   1.3100000000000001E-002     73.099395751953125
   1.4200000000000018E-002     86.771156311035156
   1.5300000000000008E-002     100.59426879882812
   1.6400000000000026E-002     114.44493103027344
   1.7500000000000016E-002     128.15388488769531
   1.8600000000000005E-002     141.50445556640625
   1.9700000000000023E-002     154.27409362792969
   2.0800000000000013E-002     166.26518249511719
   2.1900000000000003E-002     177.30261230468750
   2.3000000000000020E-002     187.20336914062500
   2.4100000000000010E-002     195.76768493652344
   2.5200000000000000E-002     202.79225158691406
   2.6300000000000018E-002     208.10433959960938
   2.7400000000000008E-002     211.57592773437500
   2.8500000000000025E-002     213.10728454589844
   2.9600000000000015E-002     212.59428405761719
   3.0700000000000005E-002     209.93389892578125
   3.1800000000000023E-002     205.05958557128906
   3.2900000000000013E-002     197.95950317382812
   3.4000000000000002E-002     188.68086242675781
   3.5100000000000020E-002     177.30610656738281
   3.6200000000000010E-002     163.90492248535156
   3.7300000000000028E-002     148.53977966308594
   3.8400000000000017E-002     131.30776977539062
   3.9500000000000007E-002     112.39287567138672
   4.0600000000000025E-002     92.057762145996094
   4.1700000000000015E-002     70.590507507324219
   4.2800000000000005E-002     48.240348815917969
   4.3900000000000022E-002     25.211256027221680
   4.5000000000000012E-002     1.7042961120605469
   4.6100000000000002E-002    -22.012914657592773
   4.7200000000000020E-002    -45.602363586425781
   4.8300000000000010E-002    -68.710037231445312
   4.9400000000000027E-002    -91.056465148925781
   5.0500000000000017E-002    -112.43992614746094
   5.1600000000000007E-002    -132.70457458496094
   5.2700000000000025E-002    -151.63813781738281
   5.3800000000000014E-002    -168.99339294433594
   5.4900000000000004E-002    -184.51635742187500
   5.6000000000000022E-002    -198.02226257324219
   5.7100000000000012E-002    -209.44667053222656
   5.8200000000000002E-002    -218.77987670898438
   5.9300000000000019E-002    -226.01852416992188
   6.0400000000000009E-002    -231.11825561523438
   6.1500000000000027E-002    -234.03533935546875
   6.2600000000000017E-002    -234.78506469726562
   6.3700000000000007E-002    -233.46551513671875
   6.4800000000000024E-002    -230.20948791503906
   6.5900000000000014E-002    -225.16639709472656
   6.7000000000000004E-002    -218.44746398925781
   6.8100000000000022E-002    -210.16578674316406
   6.9200000000000012E-002    -200.47294616699219
   7.0300000000000029E-002    -189.56286621093750
   7.1400000000000019E-002    -177.64564514160156
   7.2500000000000009E-002    -164.89292907714844
   7.3600000000000027E-002    -151.46797180175781
   7.4700000000000016E-002    -137.54078674316406
   7.5800000000000006E-002    -123.30134582519531
   7.6900000000000024E-002    -108.93613433837891
   7.8000000000000014E-002    -94.607688903808594
   7.9100000000000004E-002    -80.415901184082031
   8.0200000000000021E-002    -66.447959899902344
   8.1300000000000011E-002    -52.790599822998047
   8.2400000000000029E-002    -39.576911926269531
   8.3500000000000019E-002    -26.942100524902344
   8.4600000000000009E-002    -14.989272117614746
   8.5700000000000026E-002    -3.7290661334991455
   8.6800000000000016E-002     6.8730063438415527
   8.7900000000000006E-002     16.819553375244141
   8.9000000000000024E-002     26.037921905517578
   9.0100000000000013E-002     34.424171447753906
   9.1200000000000003E-002     41.941387176513672
   9.2300000000000021E-002     48.639579772949219
   9.3400000000000011E-002     54.632171630859375
   9.4500000000000028E-002     59.995487213134766
   9.5600000000000018E-002     64.714065551757812
   9.6700000000000008E-002     68.722358703613281
   9.7800000000000026E-002     71.988670349121094
   9.8900000000000016E-002     74.570007324218750
  0.10000000000000001          76.576789855957031
  0.10110000000000002          78.097976684570312
  0.10220000000000001          79.146331787109375
  0.10330000000000003          79.675575256347656
  0.10440000000000002          79.659896850585938
  0.10550000000000001          79.141708374023438
  0.10660000000000003          78.221916198730469
  0.10770000000000002          76.990715026855469
  0.10880000000000001          75.479904174804688
  0.10990000000000003          73.667839050292969
  0.11100000000000002          71.537208557128906
  0.11210000000000001          69.117828369140625
  0.11320000000000002          66.473190307617188
  0.11430000000000001          63.661441802978516
  0.11540000000000003          60.706718444824219
  0.11650000000000002          57.607696533203125
  0.11760000000000001          54.370746612548828
  0.11870000000000003          51.036571502685547
  0.11980000000000002          47.656726837158203
  0.12090000000000001          44.268592834472656
  0.12200000000000003          40.876113891601562
  0.12310000000000001          37.484455108642578
  0.12420000000000003          34.120880126953125
  0.12530000000000002          30.832351684570312
  0.12640000000000001          27.662378311157227
  0.12750000000000003          24.616077423095703
  0.12860000000000002          21.664886474609375
  0.12970000000000001          18.783081054687500
  0.13080000000000003          15.988692283630371
  0.13190000000000002          13.342900276184082
  0.13300000000000001          10.899621009826660
  0.13410000000000000          8.6655769348144531
  0.13520000000000004          6.6001954078674316
  0.13630000000000003          4.6578068733215332
  0.13740000000000002          2.8372330665588379
  0.13850000000000001          1.1814258098602295
  0.13960000000000000        -0.26036292314529419
  0.14070000000000005         -1.4890331029891968
  0.14180000000000004         -2.5554070472717285
  0.14290000000000003         -3.5234735012054443
  0.14400000000000002         -4.4176735877990723
  0.14510000000000001         -5.2084698677062988
  0.14620000000000000         -5.8464212417602539
  0.14730000000000004         -6.3133215904235840
  0.14840000000000003         -6.6434917449951172
  0.14950000000000002         -6.8952250480651855
  0.15060000000000001         -7.1025137901306152
  0.15170000000000000         -7.2556581497192383
  0.15280000000000005         -7.3242025375366211
  0.15390000000000004         -7.2955880165100098
  0.15500000000000003         -7.1981878280639648
  0.15610000000000002         -7.0772805213928223
  0.15720000000000001         -6.9586877822875977
  0.15830000000000000         -6.8329916000366211
  0.15940000000000004         -6.6732363700866699
  0.16050000000000003         -6.4696140289306641
  0.16160000000000002         -6.2406916618347168
  0.16270000000000001         -6.0136141777038574
  0.16380000000000000         -5.7972512245178223
  0.16490000000000005         -5.5738935470581055
  0.16600000000000004         -5.3238158226013184
  0.16710000000000003         -5.0534973144531250
  0.16820000000000002         -4.7965068817138672
  0.16930000000000001         -4.5832214355468750
  0.17040000000000000         -4.4074659347534180
  0.17150000000000004         -4.2286291122436523
  0.17260000000000003         -4.0133938789367676
  0.17370000000000002         -3.7717161178588867
  0.17480000000000001         -3.5518903732299805
  0.17590000000000000         -3.3959310054779053
  0.17700000000000005         -3.2947700023651123
  0.17810000000000004         -3.1925754547119141
  0.17920000000000003         -3.0389940738677979
  0.18030000000000002         -2.8412506580352783
  0.18140000000000001         -2.6622042655944824
  0.18250000000000000         -2.5630912780761719
  0.18360000000000004         -2.5459060668945312
  0.18470000000000003         -2.5500199794769287
  0.18580000000000002         -2.5128126144409180
  0.18690000000000001         -2.4318118095397949
  0.18800000000000000         -2.3695886135101318
  0.18910000000000005         -2.3937940597534180
  0.19020000000000004         -2.5108959674835205
  0.19130000000000003         -2.6586320400238037
  0.19240000000000002         -2.7685034275054932
  0.19350000000000001         -2.8340051174163818
  0.19460000000000005         -2.9192700386047363
  0.19570000000000004         -3.0967087745666504
  0.19680000000000003         -3.3783838748931885
  0.19790000000000002         -3.7085559368133545
  0.19900000000000001         -4.0244412422180176
  0.20010000000000000         -4.3240327835083008
  0.20120000000000005         -4.6672143936157227
  0.20230000000000004         -5.1140475273132324
  0.20340000000000003         -5.6616325378417969
  0.20450000000000002         -6.2471604347229004
  0.20560000000000000         -6.8159360885620117
  0.20670000000000005         -7.3809990882873535
  0.20780000000000004         -8.0113677978515625
  0.20890000000000003         -8.7578191757202148
