 -0.12000000000000000          0.0000000000000000
 -0.11889999999999999          0.0000000000000000
 -0.11780000000000000          0.0000000000000000
 -0.11670000000000000          0.0000000000000000
 -0.11559999999999999         -5.7305150208408762E-012
 -0.11449999999999999         -1.6550582085383958E-011
 -0.11340000000000000          5.4211878042220718E-011
 -0.11230000000000000          4.1077413692747200E-010
 -0.11119999999999999          1.0219087798191140E-009
 -0.11009999999999999          9.1887614184216204E-010
 -0.10900000000000000         -1.7414357733613883E-009
 -0.10790000000000000         -7.4522432669255068E-009
 -0.10679999999999999         -1.1889438766843341E-008
 -0.10569999999999999         -5.7704778733125295E-009
 -0.10460000000000000          1.7471130320245720E-008
 -0.10349999999999999          4.9112607314327761E-008
 -0.10239999999999999          6.0467179707757168E-008
 -0.10130000000000000          1.9087980973608865E-008
 -0.10020000000000000         -7.7743209203617880E-008
  -9.9099999999999994E-002    -1.7868246970920154E-007
  -9.7999999999999990E-002    -1.9485084123971319E-007
  -9.6899999999999986E-002    -6.2053793215000042E-008
  -9.5799999999999996E-002     1.9018564501038782E-007
  -9.4699999999999993E-002     4.2338962202848052E-007
  -9.3599999999999989E-002     4.6063155423325952E-007
  -9.2499999999999999E-002     2.0915179277380958E-007
  -9.1399999999999995E-002    -2.4999360448418884E-007
  -9.0299999999999991E-002    -6.8042788825550815E-007
  -8.9200000000000002E-002    -8.2059750639018603E-007
  -8.8099999999999984E-002    -5.4663809123667306E-007
  -8.6999999999999994E-002     4.0876415141610778E-008
  -8.5899999999999990E-002     6.6703415768643026E-007
  -8.4799999999999986E-002     1.0368613629907486E-006
  -8.3699999999999997E-002     9.9007786502625095E-007
  -8.2599999999999993E-002     5.5790849273762433E-007
  -8.1499999999999989E-002    -9.6118100145758945E-008
  -8.0399999999999999E-002    -7.7639026585529791E-007
  -7.9299999999999995E-002    -1.2985279909116798E-006
  -7.8199999999999992E-002    -1.4579312619389384E-006
  -7.7100000000000002E-002    -1.0230023690382950E-006
  -7.5999999999999984E-002     1.2401335425238358E-007
  -7.4899999999999994E-002     1.7212669263244607E-006
  -7.3799999999999991E-002     2.9789362088195048E-006
  -7.2699999999999987E-002     2.8480515084083891E-006
  -7.1599999999999997E-002     7.3586420512583572E-007
  -7.0499999999999993E-002    -2.7677253910951549E-006
  -6.9399999999999989E-002    -5.8287646425014827E-006
  -6.8300000000000000E-002    -6.3080378822633065E-006
  -6.7199999999999996E-002    -3.2330340218322817E-006
  -6.6099999999999992E-002     2.2849137621960836E-006
  -6.5000000000000002E-002     7.5552829912339803E-006
  -6.3899999999999985E-002     1.0035434570454527E-005
  -6.2799999999999995E-002     8.9957802629214711E-006
  -6.1699999999999991E-002     5.7492306950734928E-006
  -6.0599999999999994E-002     2.2062160951463738E-006
  -5.9499999999999990E-002    -1.0375117653893540E-006
  -5.8399999999999994E-002    -5.4370848374674097E-006
  -5.7299999999999990E-002    -1.3464601579471491E-005
  -5.6199999999999986E-002    -2.6822373911272734E-005
  -5.5099999999999996E-002    -4.5571701775770634E-005
  -5.3999999999999992E-002    -6.8893103161826730E-005
  -5.2899999999999989E-002    -9.6571529866196215E-005
  -5.1799999999999985E-002    -1.2964120833203197E-004
  -5.0699999999999995E-002    -1.6960721404757351E-004
  -4.9599999999999991E-002    -2.1725580154452473E-004
  -4.8499999999999988E-002    -2.7256662724539638E-004
  -4.7399999999999998E-002    -3.3606757642701268E-004
  -4.6299999999999994E-002    -4.1036325274035335E-004
  -4.5199999999999990E-002    -5.0031265709549189E-004
  -4.4099999999999986E-002    -6.1178707983344793E-004
  -4.2999999999999997E-002    -7.5053487671539187E-004
  -4.1899999999999993E-002    -9.2254951596260071E-004
  -4.0799999999999989E-002    -1.1354640591889620E-003
  -3.9699999999999985E-002    -1.3989810831844807E-003
  -3.8599999999999995E-002    -1.7231805250048637E-003
  -3.7499999999999992E-002    -2.1161974873393774E-003
  -3.6399999999999988E-002    -2.5843826588243246E-003
  -3.5299999999999984E-002    -3.1363477464765310E-003
  -3.4199999999999994E-002    -3.7883496843278408E-003
  -3.3099999999999991E-002    -4.5662093907594681E-003
  -3.1999999999999987E-002    -5.5012409575283527E-003
  -3.0899999999999997E-002    -6.6230441443622112E-003
  -2.9799999999999993E-002    -7.9555306583642960E-003
  -2.8699999999999989E-002    -9.5203518867492676E-003
  -2.7599999999999986E-002    -1.1345478706061840E-002
  -2.6499999999999996E-002    -1.3471974059939384E-002
  -2.5399999999999992E-002    -1.5953509137034416E-002
  -2.4299999999999988E-002    -1.8849732354283333E-002
  -2.3199999999999985E-002    -2.2219862788915634E-002
  -2.2099999999999995E-002    -2.6122145354747772E-002
  -2.0999999999999991E-002    -3.0618665739893913E-002
  -1.9899999999999987E-002    -3.5780087113380432E-002
  -1.8799999999999983E-002    -4.1685864329338074E-002
  -1.7699999999999994E-002    -4.8420798033475876E-002
  -1.6599999999999990E-002    -5.6072920560836792E-002
  -1.5499999999999986E-002    -6.4735643565654755E-002
  -1.4399999999999996E-002    -7.4511736631393433E-002
  -1.3299999999999992E-002    -8.5513487458229065E-002
  -1.2199999999999989E-002    -9.7856700420379639E-002
  -1.1099999999999985E-002   -0.11165285110473633
  -9.9999999999999950E-003   -0.12700532376766205
  -8.8999999999999913E-003   -0.14401212334632874
  -7.7999999999999875E-003   -0.16277092695236206
  -6.6999999999999837E-003   -0.18337911367416382
  -5.5999999999999939E-003   -0.20592761039733887
  -4.4999999999999901E-003   -0.23049446940422058
  -3.3999999999999864E-003   -0.25714272260665894
  -2.2999999999999826E-003   -0.28592246770858765
  -1.1999999999999927E-003   -0.31687057018280029
  -9.9999999999988987E-005   -0.34999960660934448
   1.0000000000000148E-003   -0.38528168201446533
   2.1000000000000185E-003   -0.42263796925544739
   3.2000000000000084E-003   -0.46194028854370117
   4.3000000000000121E-003   -0.50302433967590332
   5.4000000000000159E-003   -0.54569923877716064
   6.5000000000000058E-003   -0.58974272012710571
   7.6000000000000234E-003   -0.63488334417343140
   8.7000000000000133E-003   -0.68078446388244629
   9.8000000000000032E-003   -0.72704160213470459
   1.0900000000000021E-002   -0.77319270372390747
   1.2000000000000011E-002   -0.81872367858886719
   1.3100000000000001E-002   -0.86306399106979370
   1.4200000000000018E-002   -0.90558272600173950
   1.5300000000000008E-002   -0.94558733701705933
   1.6400000000000026E-002   -0.98233640193939209
   1.7500000000000016E-002    -1.0150626897811890
   1.8600000000000005E-002    -1.0429897308349609
   1.9700000000000023E-002    -1.0653312206268311
   2.0800000000000013E-002    -1.0812834501266479
   2.1900000000000003E-002    -1.0900225639343262
   2.3000000000000020E-002    -1.0907213687896729
   2.4100000000000010E-002    -1.0825763940811157
   2.5200000000000000E-002    -1.0648317337036133
   2.6300000000000018E-002    -1.0368016958236694
   2.7400000000000008E-002   -0.99787789583206177
   2.8500000000000025E-002   -0.94754314422607422
   2.9600000000000015E-002   -0.88538789749145508
   3.0700000000000005E-002   -0.81112867593765259
   3.1800000000000023E-002   -0.72462683916091919
   3.2900000000000013E-002   -0.62589097023010254
   3.4000000000000002E-002   -0.51508074998855591
   3.5100000000000020E-002   -0.39251148700714111
   3.6200000000000010E-002   -0.25866943597793579
   3.7300000000000028E-002   -0.11422918736934662
   3.8400000000000017E-002     3.9939068257808685E-002
   3.9500000000000007E-002    0.20278203487396240
   4.0600000000000025E-002    0.37308654189109802
   4.1700000000000015E-002    0.54947918653488159
   4.2800000000000005E-002    0.73043006658554077
   4.3900000000000022E-002    0.91425943374633789
   4.5000000000000012E-002     1.0991591215133667
   4.6100000000000002E-002     1.2832412719726562
   4.7200000000000020E-002     1.4645776748657227
   4.8300000000000010E-002     1.6412172317504883
   4.9400000000000027E-002     1.8111912012100220
   5.0500000000000017E-002     1.9725234508514404
   5.1600000000000007E-002     2.1232731342315674
   5.2700000000000025E-002     2.2615926265716553
   5.3800000000000014E-002     2.3857717514038086
   5.4900000000000004E-002     2.4942622184753418
   5.6000000000000022E-002     2.5856790542602539
   5.7100000000000012E-002     2.6588084697723389
   5.8200000000000002E-002     2.7126412391662598
   5.9300000000000019E-002     2.7464165687561035
   6.0400000000000009E-002     2.7596533298492432
   6.1500000000000027E-002     2.7521541118621826
   6.2600000000000017E-002     2.7239880561828613
   6.3700000000000007E-002     2.6754724979400635
   6.4800000000000024E-002     2.6071722507476807
   6.5900000000000014E-002     2.5199091434478760
   6.7000000000000004E-002     2.4147551059722900
   6.8100000000000022E-002     2.2930111885070801
   6.9200000000000012E-002     2.1561722755432129
   7.0300000000000029E-002     2.0058958530426025
   7.1400000000000019E-002     1.8439848423004150
   7.2500000000000009E-002     1.6723678112030029
   7.3600000000000027E-002     1.4930682182312012
   7.4700000000000016E-002     1.3081492185592651
   7.5800000000000006E-002     1.1196666955947876
   7.6900000000000024E-002    0.92964375019073486
   7.8000000000000014E-002    0.74005985260009766
   7.9100000000000004E-002    0.55283266305923462
   8.0200000000000021E-002    0.36977067589759827
   8.1300000000000011E-002    0.19251748919487000
   8.2400000000000029E-002     2.2526361048221588E-002
   8.3500000000000019E-002   -0.13893488049507141
   8.4600000000000009E-002   -0.29075363278388977
   8.5700000000000026E-002   -0.43196591734886169
   8.6800000000000016E-002   -0.56179785728454590
   8.7900000000000006E-002   -0.67970830202102661
   8.9000000000000024E-002   -0.78541582822799683
   9.0100000000000013E-002   -0.87886732816696167
   9.1200000000000003E-002   -0.96015793085098267
   9.2300000000000021E-002    -1.0294913053512573
   9.3400000000000011E-002    -1.0871996879577637
   9.4500000000000028E-002    -1.1337845325469971
   9.5600000000000018E-002    -1.1699248552322388
   9.6700000000000008E-002    -1.1964159011840820
   9.7800000000000026E-002    -1.2140828371047974
   9.8900000000000016E-002    -1.2237339019775391
  0.10000000000000001         -1.2261818647384644
  0.10110000000000002         -1.2222895622253418
  0.10220000000000001         -1.2129762172698975
  0.10330000000000003         -1.1991592645645142
  0.10440000000000002         -1.1816784143447876
  0.10550000000000001         -1.1612645387649536
  0.10660000000000003         -1.1385664939880371
  0.10770000000000002         -1.1141941547393799
  0.10880000000000001         -1.0887240171432495
  0.10990000000000003         -1.0626568794250488
  0.11100000000000002         -1.0363700389862061
  0.11210000000000001         -1.0101232528686523
  0.11320000000000002        -0.98410564661026001
  0.11430000000000001        -0.95847219228744507
  0.11540000000000003        -0.93333804607391357
  0.11650000000000002        -0.90874189138412476
  0.11760000000000001        -0.88462716341018677
  0.11870000000000003        -0.86087614297866821
  0.11980000000000002        -0.83737236261367798
  0.12090000000000001        -0.81402850151062012
  0.12200000000000003        -0.79075407981872559
  0.12310000000000001        -0.76740139722824097
  0.12420000000000003        -0.74375730752944946
  0.12530000000000002        -0.71960121393203735
  0.12640000000000001        -0.69478172063827515
  0.12750000000000003        -0.66923910379409790
  0.12860000000000002        -0.64295262098312378
  0.12970000000000001        -0.61587059497833252
  0.13080000000000003        -0.58789730072021484
  0.13190000000000002        -0.55895453691482544
  0.13300000000000001        -0.52905714511871338
  0.13410000000000000        -0.49832358956336975
  0.13520000000000004        -0.46690866351127625
  0.13630000000000003        -0.43492478132247925
  0.13740000000000002        -0.40242922306060791
  0.13850000000000001        -0.36948671936988831
  0.13960000000000000        -0.33623957633972168
  0.14070000000000005        -0.30291327834129333
  0.14180000000000004        -0.26975235342979431
  0.14290000000000003        -0.23694929480552673
  0.14400000000000002        -0.20463728904724121
  0.14510000000000001        -0.17294457554817200
  0.14620000000000000        -0.14204618334770203
  0.14730000000000004        -0.11215617507696152
  0.14840000000000003         -8.3466626703739166E-002
  0.14950000000000002         -5.6097954511642456E-002
  0.15060000000000001         -3.0112937092781067E-002
  0.15170000000000000         -5.5769905447959900E-003
  0.15280000000000005          1.7406880855560303E-002
  0.15390000000000004          3.8725711405277252E-002
  0.15500000000000003          5.8316841721534729E-002
  0.15610000000000002          7.6192520558834076E-002
  0.15720000000000001          9.2397138476371765E-002
  0.15830000000000000         0.10694325715303421
  0.15940000000000004         0.11979569494724274
  0.16050000000000003         0.13092595338821411
  0.16160000000000002         0.14038126170635223
  0.16270000000000001         0.14829213917255402
  0.16380000000000000         0.15480545163154602
  0.16490000000000005         0.16000689566135406
  0.16600000000000004         0.16391284763813019
  0.16710000000000003         0.16654141247272491
  0.16820000000000002         0.16798947751522064
  0.16930000000000001         0.16843135654926300
  0.17040000000000000         0.16803690791130066
  0.17150000000000004         0.16689203679561615
  0.17260000000000003         0.16500088572502136
  0.17370000000000002         0.16236880421638489
  0.17480000000000001         0.15908177196979523
  0.17590000000000000         0.15530300140380859
  0.17700000000000005         0.15119357407093048
  0.17810000000000004         0.14683629572391510
  0.17920000000000003         0.14223654568195343
  0.18030000000000002         0.13739283382892609
  0.18140000000000001         0.13236114382743835
  0.18250000000000000         0.12724882364273071
  0.18360000000000004         0.12214906513690948
  0.18470000000000003         0.11708991229534149
  0.18580000000000002         0.11205042898654938
  0.18690000000000001         0.10702288150787354
  0.18800000000000000         0.10205125808715820
  0.18910000000000005          9.7207590937614441E-002
  0.19020000000000004          9.2536613345146179E-002
  0.19130000000000003          8.8032566010951996E-002
  0.19240000000000002          8.3672590553760529E-002
  0.19350000000000001          7.9466186463832855E-002
  0.19460000000000005          7.5461439788341522E-002
  0.19570000000000004          7.1697942912578583E-002
  0.19680000000000003          6.8160004913806915E-002
  0.19790000000000002          6.4785838127136230E-002
  0.19900000000000001          6.1529371887445450E-002
  0.20010000000000000          5.8410622179508209E-002
  0.20120000000000005          5.5497355759143829E-002
  0.20230000000000004          5.2832633256912231E-002
  0.20340000000000003          5.0383649766445160E-002
  0.20450000000000002          4.8068452626466751E-002
  0.20560000000000000          4.5836687088012695E-002
  0.20670000000000005          4.3720528483390808E-002
  0.20780000000000004          4.1801091283559799E-002
  0.20890000000000003          4.0121633559465408E-002
