 -0.12000000000000000         -2.7323796749114990
 -0.11889999999999999         -1.2527126073837280
 -0.11780000000000000         0.75595223903656006
 -0.11670000000000000          1.3152817487716675
 -0.11559999999999999         -4.1803002357482910E-002
 -0.11449999999999999         -1.8876173496246338
 -0.11340000000000000         -2.4282495975494385
 -0.11230000000000000         -1.3440901041030884
 -0.11119999999999999         -6.5459251403808594E-002
 -0.11009999999999999        -0.25174069404602051
 -0.10900000000000000         -2.0840544700622559
 -0.10790000000000000         -4.1264395713806152
 -0.10679999999999999         -4.8493680953979492
 -0.10569999999999999         -4.1986885070800781
 -0.10460000000000000         -3.5981771945953369
 -0.10349999999999999         -4.4423995018005371
 -0.10239999999999999         -6.6954770088195801
 -0.10130000000000000         -9.0432062149047852
 -0.10020000000000000         -10.375602722167969
  -9.9099999999999994E-002    -10.990732192993164
  -9.7999999999999990E-002    -12.255057334899902
  -9.6899999999999986E-002    -15.126738548278809
  -9.5799999999999996E-002    -19.150398254394531
  -9.4699999999999993E-002    -22.999774932861328
  -9.3599999999999989E-002    -25.970308303833008
  -9.2499999999999999E-002    -28.803247451782227
  -9.1399999999999995E-002    -32.947105407714844
  -9.0299999999999991E-002    -39.043167114257812
  -8.9200000000000002E-002    -46.264350891113281
  -8.8099999999999984E-002    -53.236675262451172
  -8.6999999999999994E-002    -59.575103759765625
  -8.5899999999999990E-002    -66.392822265625000
  -8.4799999999999986E-002    -75.213562011718750
  -8.3699999999999997E-002    -86.411956787109375
  -8.2599999999999993E-002    -98.819541931152344
  -8.1499999999999989E-002    -110.94351196289062
  -8.0399999999999999E-002    -122.52916717529297
  -7.9299999999999995E-002    -134.84928894042969
  -7.8199999999999992E-002    -149.38594055175781
  -7.7100000000000002E-002    -166.27268981933594
  -7.5999999999999984E-002    -184.10284423828125
  -7.4899999999999994E-002    -201.30889892578125
  -7.3799999999999991E-002    -217.66230773925781
  -7.2699999999999987E-002    -234.37579345703125
  -7.1599999999999997E-002    -252.67835998535156
  -7.0499999999999993E-002    -272.38208007812500
  -6.9399999999999989E-002    -291.85229492187500
  -6.8300000000000000E-002    -309.42691040039062
  -6.7199999999999996E-002    -324.78289794921875
  -6.6099999999999992E-002    -338.82141113281250
  -6.5000000000000002E-002    -352.32470703125000
  -6.3899999999999985E-002    -364.68286132812500
  -6.2799999999999995E-002    -374.12405395507812
  -6.1699999999999991E-002    -379.05062866210938
  -6.0599999999999994E-002    -379.12457275390625
  -5.9499999999999990E-002    -375.01199340820312
  -5.8399999999999994E-002    -367.01104736328125
  -5.7299999999999990E-002    -354.20535278320312
  -5.6199999999999986E-002    -334.82330322265625
  -5.5099999999999996E-002    -307.64559936523438
  -5.3999999999999992E-002    -272.66839599609375
  -5.2899999999999989E-002    -230.61235046386719
  -5.1799999999999985E-002    -181.66326904296875
  -5.0699999999999995E-002    -124.90712738037109
  -4.9599999999999991E-002    -59.089534759521484
  -4.8499999999999988E-002     16.208589553833008
  -4.7399999999999998E-002     100.10167694091797
  -4.6299999999999994E-002     191.22059631347656
  -4.5199999999999990E-002     288.84002685546875
  -4.4099999999999986E-002     393.24343872070312
  -4.2999999999999997E-002     504.67263793945312
  -4.1899999999999993E-002     622.30749511718750
  -4.0799999999999989E-002     744.03070068359375
  -3.9699999999999985E-002     867.33923339843750
  -3.8599999999999995E-002     990.76538085937500
  -3.7499999999999992E-002     1113.6794433593750
  -3.6399999999999988E-002     1235.3060302734375
  -3.5299999999999984E-002     1353.5950927734375
  -3.4199999999999994E-002     1465.3902587890625
  -3.3099999999999991E-002     1567.5977783203125
  -3.1999999999999987E-002     1658.2918701171875
  -3.0899999999999997E-002     1736.4354248046875
  -2.9799999999999993E-002     1800.8962402343750
  -2.8699999999999989E-002     1849.4982910156250
  -2.7599999999999986E-002     1879.3156738281250
  -2.6499999999999996E-002     1887.8731689453125
  -2.5399999999999992E-002     1874.0396728515625
  -2.4299999999999988E-002     1837.7889404296875
  -2.3199999999999985E-002     1779.1425781250000
  -2.2099999999999995E-002     1697.2515869140625
  -2.0999999999999991E-002     1590.9232177734375
  -1.9899999999999987E-002     1459.7293701171875
  -1.8799999999999983E-002     1304.8156738281250
  -1.7699999999999994E-002     1128.3227539062500
  -1.6599999999999990E-002     932.36895751953125
  -1.5499999999999986E-002     718.41937255859375
  -1.4399999999999996E-002     487.70458984375000
  -1.3299999999999992E-002     242.39973449707031
  -1.2199999999999989E-002    -14.009835243225098
  -1.1099999999999985E-002    -277.28021240234375
  -9.9999999999999950E-003    -543.56378173828125
  -8.8999999999999913E-003    -809.87957763671875
  -7.7999999999999875E-003    -1073.4344482421875
  -6.6999999999999837E-003    -1330.8092041015625
  -5.5999999999999939E-003    -1577.6955566406250
  -4.4999999999999901E-003    -1809.5594482421875
  -3.3999999999999864E-003    -2022.8813476562500
  -2.2999999999999826E-003    -2215.1621093750000
  -1.1999999999999927E-003    -2384.3420410156250
  -9.9999999999988987E-005    -2528.1721191406250
   1.0000000000000148E-003    -2643.8310546875000
   2.1000000000000185E-003    -2728.8571777343750
   3.2000000000000084E-003    -2782.1279296875000
   4.3000000000000121E-003    -2803.5979003906250
   5.4000000000000159E-003    -2793.9267578125000
   6.5000000000000058E-003    -2753.5014648437500
   7.6000000000000234E-003    -2682.4528808593750
   8.7000000000000133E-003    -2581.5908203125000
   9.8000000000000032E-003    -2452.6162109375000
   1.0900000000000021E-002    -2298.4284667968750
   1.2000000000000011E-002    -2122.2509765625000
   1.3100000000000001E-002    -1926.8775634765625
   1.4200000000000018E-002    -1714.8621826171875
   1.5300000000000008E-002    -1488.9110107421875
   1.6400000000000026E-002    -1252.5727539062500
   1.7500000000000016E-002    -1009.9909667968750
   1.8600000000000005E-002    -765.07580566406250
   1.9700000000000023E-002    -521.07183837890625
   2.0800000000000013E-002    -280.60772705078125
   2.1900000000000003E-002    -46.385772705078125
   2.3000000000000020E-002     178.51600646972656
   2.4100000000000010E-002     390.96029663085938
   2.5200000000000000E-002     588.33819580078125
   2.6300000000000018E-002     768.99548339843750
   2.7400000000000008E-002     931.93847656250000
   2.8500000000000025E-002     1076.2030029296875
   2.9600000000000015E-002     1200.6436767578125
   3.0700000000000005E-002     1304.2828369140625
   3.1800000000000023E-002     1386.7821044921875
   3.2900000000000013E-002     1448.6658935546875
   3.4000000000000002E-002     1490.9504394531250
   3.5100000000000020E-002     1514.5374755859375
   3.6200000000000010E-002     1520.1751708984375
   3.7300000000000028E-002     1508.5982666015625
   3.8400000000000017E-002     1481.1020507812500
   3.9500000000000007E-002     1439.5390625000000
   4.0600000000000025E-002     1385.9932861328125
   4.1700000000000015E-002     1322.2132568359375
   4.2800000000000005E-002     1249.5832519531250
   4.3900000000000022E-002     1169.4571533203125
   4.5000000000000012E-002     1083.4260253906250
   4.6100000000000002E-002     993.41827392578125
   4.7200000000000020E-002     901.30572509765625
   4.8300000000000010E-002     808.53985595703125
   4.9400000000000027E-002     716.11816406250000
   5.0500000000000017E-002     624.92907714843750
   5.1600000000000007E-002     535.95867919921875
   5.2700000000000025E-002     450.42816162109375
   5.3800000000000014E-002     369.29797363281250
   5.4900000000000004E-002     293.14175415039062
   5.6000000000000022E-002     222.14823913574219
   5.7100000000000012E-002     156.45106506347656
   5.8200000000000002E-002     96.316665649414062
   5.9300000000000019E-002     42.093978881835938
   6.0400000000000009E-002    -6.0074658393859863
   6.1500000000000027E-002    -48.160705566406250
   6.2600000000000017E-002    -84.764907836914062
   6.3700000000000007E-002    -116.16140747070312
   6.4800000000000024E-002    -142.51565551757812
   6.5900000000000014E-002    -163.95185852050781
   6.7000000000000004E-002    -180.73194885253906
   6.8100000000000022E-002    -193.31742858886719
   6.9200000000000012E-002    -202.27836608886719
   7.0300000000000029E-002    -208.08128356933594
   7.1400000000000019E-002    -211.00299072265625
   7.2500000000000009E-002    -211.26184082031250
   7.3600000000000027E-002    -209.15054321289062
   7.4700000000000016E-002    -205.11297607421875
   7.5800000000000006E-002    -199.59416198730469
   7.6900000000000024E-002    -192.91741943359375
   7.8000000000000014E-002    -185.28092956542969
   7.9100000000000004E-002    -176.82041931152344
   8.0200000000000021E-002    -167.74635314941406
   8.1300000000000011E-002    -158.32365417480469
   8.2400000000000029E-002    -148.81758117675781
   8.3500000000000019E-002    -139.37059020996094
   8.4600000000000009E-002    -130.04991149902344
   8.5700000000000026E-002    -120.90911102294922
   8.6800000000000016E-002    -112.02946472167969
   8.7900000000000006E-002    -103.52290344238281
   8.9000000000000024E-002    -95.461502075195312
   9.0100000000000013E-002    -87.852844238281250
   9.1200000000000003E-002    -80.681251525878906
   9.2300000000000021E-002    -73.946212768554688
   9.3400000000000011E-002    -67.669059753417969
   9.4500000000000028E-002    -61.869651794433594
   9.5600000000000018E-002    -56.533161163330078
   9.6700000000000008E-002    -51.629314422607422
   9.7800000000000026E-002    -47.131366729736328
   9.8900000000000016E-002    -43.019420623779297
  0.10000000000000001         -39.278972625732422
  0.10110000000000002         -35.873920440673828
  0.10220000000000001         -32.764568328857422
  0.10330000000000003         -29.928804397583008
  0.10440000000000002         -27.359273910522461
  0.10550000000000001         -25.041515350341797
  0.10660000000000003         -22.927816390991211
  0.10770000000000002         -20.965816497802734
  0.10880000000000001         -19.146286010742188
  0.10990000000000003         -17.512165069580078
  0.11100000000000002         -16.105415344238281
  0.11210000000000001         -14.897894859313965
  0.11320000000000002         -13.789324760437012
  0.11430000000000001         -12.689468383789062
  0.11540000000000003         -11.608795166015625
  0.11650000000000002         -10.658327102661133
  0.11760000000000001         -9.9262323379516602
  0.11870000000000003         -9.3685035705566406
  0.11980000000000002         -8.8230123519897461
  0.12090000000000001         -8.1598081588745117
  0.12200000000000003         -7.4173979759216309
  0.12310000000000001         -6.7744736671447754
  0.12420000000000003         -6.3736934661865234
  0.12530000000000002         -6.1623234748840332
  0.12640000000000001         -5.9227910041809082
  0.12750000000000003         -5.4798979759216309
  0.12860000000000002         -4.8807802200317383
  0.12970000000000001         -4.3537607192993164
  0.13080000000000003         -4.0773162841796875
  0.13190000000000002         -3.9939970970153809
  0.13300000000000001         -3.8554682731628418
  0.13410000000000000         -3.4715678691864014
  0.13520000000000004         -2.9050087928771973
  0.13630000000000003         -2.4163372516632080
  0.13740000000000002         -2.2051944732666016
  0.13850000000000001         -2.2100019454956055
  0.13960000000000000         -2.1755924224853516
  0.14070000000000005         -1.9178712368011475
  0.14180000000000004         -1.5098403692245483
  0.14290000000000003         -1.2067159414291382
  0.14400000000000002         -1.1760946512222290
  0.14510000000000001         -1.3268090486526489
  0.14620000000000000         -1.4054884910583496
  0.14730000000000004         -1.2662202119827271
  0.14840000000000003         -1.0225250720977783
  0.14950000000000002        -0.92459708452224731
  0.15060000000000001         -1.0928877592086792
  0.15170000000000000         -1.3867887258529663
  0.15280000000000005         -1.5509618520736694
  0.15390000000000004         -1.4859045743942261
  0.15500000000000003         -1.3492914438247681
  0.15610000000000002         -1.3836104869842529
  0.15720000000000001         -1.6479225158691406
  0.15830000000000000         -1.9437097311019897
  0.15940000000000004         -2.0191559791564941
  0.16050000000000003         -1.8367016315460205
  0.16160000000000002         -1.6188539266586304
  0.16270000000000001         -1.6178323030471802
  0.16380000000000000         -1.8468157052993774
  0.16490000000000005         -2.0601992607116699
  0.16600000000000004         -2.0065555572509766
  0.16710000000000003         -1.6966949701309204
  0.16820000000000002         -1.3992840051651001
  0.16930000000000001         -1.3658777475357056
  0.17040000000000000         -1.5670105218887329
  0.17150000000000004         -1.7199965715408325
  0.17260000000000003         -1.5806410312652588
  0.17370000000000002         -1.1996121406555176
  0.17480000000000001        -0.87376457452774048
  0.17590000000000000        -0.84347015619277954
  0.17700000000000005         -1.0466111898422241
  0.17810000000000004         -1.1858310699462891
  0.17920000000000003         -1.0388875007629395
  0.18030000000000002        -0.68761366605758667
  0.18140000000000001        -0.43004265427589417
  0.18250000000000000        -0.46642574667930603
  0.18360000000000004        -0.69115990400314331
  0.18470000000000003        -0.80240184068679810
  0.18580000000000002        -0.61671358346939087
  0.18690000000000001        -0.25655430555343628
  0.18800000000000000         -1.8962254747748375E-002
  0.18910000000000005         -6.3943333923816681E-002
  0.19020000000000004        -0.25091725587844849
  0.19130000000000003        -0.29133039712905884
  0.19240000000000002         -5.5545065551996231E-002
  0.19350000000000001         0.28997600078582764
  0.19460000000000005         0.45772284269332886
  0.19570000000000004         0.34191533923149109
  0.19680000000000003         0.12868861854076385
  0.19790000000000002          9.9433131515979767E-002
  0.19900000000000001         0.33464655280113220
  0.20010000000000000         0.62758165597915649
  0.20120000000000005         0.69952446222305298
  0.20230000000000004         0.48865133523941040
  0.20340000000000003         0.21234004199504852
  0.20450000000000002         0.13692383468151093
  0.20560000000000000         0.29804760217666626
  0.20670000000000005         0.46333080530166626
  0.20780000000000004         0.37628903985023499
  0.20890000000000003          2.6204014196991920E-002
