 -0.12000000000000000          0.0000000000000000
 -0.11889999999999999          0.0000000000000000
 -0.11780000000000000          0.0000000000000000
 -0.11670000000000000          0.0000000000000000
 -0.11559999999999999          2.4662798921363366E-016
 -0.11449999999999999         -7.5885152348920733E-018
 -0.11340000000000000         -4.4772456938055967E-016
 -0.11230000000000000         -1.3583509503697000E-015
 -0.11119999999999999         -4.2723554118865963E-015
 -0.11009999999999999         -1.8440182547433976E-015
 -0.10900000000000000          1.4183005965962177E-014
 -0.10790000000000000          3.1667034852645923E-014
 -0.10679999999999999          3.7495045046229136E-014
 -0.10569999999999999          2.1953687918139023E-014
 -0.10460000000000000         -1.3014366467096680E-014
 -0.10349999999999999         -9.8491832365658200E-014
 -0.10239999999999999         -1.7231328126518508E-013
 -0.10130000000000000         -7.1294458238533448E-014
 -0.10020000000000000          1.2297251433292244E-013
  -9.9099999999999994E-002     3.8717558889858616E-013
  -9.7999999999999990E-002     6.5914933016983368E-013
  -9.6899999999999986E-002     5.0373577921772328E-013
  -9.5799999999999996E-002    -1.4900119983327076E-013
  -9.4699999999999993E-002    -6.2301260071034870E-013
  -9.3599999999999989E-002    -2.7333208396304598E-013
  -9.2499999999999999E-002     8.3010426874322030E-013
  -9.1399999999999995E-002     8.9226965659799928E-013
  -9.0299999999999991E-002    -1.6098888715176951E-012
  -8.9200000000000002E-002    -4.0809647328110543E-012
  -8.8099999999999984E-002    -2.8065733331111842E-012
  -8.6999999999999994E-002     2.6173601046924899E-012
  -8.5899999999999990E-002     8.5696996374173828E-012
  -8.4799999999999986E-002     7.6061362069834715E-012
  -8.3699999999999997E-002    -3.0241521092877477E-012
  -8.2599999999999993E-002    -1.3530109324588757E-011
  -8.1499999999999989E-002    -1.3685522333439781E-011
  -8.0399999999999999E-002    -2.3403319213133322E-012
  -7.9299999999999995E-002     1.6247132111901763E-011
  -7.8199999999999992E-002     3.0016773788776874E-011
  -7.7100000000000002E-002     1.6122799276208077E-011
  -7.5999999999999984E-002    -2.6211857337421485E-011
  -7.4899999999999994E-002    -5.4186297809843964E-011
  -7.3799999999999991E-002    -5.3751138956448230E-011
  -7.2699999999999987E-002    -2.9195795087089138E-011
  -7.1599999999999997E-002     3.7694205395899516E-011
  -7.0499999999999993E-002     1.1726594695282699E-010
  -6.9399999999999989E-002     1.4909463941226164E-010
  -6.8300000000000000E-002     7.3501475739146116E-011
  -6.7199999999999996E-002    -7.1716965699408775E-011
  -6.6099999999999992E-002    -1.6024054305674440E-010
  -6.5000000000000002E-002    -1.4034760853487427E-010
  -6.3899999999999985E-002    -5.7791917085214806E-011
  -6.2799999999999995E-002     3.5704886963694449E-011
  -6.1699999999999991E-002     3.1726302140988594E-011
  -6.0599999999999994E-002    -1.1349213929756630E-010
  -5.9499999999999990E-002    -2.9053928707334364E-010
  -5.8399999999999994E-002    -6.7738398223937679E-011
  -5.7299999999999990E-002     7.4389339133063004E-010
  -5.6199999999999986E-002     1.7703689625392371E-009
  -5.5099999999999996E-002     1.4162746531098946E-009
  -5.3999999999999992E-002    -9.9474917192310386E-010
  -5.2899999999999989E-002    -3.4057729969561024E-009
  -5.1799999999999985E-002    -3.2943723304867945E-009
  -5.0699999999999995E-002     4.4550008126975627E-010
  -4.9599999999999991E-002     5.3152913181975237E-009
  -4.8499999999999988E-002     5.1720618898798421E-009
  -4.7399999999999998E-002    -1.7984231881484902E-009
  -4.6299999999999994E-002    -9.0553662346337660E-009
  -4.5199999999999990E-002    -7.4957595685987144E-009
  -4.4099999999999986E-002     3.1031972547168607E-009
  -4.2999999999999997E-002     1.0296482777505389E-008
  -4.1899999999999993E-002     1.6390764301377203E-009
  -4.0799999999999989E-002    -1.7649114170126268E-008
  -3.9699999999999985E-002    -1.9813466423102000E-008
  -3.8599999999999995E-002     7.8138446824027596E-009
  -3.7499999999999992E-002     4.1297639086224081E-008
  -3.6399999999999988E-002     4.4735138260421081E-008
  -3.5299999999999984E-002     3.7397747121303837E-009
  -3.4199999999999994E-002    -4.7440774864071500E-008
  -3.3099999999999991E-002    -6.0426884829212213E-008
  -3.1999999999999987E-002    -1.5102816774970051E-008
  -3.0899999999999997E-002     5.5174950830405578E-008
  -2.9799999999999993E-002     6.3068469557947537E-008
  -2.8699999999999989E-002     1.1934808696878463E-009
  -2.7599999999999986E-002    -4.7950031500931800E-008
  -2.6499999999999996E-002    -1.6375963696191320E-008
  -2.5399999999999992E-002     1.8762920106496495E-008
  -2.4299999999999988E-002     7.0499588389338896E-009
  -2.3199999999999985E-002    -1.0264853855801448E-008
  -2.2099999999999995E-002    -8.7370768397931897E-009
  -2.0999999999999991E-002     9.1586983330671501E-008
  -1.9899999999999987E-002     1.8478142749245308E-007
  -1.8799999999999983E-002     2.0799973299290286E-008
  -1.7699999999999994E-002    -3.3669999766061665E-007
  -1.6599999999999990E-002    -4.7827404614508850E-007
  -1.5499999999999986E-002    -1.9818148189187923E-007
  -1.4399999999999996E-002     2.8765177262357611E-007
  -1.3299999999999992E-002     5.3107760322745889E-007
  -1.2199999999999989E-002     3.3552208833498298E-007
  -1.1099999999999985E-002    -8.7163016360136680E-008
  -9.9999999999999950E-003    -3.1836668767937226E-007
  -8.8999999999999913E-003    -4.6422258037637221E-008
  -7.7999999999999875E-003     5.8505918332230067E-007
  -6.6999999999999837E-003     7.9589250390199595E-007
  -5.5999999999999939E-003     5.8485170484345872E-008
  -4.4999999999999901E-003    -1.0323479955332004E-006
  -3.3999999999999864E-003    -1.4580886045223451E-006
  -2.2999999999999826E-003    -9.0401454144739546E-007
  -1.1999999999999927E-003     1.2876304822384554E-007
  -9.9999999999988987E-005     5.8607776054486749E-007
   1.0000000000000148E-003     2.6829999910660263E-007
   2.1000000000000185E-003    -2.3382958147522004E-007
   3.2000000000000084E-003    -2.3077404875948559E-007
   4.3000000000000121E-003     8.2466561934779747E-007
   5.4000000000000159E-003     2.0959676021448104E-006
   6.5000000000000058E-003     2.2160891148814699E-006
   7.6000000000000234E-003     8.6145962541195331E-007
   8.7000000000000133E-003    -1.0951141575787915E-006
   9.8000000000000032E-003    -2.4833548195601907E-006
   1.0900000000000021E-002    -2.5342806111439131E-006
   1.2000000000000011E-002    -1.3792807749268832E-006
   1.3100000000000001E-002    -5.9280978348397184E-008
   1.4200000000000018E-002     4.4997821646575176E-007
   1.5300000000000008E-002    -3.3224387152586132E-007
   1.6400000000000026E-002    -4.7483638354606228E-007
   1.7500000000000016E-002     2.0470151866902597E-006
   1.8600000000000005E-002     5.1677557166840415E-006
   1.9700000000000023E-002     5.6159037740144413E-006
   2.0800000000000013E-002     2.4462742658215575E-006
   2.1900000000000003E-002    -3.2411323900305433E-006
   2.3000000000000020E-002    -7.5107614065927919E-006
   2.4100000000000010E-002    -6.5248350438196212E-006
   2.5200000000000000E-002    -2.0596503418346401E-006
   2.6300000000000018E-002     1.7373861282976577E-006
   2.7400000000000008E-002     3.0410897124966141E-006
   2.8500000000000025E-002     2.2914600776857696E-006
   2.9600000000000015E-002     1.0366454716859153E-006
   3.0700000000000005E-002     9.0627509052865207E-007
   3.1800000000000023E-002     1.8351638573221862E-006
   3.2900000000000013E-002     1.8840527218344505E-006
   3.4000000000000002E-002    -8.2113206190115307E-007
   3.5100000000000020E-002    -5.0581684263306670E-006
   3.6200000000000010E-002    -7.0789087658340577E-006
   3.7300000000000028E-002    -4.3900199671043083E-006
   3.8400000000000017E-002     1.1181273293914273E-006
   3.9500000000000007E-002     4.8825713747646660E-006
   4.0600000000000025E-002     4.9722011681296863E-006
   4.1700000000000015E-002     2.5277572603954468E-006
   4.2800000000000005E-002     4.7442421191590256E-007
   4.3900000000000022E-002     1.3788684327664669E-006
   4.5000000000000012E-002     3.7988679650879931E-006
   4.6100000000000002E-002     4.3244231164862867E-006
   4.7200000000000020E-002     1.2281273029657314E-006
   4.8300000000000010E-002    -3.7855295431654667E-006
   4.9400000000000027E-002    -6.8354829636518843E-006
   5.0500000000000017E-002    -5.9351123127271421E-006
   5.1600000000000007E-002    -2.0484460492298240E-006
   5.2700000000000025E-002     1.4878497722747852E-006
   5.3800000000000014E-002     2.3841460006224224E-006
   5.4900000000000004E-002     1.1456276070020976E-006
   5.6000000000000022E-002    -3.0474262757707038E-007
   5.7100000000000012E-002     4.8869424063013867E-009
   5.8200000000000002E-002     2.7426644919614773E-006
   5.9300000000000019E-002     5.8552564041747246E-006
   6.0400000000000009E-002     5.4315528359438758E-006
   6.1500000000000027E-002     7.0072246671770699E-008
   6.2600000000000017E-002    -6.3180750657920726E-006
   6.3700000000000007E-002    -8.4691864685737528E-006
   6.4800000000000024E-002    -5.5032610362104606E-006
   6.5900000000000014E-002    -1.9066919776378199E-007
   6.7000000000000004E-002     3.4271079130121507E-006
   6.8100000000000022E-002     3.6226633710612077E-006
   6.9200000000000012E-002     2.3515524389949860E-006
   7.0300000000000029E-002     7.8710809248150326E-007
   7.1400000000000019E-002    -1.5807700037839822E-007
   7.2500000000000009E-002     5.2636733016697690E-007
   7.3600000000000027E-002     6.8933024977013702E-007
   7.4700000000000016E-002    -1.4943731230232515E-006
   7.5800000000000006E-002    -4.0040022213361226E-006
   7.6900000000000024E-002    -4.6558538997487631E-006
   7.8000000000000014E-002    -2.7328912892699009E-006
   7.9100000000000004E-002     1.0478488547960296E-006
   8.0200000000000021E-002     4.4211815293238033E-006
   8.1300000000000011E-002     6.0345146266627125E-006
   8.2400000000000029E-002     5.4315519264491741E-006
   8.3500000000000019E-002     2.6693301151681226E-006
   8.4600000000000009E-002     6.1923117300466402E-008
   8.5700000000000026E-002    -5.4511389180333936E-007
   8.6800000000000016E-002    -6.0418796010708320E-007
   8.7900000000000006E-002    -1.7714099840304698E-006
   8.9000000000000024E-002    -3.6149281186226290E-006
   9.0100000000000013E-002    -4.2667797970352694E-006
   9.1200000000000003E-002    -1.5351133697549812E-006
   9.2300000000000021E-002     3.3415526559110731E-006
   9.3400000000000011E-002     5.3052563089295290E-006
   9.4500000000000028E-002     1.9237754713685717E-006
   9.5600000000000018E-002    -4.1140010580420494E-006
   9.6700000000000008E-002    -7.1532595029566437E-006
   9.7800000000000026E-002    -3.9591859604115598E-006
   9.8900000000000016E-002     3.0319242796394974E-006
  0.10000000000000001          7.2852571975090541E-006
  0.10110000000000002          4.0097020246321335E-006
  0.10220000000000001         -4.3014078983105719E-006
  0.10330000000000003         -8.9458517322782427E-006
  0.10440000000000002         -3.9754822864779271E-006
  0.10550000000000001          6.5845160861499608E-006
  0.10660000000000003          1.2402292668411974E-005
  0.10770000000000002          6.8941449171688873E-006
  0.10880000000000001         -5.2140017032797914E-006
  0.10990000000000003         -1.2270296792848967E-005
  0.11100000000000002         -7.5932598520012107E-006
  0.11210000000000001          3.6511828511720523E-006
  0.11320000000000002          1.0283773917763028E-005
  0.11430000000000001          6.1282185015443247E-006
  0.11540000000000003         -3.9184469642350450E-006
  0.11650000000000002         -8.8399274318362586E-006
  0.11760000000000001         -3.2095576898427680E-006
  0.11870000000000003          7.2689590524532832E-006
  0.11980000000000002          1.1237106264161412E-005
  0.12090000000000001          3.5696994018508121E-006
  0.12200000000000003         -9.0028916019946337E-006
  0.12310000000000001         -1.4250297681428492E-005
  0.12420000000000003         -7.0554833655478433E-006
  0.12530000000000002          5.3052558541821782E-006
  0.12640000000000001          1.1180070032423828E-005
  0.12750000000000003          5.8674781939771492E-006
  0.12860000000000002         -3.9367796489386819E-006
  0.12970000000000001         -7.2490011007175781E-006
  0.13080000000000003         -7.7937238529557362E-007
  0.13190000000000002          7.8067369031487033E-006
  0.13300000000000001          8.3215973063488491E-006
  0.13410000000000000         -9.3571634351974353E-007
  0.13520000000000004         -1.0842208212125115E-005
  0.13630000000000003         -1.0609350283630192E-005
  0.13740000000000002          5.5462942327721976E-007
  0.13850000000000001          1.1981896022916771E-005
  0.13960000000000000          1.2108193004678469E-005
  0.14070000000000005          6.1319497035583481E-007
  0.14180000000000004         -1.1179210559930652E-005
  0.14290000000000003         -1.1807636838057078E-005
  0.14400000000000002         -8.5652754933107644E-007
  0.14510000000000001          1.0908378499152604E-005
  0.14620000000000000          1.2489119399106130E-005
  0.14730000000000004          3.1503250284004025E-006
  0.14840000000000003         -7.5583770922094118E-006
  0.14950000000000002         -1.0107728485309053E-005
  0.15060000000000001         -4.4030070966982748E-006
  0.15170000000000000          1.5166215234785341E-006
  0.15280000000000005          8.3828808783437125E-007
  0.15390000000000004         -4.5751371544611175E-006
  0.15500000000000003         -6.6142110881628469E-006
  0.15610000000000002         -5.5708278523525223E-007
  0.15720000000000001          8.8509714259998873E-006
  0.15830000000000000          1.2134674761909992E-005
  0.15940000000000004          5.2902314564562403E-006
  0.16050000000000003         -5.5243967835849617E-006
  0.16160000000000002         -1.0066989489132538E-005
  0.16270000000000001         -4.6118052523524966E-006
  0.16380000000000000          4.4387493289832491E-006
  0.16490000000000005          7.5686566560762003E-006
  0.16600000000000004          2.1144910533621442E-006
  0.16710000000000003         -5.1159704526071437E-006
  0.16820000000000002         -5.6781918829074129E-006
  0.16930000000000001          8.9787204160529654E-007
  0.17040000000000000          6.8129174906061962E-006
  0.17150000000000004          4.5772694647894241E-006
  0.17260000000000003         -4.4478215386334341E-006
  0.17370000000000002         -1.0997403478540946E-005
  0.17480000000000001         -7.6255978456174489E-006
  0.17590000000000000          3.2659286262060050E-006
  0.17700000000000005          1.1641714081633836E-005
  0.17810000000000004          9.8348627943778411E-006
  0.17920000000000003          1.6657713786116801E-007
  0.18030000000000002         -7.6161763900017831E-006
  0.18140000000000001         -6.6442553361412138E-006
  0.18250000000000000          2.5747999643499497E-007
  0.18360000000000004          4.2981973820133135E-006
  0.18470000000000003          7.8965626926219556E-007
  0.18580000000000002         -5.5498567235190421E-006
  0.18690000000000001         -6.0135380408610217E-006
  0.18800000000000000          2.1040534647909226E-006
  0.18910000000000005          1.1630764674919192E-005
  0.19020000000000004          1.2416805475368164E-005
  0.19130000000000003          2.1081259546917863E-006
  0.19240000000000002         -1.0726351320045069E-005
  0.19350000000000001         -1.4635170373367146E-005
  0.19460000000000005         -6.4923710851871874E-006
  0.19570000000000004          5.5280552260228433E-006
  0.19680000000000003          1.0282944458595011E-005
  0.19790000000000002          4.7218977670127060E-006
  0.19900000000000001         -3.6233323044143617E-006
  0.20010000000000000         -5.1007882575504482E-006
  0.20120000000000005          1.7194040538015543E-006
  0.20230000000000004          8.8563874669489451E-006
  0.20340000000000003          7.7076256275177002E-006
  0.20450000000000002         -1.6283051991194952E-006
  0.20560000000000000         -1.0284566087648273E-005
  0.20670000000000005         -1.0005236617871560E-005
  0.20780000000000004         -1.8842074496205896E-006
  0.20890000000000003          4.7929443098837510E-006
