 -0.12000000000000000          0.0000000000000000
 -0.11889999999999999          0.0000000000000000
 -0.11780000000000000          0.0000000000000000
 -0.11670000000000000          0.0000000000000000
 -0.11559999999999999          0.0000000000000000
 -0.11449999999999999          0.0000000000000000
 -0.11340000000000000          0.0000000000000000
 -0.11230000000000000          0.0000000000000000
 -0.11119999999999999          1.4560641895390444E-019
 -0.11009999999999999          1.8331314990910157E-018
 -0.10900000000000000          9.9974215157822625E-018
 -0.10790000000000000          2.7090055873270799E-017
 -0.10679999999999999          1.1027963654750839E-017
 -0.10569999999999999         -2.0097356186622712E-016
 -0.10460000000000000         -8.2266312114752447E-016
 -0.10349999999999999         -1.5019172115777915E-015
 -0.10239999999999999         -1.4403943498825147E-016
 -0.10130000000000000          7.0921945853825216E-015
 -0.10020000000000000          2.0918894871532756E-014
  -9.9099999999999994E-002     2.7905552963335654E-014
  -9.7999999999999990E-002    -6.4516941051737109E-015
  -9.6899999999999986E-002    -1.1601982395637034E-013
  -9.5799999999999996E-002    -2.6631290488826620E-013
  -9.4699999999999993E-002    -2.7796471721575067E-013
  -9.3599999999999989E-002     1.3889829228192624E-013
  -9.2499999999999999E-002     1.1088409921158893E-012
  -9.1399999999999995E-002     2.1300073250324347E-012
  -9.0299999999999991E-002     1.8507181464427758E-012
  -8.9200000000000002E-002    -1.2632932894218740E-012
  -8.8099999999999984E-002    -7.1308896287813894E-012
  -8.6999999999999994E-002    -1.2124543556646383E-011
  -8.5899999999999990E-002    -9.3202936687908355E-012
  -8.4799999999999986E-002     6.9950625153358814E-012
  -8.3699999999999997E-002     3.3533897880744234E-011
  -8.2599999999999993E-002     5.2714690251809415E-011
  -8.1499999999999989E-002     3.8074196573312236E-011
  -8.0399999999999999E-002    -2.6195341035206710E-011
  -7.9299999999999995E-002    -1.2060663578949971E-010
  -7.8199999999999992E-002    -1.8192497508451311E-010
  -7.7100000000000002E-002    -1.3099291096274612E-010
  -7.5999999999999984E-002     6.5621001688054292E-011
  -7.4899999999999994E-002     3.3695823908885814E-010
  -7.3799999999999991E-002     5.0753812264048292E-010
  -7.2699999999999987E-002     3.8740816110660603E-010
  -7.1599999999999997E-002    -8.1269685425766625E-011
  -7.0499999999999993E-002    -7.1930583711576901E-010
  -6.9399999999999989E-002    -1.1494512008880520E-009
  -6.8300000000000000E-002    -9.9855279600546965E-010
  -6.7199999999999996E-002    -1.5740792003171578E-010
  -6.6099999999999992E-002     1.0769926062081936E-009
  -6.5000000000000002E-002     2.0955546187195750E-009
  -6.3899999999999985E-002     2.2712454139650617E-009
  -6.2799999999999995E-002     1.2841916419148447E-009
  -6.1699999999999991E-002    -6.9215083664531107E-010
  -6.0599999999999994E-002    -2.9951454649790321E-009
  -5.9499999999999990E-002    -4.6164498890277628E-009
  -5.8399999999999994E-002    -4.4611181415632473E-009
  -5.7299999999999990E-002    -1.7921804040810230E-009
  -5.6199999999999986E-002     3.1235862785194968E-009
  -5.5099999999999996E-002     8.4690263690845313E-009
  -5.3999999999999992E-002     1.1073862715704763E-008
  -5.2899999999999989E-002     7.8754531784852588E-009
  -5.1799999999999985E-002    -1.7066654756092703E-009
  -5.0699999999999995E-002    -1.3997865977444235E-008
  -4.9599999999999991E-002    -2.1792708082557510E-008
  -4.8499999999999988E-002    -1.8218566211203324E-008
  -4.7399999999999998E-002    -1.9132624373696672E-009
  -4.6299999999999994E-002     2.0167901126910692E-008
  -4.5199999999999990E-002     3.5296519484973032E-008
  -4.4099999999999986E-002     3.2366830993169060E-008
  -4.2999999999999997E-002     9.6706127550305609E-009
  -4.1899999999999993E-002    -2.2562957724403532E-008
  -4.0799999999999989E-002    -4.7278788883886591E-008
  -3.9699999999999985E-002    -5.0306496746088669E-008
  -3.8599999999999995E-002    -2.8232358673108138E-008
  -3.7499999999999992E-002     1.0373943482022696E-008
  -3.6399999999999988E-002     4.9918099875867483E-008
  -3.5299999999999984E-002     7.4330245070086676E-008
  -3.4199999999999994E-002     7.1334255835608928E-008
  -3.3099999999999991E-002     3.4939102278030987E-008
  -3.1999999999999987E-002    -3.0679338181016647E-008
  -3.0899999999999997E-002    -1.0578618514500704E-007
  -2.9799999999999993E-002    -1.5442395806530840E-007
  -2.8699999999999989E-002    -1.3664133291513281E-007
  -2.7599999999999986E-002    -3.3727268089478457E-008
  -2.6499999999999996E-002     1.2746080813030858E-007
  -2.5399999999999992E-002     2.7242805344940280E-007
  -2.4299999999999988E-002     3.1087219554137846E-007
  -2.3199999999999985E-002     1.9013310748050571E-007
  -2.2099999999999995E-002    -6.2742415707361943E-008
  -2.0999999999999991E-002    -3.4204839494123007E-007
  -1.9899999999999987E-002    -5.1293380920469644E-007
  -1.8799999999999983E-002    -4.8129709284694400E-007
  -1.7699999999999994E-002    -2.4141360199791961E-007
  -1.6599999999999990E-002     1.2507774727055221E-007
  -1.5499999999999986E-002     4.9130721890833229E-007
  -1.4399999999999996E-002     7.3693030344657018E-007
  -1.3299999999999992E-002     7.8166556249925634E-007
  -1.2199999999999989E-002     5.9636238347593462E-007
  -1.1099999999999985E-002     2.0580677073667175E-007
  -9.9999999999999950E-003    -3.0692572750012914E-007
  -8.8999999999999913E-003    -8.0467657426197547E-007
  -7.7999999999999875E-003    -1.1291244845779147E-006
  -6.6999999999999837E-003    -1.1654340141831199E-006
  -5.5999999999999939E-003    -9.0791866114159347E-007
  -4.4999999999999901E-003    -4.7730327423778363E-007
  -3.3999999999999864E-003    -6.0303491977720114E-008
  -2.2999999999999826E-003     2.0696619174032094E-007
  -1.1999999999999927E-003     3.4488127198528673E-007
  -9.9999999999988987E-005     5.5347101124425535E-007
   1.0000000000000148E-003     1.1214673349968507E-006
   2.1000000000000185E-003     2.2503827494801953E-006
   3.2000000000000084E-003     3.8684961509716231E-006
   4.3000000000000121E-003     5.5209266065503471E-006
   5.4000000000000159E-003     6.3990546550485305E-006
   6.5000000000000058E-003     5.5237792366824578E-006
   7.6000000000000234E-003     2.0321726879046764E-006
   8.7000000000000133E-003    -4.5460974433808587E-006
   9.8000000000000032E-003    -1.4163368177833036E-005
   1.0900000000000021E-002    -2.6374678782303818E-005
   1.2000000000000011E-002    -4.0679278754396364E-005
   1.3100000000000001E-002    -5.6921606301330030E-005
   1.4200000000000018E-002    -7.5534284405875951E-005
   1.5300000000000008E-002    -9.7489850304555148E-005
   1.6400000000000026E-002    -1.2401516141835600E-004
   1.7500000000000016E-002    -1.5628700202796608E-004
   1.8600000000000005E-002    -1.9534300372470170E-004
   1.9700000000000023E-002    -2.4229112023022026E-004
   2.0800000000000013E-002    -2.9869232093915343E-004
   2.1900000000000003E-002    -3.6688204272650182E-004
   2.3000000000000020E-002    -4.5006646541878581E-004
   2.4100000000000010E-002    -5.5221276124939322E-004
   2.5200000000000000E-002    -6.7789258901029825E-004
   2.6300000000000018E-002    -8.3223986439406872E-004
   2.7400000000000008E-002    -1.0210665641352534E-003
   2.8500000000000025E-002    -1.2510471278801560E-003
   2.9600000000000015E-002    -1.5298582147806883E-003
   3.0700000000000005E-002    -1.8662413349375129E-003
   3.1800000000000023E-002    -2.2700466215610504E-003
   3.2900000000000013E-002    -2.7523683384060860E-003
   3.4000000000000002E-002    -3.3258539624512196E-003
   3.5100000000000020E-002    -4.0051694959402084E-003
   3.6200000000000010E-002    -4.8075462691485882E-003
   3.7300000000000028E-002    -5.7532698847353458E-003
   3.8400000000000017E-002    -6.8659614771604538E-003
   3.9500000000000007E-002    -8.1725474447011948E-003
   4.0600000000000025E-002    -9.7029088065028191E-003
   4.1700000000000015E-002    -1.1489472351968288E-002
   4.2800000000000005E-002    -1.3567089103162289E-002
   4.3900000000000022E-002    -1.5973430126905441E-002
   4.5000000000000012E-002    -1.8749833106994629E-002
   4.6100000000000002E-002    -2.1942174062132835E-002
   4.7200000000000020E-002    -2.5601232424378395E-002
   4.8300000000000010E-002    -2.9782278463244438E-002
   4.9400000000000027E-002    -3.4544132649898529E-002
   5.0500000000000017E-002    -3.9948288351297379E-002
   5.1600000000000007E-002    -4.6058580279350281E-002
   5.2700000000000025E-002    -5.2941288799047470E-002
   5.3800000000000014E-002    -6.0665275901556015E-002
   5.4900000000000004E-002    -6.9301597774028778E-002
   5.6000000000000022E-002    -7.8922070562839508E-002
   5.7100000000000012E-002    -8.9597389101982117E-002
   5.8200000000000002E-002   -0.10139521211385727
   5.9300000000000019E-002   -0.11437855660915375
   6.0400000000000009E-002   -0.12860465049743652
   6.1500000000000027E-002   -0.14412377774715424
   6.2600000000000017E-002   -0.16097769141197205
   6.3700000000000007E-002   -0.17919771373271942
   6.4800000000000024E-002   -0.19880189001560211
   6.5900000000000014E-002   -0.21979153156280518
   6.7000000000000004E-002   -0.24214810132980347
   6.8100000000000022E-002   -0.26582983136177063
   6.9200000000000012E-002   -0.29076871275901794
   7.0300000000000029E-002   -0.31686925888061523
   7.1400000000000019E-002   -0.34400665760040283
   7.2500000000000009E-002   -0.37202450633049011
   7.3600000000000027E-002   -0.40073293447494507
   7.4700000000000016E-002   -0.42990607023239136
   7.5800000000000006E-002   -0.45928099751472473
   7.6900000000000024E-002   -0.48855623602867126
   7.8000000000000014E-002   -0.51739072799682617
   7.9100000000000004E-002   -0.54540640115737915
   8.0200000000000021E-002   -0.57219016551971436
   8.1300000000000011E-002   -0.59729552268981934
   8.2400000000000029E-002   -0.62024420499801636
   8.3500000000000019E-002   -0.64052790403366089
   8.4600000000000009E-002   -0.65761673450469971
   8.5700000000000026E-002   -0.67096799612045288
   8.6800000000000016E-002   -0.68003422021865845
   8.7900000000000006E-002   -0.68426901102066040
   8.9000000000000024E-002   -0.68313264846801758
   9.0100000000000013E-002   -0.67610257863998413
   9.1200000000000003E-002   -0.66268074512481689
   9.2300000000000021E-002   -0.64240920543670654
   9.3400000000000011E-002   -0.61488354206085205
   9.4500000000000028E-002   -0.57975912094116211
   9.5600000000000018E-002   -0.53676116466522217
   9.6700000000000008E-002   -0.48569917678833008
   9.7800000000000026E-002   -0.42648285627365112
   9.8900000000000016E-002   -0.35913059115409851
  0.10000000000000001        -0.28376972675323486
  0.10110000000000002        -0.20063810050487518
  0.10220000000000001        -0.11008891463279724
  0.10330000000000003         -1.2599606066942215E-002
  0.10440000000000002          9.1220974922180176E-002
  0.10550000000000001         0.20063477754592896
  0.10660000000000003         0.31478482484817505
  0.10770000000000002         0.43270185589790344
  0.10880000000000001         0.55330741405487061
  0.10990000000000003         0.67542314529418945
  0.11100000000000002         0.79778444766998291
  0.11210000000000001         0.91906392574310303
  0.11320000000000002          1.0378944873809814
  0.11430000000000001          1.1528891324996948
  0.11540000000000003          1.2626516819000244
  0.11650000000000002          1.3657902479171753
  0.11760000000000001          1.4609431028366089
  0.11870000000000003          1.5468065738677979
  0.11980000000000002          1.6221615076065063
  0.12090000000000001          1.6858929395675659
  0.12200000000000003          1.7370065450668335
  0.12310000000000001          1.7746480703353882
  0.12420000000000003          1.7981264591217041
  0.12530000000000002          1.8069330453872681
  0.12640000000000001          1.8007514476776123
  0.12750000000000003          1.7794549465179443
  0.12860000000000002          1.7431005239486694
  0.12970000000000001          1.6919305324554443
  0.13080000000000003          1.6263806819915771
  0.13190000000000002          1.5470890998840332
  0.13300000000000001          1.4548923969268799
  0.13410000000000000          1.3508040904998779
  0.13520000000000004          1.2359874248504639
  0.13630000000000003          1.1117320060729980
  0.13740000000000002         0.97943818569183350
  0.13850000000000001         0.84060364961624146
  0.13960000000000000         0.69680213928222656
  0.14070000000000005         0.54965054988861084
  0.14180000000000004         0.40077412128448486
  0.14290000000000003         0.25178584456443787
  0.14400000000000002         0.10427272319793701
  0.14510000000000001         -4.0219970047473907E-002
  0.14620000000000000        -0.18021482229232788
  0.14730000000000004        -0.31433296203613281
  0.14840000000000003        -0.44131731986999512
  0.14950000000000002        -0.56005126237869263
  0.15060000000000001        -0.66956400871276855
  0.15170000000000000        -0.76903331279754639
  0.15280000000000005        -0.85779213905334473
  0.15390000000000004        -0.93533599376678467
  0.15500000000000003         -1.0013287067413330
  0.15610000000000002         -1.0555984973907471
  0.15720000000000001         -1.0981247425079346
  0.15830000000000000         -1.1290268898010254
  0.15940000000000004         -1.1485583782196045
  0.16050000000000003         -1.1571052074432373
  0.16160000000000002         -1.1551803350448608
  0.16270000000000001         -1.1434046030044556
  0.16380000000000000         -1.1224817037582397
  0.16490000000000005         -1.0931750535964966
  0.16600000000000004         -1.0562946796417236
  0.16710000000000003         -1.0126907825469971
  0.16820000000000002        -0.96324366331100464
  0.16930000000000001        -0.90884351730346680
  0.17040000000000000        -0.85036790370941162
  0.17150000000000004        -0.78866779804229736
  0.17260000000000003        -0.72456353902816772
  0.17370000000000002        -0.65884631872177124
  0.17480000000000001        -0.59227401018142700
  0.17590000000000000        -0.52555596828460693
  0.17700000000000005        -0.45933568477630615
  0.17810000000000004        -0.39418196678161621
  0.17920000000000003        -0.33059394359588623
  0.18030000000000002        -0.26901191473007202
  0.18140000000000001        -0.20982323586940765
  0.18250000000000000        -0.15335860848426819
  0.18360000000000004         -9.9884651601314545E-002
  0.18470000000000003         -4.9602881073951721E-002
  0.18580000000000002         -2.6591867208480835E-003
  0.18690000000000001          4.0841810405254364E-002
  0.18800000000000000          8.0828189849853516E-002
  0.18910000000000005         0.11726129800081253
  0.19020000000000004         0.15014019608497620
  0.19130000000000003         0.17950096726417542
  0.19240000000000002         0.20540760457515717
  0.19350000000000001         0.22794023156166077
  0.19460000000000005         0.24718831479549408
  0.19570000000000004         0.26325073838233948
  0.19680000000000003         0.27623787522315979
  0.19790000000000002         0.28626999258995056
  0.19900000000000001         0.29347103834152222
  0.20010000000000000         0.29796117544174194
  0.20120000000000005         0.29985487461090088
  0.20230000000000004         0.29926589131355286
  0.20340000000000003         0.29631239175796509
  0.20450000000000002         0.29111835360527039
  0.20560000000000000         0.28380990028381348
  0.20670000000000005         0.27451059222221375
  0.20780000000000004         0.26334160566329956
  0.20890000000000003         0.25042551755905151
