 -0.12000000000000000          0.0000000000000000
 -0.11889999999999999          0.0000000000000000
 -0.11780000000000000          0.0000000000000000
 -0.11670000000000000          0.0000000000000000
 -0.11559999999999999          0.0000000000000000
 -0.11449999999999999          0.0000000000000000
 -0.11340000000000000          0.0000000000000000
 -0.11230000000000000          0.0000000000000000
 -0.11119999999999999          0.0000000000000000
 -0.11009999999999999          0.0000000000000000
 -0.10900000000000000          0.0000000000000000
 -0.10790000000000000          0.0000000000000000
 -0.10679999999999999         -2.5644172645750015E-035
 -0.10569999999999999          1.1951648253331080E-034
 -0.10460000000000000         -3.4884932791001940E-033
 -0.10349999999999999         -2.4526041638646138E-032
 -0.10239999999999999         -5.5996275012472661E-033
 -0.10130000000000000          1.6275623242290353E-031
 -0.10020000000000000         -7.9304284392349718E-031
  -9.9099999999999994E-002    -6.1346469724216260E-030
  -9.7999999999999990E-002    -3.7169556431757988E-030
  -9.6899999999999986E-002     6.3612027634183186E-029
  -9.5799999999999996E-002     1.7629369283756643E-028
  -9.4699999999999993E-002    -2.0579731458218830E-028
  -9.3599999999999989E-002    -1.9325726693584219E-027
  -9.2499999999999999E-002    -2.6522189264590619E-027
  -9.1399999999999995E-002     7.9197952506135917E-027
  -9.0299999999999991E-002     3.4881931625748387E-026
  -8.9200000000000002E-002     2.7466910287607045E-026
  -8.8099999999999984E-002    -1.4186990383440131E-025
  -8.6999999999999994E-002    -4.5682856135258272E-025
  -8.5899999999999990E-002    -2.5245676426326146E-025
  -8.4799999999999986E-002     1.6928734144989451E-024
  -8.3699999999999997E-002     4.7657390758244569E-024
  -8.2599999999999993E-002     2.5164014038455732E-024
  -8.1499999999999989E-002    -1.4999435961752148E-023
  -8.0399999999999999E-002    -4.1358702461514812E-023
  -7.9299999999999995E-002    -2.6265265834296528E-023
  -7.8199999999999992E-002     1.0263469127579457E-022
  -7.7100000000000002E-002     3.0371957693285694E-022
  -7.5999999999999984E-002     2.4889922187012248E-022
  -7.4899999999999994E-002    -5.4007371422120520E-022
  -7.3799999999999991E-002    -1.8944348478734079E-021
  -7.2699999999999987E-002    -1.9920819439878373E-021
  -7.1599999999999997E-002     2.0272090491948896E-021
  -7.0499999999999993E-002     9.9951634225699178E-021
  -6.9399999999999989E-002     1.3269128938977029E-020
  -6.8300000000000000E-002    -3.4616313100865128E-021
  -6.7199999999999996E-002    -4.4027492665527577E-020
  -6.6099999999999992E-002    -7.3783735157905800E-020
  -6.5000000000000002E-002    -2.0158553086630674E-020
  -6.3899999999999985E-002     1.5683897591040050E-019
  -6.2799999999999995E-002     3.4366379186312523E-019
  -6.1699999999999991E-002     2.3874596072570088E-019
  -6.0599999999999994E-002    -4.1304087740401963E-019
  -5.9499999999999990E-002    -1.3358927601652301E-018
  -5.8399999999999994E-002    -1.4442754440934859E-018
  -5.7299999999999990E-002     5.1665907855215247E-019
  -5.6199999999999986E-002     4.2539673787754446E-018
  -5.5099999999999996E-002     6.4501765728568109E-018
  -5.3999999999999992E-002     2.0359090359941026E-018
  -5.2899999999999989E-002    -1.0494080607893802E-017
  -5.1799999999999985E-002    -2.2896845737667987E-017
  -5.0699999999999995E-002    -1.7990066592285081E-017
  -4.9599999999999991E-002     1.6281395996881244E-017
  -4.8499999999999988E-002     6.5241548091960009E-017
  -4.7399999999999998E-002     8.0030895552252803E-017
  -4.6299999999999994E-002     7.9537419451138368E-018
  -4.5199999999999990E-002    -1.4345328818875149E-016
  -4.4099999999999986E-002    -2.6029502463625941E-016
  -4.2999999999999997E-002    -1.6867168248999856E-016
  -4.1899999999999993E-002     2.0435334243977998E-016
  -4.0799999999999989E-002     6.5705584504201437E-016
  -3.9699999999999985E-002     7.2723570109558535E-016
  -3.8599999999999995E-002     2.6712375131746438E-017
  -3.7499999999999992E-002    -1.2516228931915268E-015
  -3.6399999999999988E-002    -2.1159247246579742E-015
  -3.5299999999999984E-002    -1.3085350369175432E-015
  -3.4199999999999994E-002     1.4832994273971420E-015
  -3.3099999999999991E-002     4.6315592149275692E-015
  -3.1999999999999987E-002     5.0346715118883105E-015
  -3.0899999999999997E-002     4.8626086271148609E-016
  -2.9799999999999993E-002    -7.4217238596658609E-015
  -2.8699999999999989E-002    -1.2645042314401913E-014
  -2.7599999999999986E-002    -8.3124255905158567E-015
  -2.6499999999999996E-002     6.7039358581848316E-015
  -2.5399999999999992E-002     2.3445814381758620E-014
  -2.4299999999999988E-002     2.6428217389041012E-014
  -2.3199999999999985E-002     5.6375302714376137E-015
  -2.2099999999999995E-002    -3.0827506617304296E-014
  -2.0999999999999991E-002    -5.5797041791615098E-014
  -1.9899999999999987E-002    -4.0315657984322378E-014
  -1.8799999999999983E-002     1.9337806231528934E-014
  -1.7699999999999994E-002     8.6883557531662603E-014
  -1.6599999999999990E-002     1.0321176422203870E-013
  -1.5499999999999986E-002     3.2532096049149584E-014
  -1.4399999999999996E-002    -9.4703006558744668E-014
  -1.3299999999999992E-002    -1.8422462448770827E-013
  -1.2199999999999989E-002    -1.4107883969122909E-013
  -1.1099999999999985E-002     4.2986989835791523E-014
  -9.9999999999999950E-003     2.5082155319725019E-013
  -8.8999999999999913E-003     3.0342503683222777E-013
  -7.7999999999999875E-003     1.0249952470987866E-013
  -6.6999999999999837E-003    -2.5296924928072673E-013
  -5.5999999999999939E-003    -4.9233360444045360E-013
  -4.4999999999999901E-003    -3.6410712769482934E-013
  -3.3999999999999864E-003     1.2986953092791742E-013
  -2.2999999999999826E-003     6.5719088157556449E-013
  -1.1999999999999927E-003     7.5354468758587201E-013
  -9.9999999999988987E-005     2.0111860852926877E-013
   1.0000000000000148E-003    -7.0142058394145890E-013
   2.1000000000000185E-003    -1.2525988276126943E-012
   3.2000000000000084E-003    -8.5527787109518361E-013
   4.3000000000000121E-003     4.2261268269616625E-013
   5.4000000000000159E-003     1.7168370674766620E-012
   6.5000000000000058E-003     1.9004448622433889E-012
   7.6000000000000234E-003     4.9452195810539834E-013
   8.7000000000000133E-003    -1.7392612957495279E-012
   9.8000000000000032E-003    -3.1232607645981236E-012
   1.0900000000000021E-002    -2.2609932589373605E-012
   1.2000000000000011E-002     7.0324724776166248E-013
   1.3100000000000001E-002     3.8249607474394320E-012
   1.4200000000000018E-002     4.5619363321647288E-012
   1.5300000000000008E-002     1.7626796289943458E-012
   1.6400000000000026E-002    -3.0585018025164334E-012
   1.7500000000000016E-002    -6.3938359814996737E-012
   1.8600000000000005E-002    -5.2255777829857131E-012
   1.9700000000000023E-002     3.7051655146780327E-013
   2.0800000000000013E-002     6.6560758640865636E-012
   2.1900000000000003E-002     8.5968957647120092E-012
   2.3000000000000020E-002     3.7924533305422337E-012
   2.4100000000000010E-002    -5.0000186282983528E-012
   2.5200000000000000E-002    -1.1148017405038235E-011
   2.6300000000000018E-002    -8.9352778648299491E-012
   2.7400000000000008E-002     1.4382110953559124E-012
   2.8500000000000025E-002     1.2799943396868407E-011
   2.9600000000000015E-002     1.5593422386661615E-011
   3.0700000000000005E-002     5.4379313552121999E-012
   3.1800000000000023E-002    -1.2047595560060742E-011
   3.2900000000000013E-002    -2.3756819428344400E-011
   3.4000000000000002E-002    -1.8387990782797736E-011
   3.5100000000000020E-002     3.7733444840926111E-012
   3.6200000000000010E-002     2.8547835970171853E-011
   3.7300000000000028E-002     3.6447046769527702E-011
   3.8400000000000017E-002     1.7328395662818963E-011
   3.9500000000000007E-002    -1.9568693887528354E-011
   4.0600000000000025E-002    -4.9165019277985778E-011
   4.1700000000000015E-002    -4.7324102969703574E-011
   4.2800000000000005E-002    -9.8684584809438647E-012
   4.3900000000000022E-002     4.0836826975532148E-011
   4.5000000000000012E-002     6.8935156194438463E-011
   4.6100000000000002E-002     5.0567963011394212E-011
   4.7200000000000020E-002    -6.2861157251736799E-012
   4.8300000000000010E-002    -6.3870776723096157E-011
   4.9400000000000027E-002    -7.9893223980942452E-011
   5.0500000000000017E-002    -3.9206814878012253E-011
   5.1600000000000007E-002     3.1961266966362700E-011
   5.2700000000000025E-002     8.2295420478217807E-011
   5.3800000000000014E-002     7.2743117085494191E-011
   5.4900000000000004E-002     7.7997764497128586E-012
   5.6000000000000022E-002    -6.4564409374412435E-011
   5.7100000000000012E-002    -8.7398435710817068E-011
   5.8200000000000002E-002    -3.9563095854955321E-011
   5.9300000000000019E-002     4.4144719130168042E-011
   6.0400000000000009E-002     9.6340962985053125E-011
   6.1500000000000027E-002     6.9440272976173389E-011
   6.2600000000000017E-002    -2.2670556404369435E-011
   6.3700000000000007E-002    -1.0920130077973766E-010
   6.4800000000000024E-002    -1.1490905449385025E-010
   6.5900000000000014E-002    -2.2678959404887067E-011
   6.7000000000000004E-002     1.0462833377467007E-010
   6.8100000000000022E-002     1.6650279766050602E-010
   6.9200000000000012E-002     1.0414197282315740E-010
   7.0300000000000029E-002    -4.5073635795978007E-011
   7.1400000000000019E-002    -1.6755077880681313E-010
   7.2500000000000009E-002    -1.6145390580035723E-010
   7.3600000000000027E-002    -2.7076008102255855E-011
   7.4700000000000016E-002     1.1881327866003488E-010
   7.5800000000000006E-002     1.3096117246202965E-010
   7.6900000000000024E-002    -3.1917905818357184E-011
   7.8000000000000014E-002    -2.3891119638186353E-010
   7.9100000000000004E-002    -2.5960483762688114E-010
   8.0200000000000021E-002     4.9758197562255191E-011
   8.1300000000000011E-002     5.7806531783555215E-010
   8.2400000000000029E-002     9.5806129696285325E-010
   8.3500000000000019E-002     7.8005601977793049E-010
   8.4600000000000009E-002    -9.3451690830193002E-011
   8.5700000000000026E-002    -1.3326666437052381E-009
   8.6800000000000016E-002    -2.2418127354484341E-009
   8.7900000000000006E-002    -2.1466219912724682E-009
   8.9000000000000024E-002    -8.4495727081801419E-010
   9.0100000000000013E-002     1.1848282355231277E-009
   9.1200000000000003E-002     2.9944000612402988E-009
   9.2300000000000021E-002     3.6978566875234264E-009
   9.3400000000000011E-002     2.9933664436043728E-009
   9.4500000000000028E-002     1.3200254223022512E-009
   9.5600000000000018E-002    -4.7287040949584025E-010
   9.6700000000000008E-002    -1.7270470609176414E-009
   9.7800000000000026E-002    -2.4194597436633103E-009
   9.8900000000000016E-002    -3.1067535211093400E-009
  0.10000000000000001         -4.3713330732941813E-009
  0.10110000000000002         -6.1445133425763743E-009
  0.10220000000000001         -7.4154224982692085E-009
  0.10330000000000003         -6.6092979977838695E-009
  0.10440000000000002         -2.4695605560509648E-009
  0.10550000000000001          5.0890252012436576E-009
  0.10660000000000003          1.4705692663596892E-008
  0.10770000000000002          2.4060911485435099E-008
  0.10880000000000001          3.0799181871543624E-008
  0.10990000000000003          3.3262061549521604E-008
  0.11100000000000002          3.0537034234612292E-008
  0.11210000000000001          2.1809404060491033E-008
  0.11320000000000002          5.5045505931161642E-009
  0.11430000000000001         -2.1130114546963341E-008
  0.11540000000000003         -6.1656592720282788E-008
  0.11650000000000002         -1.1951146916544531E-007
  0.11760000000000001         -1.9716587473794789E-007
  0.11870000000000003         -2.9604794349324948E-007
  0.11980000000000002         -4.1745593648556678E-007
  0.12090000000000001         -5.6409902526866063E-007
  0.12200000000000003         -7.4154638696199981E-007
  0.12310000000000001         -9.5896257334970869E-007
  0.12420000000000003         -1.2289605137993931E-006
  0.12530000000000002         -1.5669028243792127E-006
  0.12640000000000001         -1.9902170151908649E-006
  0.12750000000000003         -2.5181927867379272E-006
  0.12860000000000002         -3.1724248401587829E-006
  0.12970000000000001         -3.9778260543243960E-006
  0.13080000000000003         -4.9640511861070991E-006
  0.13190000000000002         -6.1671835283050314E-006
  0.13300000000000001         -7.6315382102620788E-006
  0.13410000000000000         -9.4113329396350309E-006
  0.13520000000000004         -1.1571920367714483E-005
  0.13630000000000003         -1.4190463843988255E-005
  0.13740000000000002         -1.7356331227347255E-005
  0.13850000000000001         -2.1171950720599853E-005
  0.13960000000000000         -2.5754912712727673E-005
  0.14070000000000005         -3.1241550459526479E-005
  0.14180000000000004         -3.7791392969666049E-005
  0.14290000000000003         -4.5591157686430961E-005
  0.14400000000000002         -5.4857096984051168E-005
  0.14510000000000001         -6.5835534769576043E-005
  0.14620000000000000         -7.8803008364047855E-005
  0.14730000000000004         -9.4067974714562297E-005
  0.14840000000000003         -1.1197548155905679E-004
  0.14950000000000002         -1.3291464711073786E-004
  0.15060000000000001         -1.5732679457869381E-004
  0.15170000000000000         -1.8571120745036751E-004
  0.15280000000000005         -2.1862697030883282E-004
  0.15390000000000004         -2.5669118622317910E-004
  0.15500000000000003         -3.0057664844207466E-004
  0.15610000000000002         -3.5101169487461448E-004
  0.15720000000000001         -4.0878402069211006E-004
  0.15830000000000000         -4.7474692109972239E-004
  0.15940000000000004         -5.4982397705316544E-004
  0.16050000000000003         -6.3500955002382398E-004
  0.16160000000000002         -7.3136307764798403E-004
  0.16270000000000001         -8.3999993512406945E-004
  0.16380000000000000         -9.6208235481753945E-004
  0.16490000000000005         -1.0988131398335099E-003
  0.16600000000000004         -1.2514316476881504E-003
  0.16710000000000003         -1.4212079113349319E-003
  0.16820000000000002         -1.6094311140477657E-003
  0.16930000000000001         -1.8173916032537818E-003
  0.17040000000000000         -2.0463552791625261E-003
  0.17150000000000004         -2.2975364699959755E-003
  0.17260000000000003         -2.5720731355249882E-003
  0.17370000000000002         -2.8710037004202604E-003
  0.17480000000000001         -3.1952480785548687E-003
  0.17590000000000000         -3.5455822944641113E-003
  0.17700000000000005         -3.9226110093295574E-003
  0.17810000000000004         -4.3267263099551201E-003
  0.17920000000000003         -4.7580669634044170E-003
  0.18030000000000002         -5.2164755761623383E-003
  0.18140000000000001         -5.7014646008610725E-003
  0.18250000000000000         -6.2121865339577198E-003
  0.18360000000000004         -6.7474069073796272E-003
  0.18470000000000003         -7.3054810054600239E-003
  0.18580000000000002         -7.8843254595994949E-003
  0.18690000000000001         -8.4813879802823067E-003
  0.18800000000000000         -9.0936273336410522E-003
  0.18910000000000005         -9.7175016999244690E-003
  0.19020000000000004         -1.0348962619900703E-002
  0.19130000000000003         -1.0983454994857311E-002
  0.19240000000000002         -1.1615937575697899E-002
  0.19350000000000001         -1.2240898795425892E-002
  0.19460000000000005         -1.2852389365434647E-002
  0.19570000000000004         -1.3444052077829838E-002
  0.19680000000000003         -1.4009176753461361E-002
  0.19790000000000002         -1.4540762640535831E-002
  0.19900000000000001         -1.5031578950583935E-002
  0.20010000000000000         -1.5474251471459866E-002
  0.20120000000000005         -1.5861345455050468E-002
  0.20230000000000004         -1.6185462474822998E-002
  0.20340000000000003         -1.6439346596598625E-002
  0.20450000000000002         -1.6615988686680794E-002
  0.20560000000000000         -1.6708746552467346E-002
  0.20670000000000005         -1.6711449250578880E-002
  0.20780000000000004         -1.6618516296148300E-002
  0.20890000000000003         -1.6425073146820068E-002
