 -0.12000000000000000          0.0000000000000000
 -0.11889999999999999          0.0000000000000000
 -0.11780000000000000          0.0000000000000000
 -0.11670000000000000          0.0000000000000000
 -0.11559999999999999          0.0000000000000000
 -0.11449999999999999          0.0000000000000000
 -0.11340000000000000          0.0000000000000000
 -0.11230000000000000         -1.4004627264720820E-013
 -0.11119999999999999         -1.4004625909468105E-013
 -0.11009999999999999          1.4004628619973536E-013
 -0.10900000000000000         -1.4004625909468105E-013
 -0.10790000000000000         -7.0023137678856817E-013
 -0.10679999999999999         -9.8032389497793027E-013
 -0.10569999999999999         -7.0023132257845955E-013
 -0.10460000000000000          1.4004631330478967E-013
 -0.10349999999999999          9.8032400339814751E-013
 -0.10239999999999999          2.9409721186146598E-012
 -0.10130000000000000          3.7812500526535064E-012
 -0.10020000000000000          3.5011576970944702E-012
  -9.9099999999999994E-002     9.8032487075988550E-013
  -9.7999999999999990E-002    -3.7812487516108995E-012
  -9.6899999999999986E-002    -6.3020812526848324E-012
  -9.5799999999999996E-002    -4.3414334627289719E-012
  -9.4699999999999993E-002    -2.3807856727731114E-012
  -9.3599999999999989E-002    -4.2013788281725084E-013
  -9.2499999999999999E-002     1.5405099071386097E-012
  -9.1399999999999995E-002     3.5011576970944702E-012
  -9.0299999999999991E-002     5.4618054870503308E-012
  -8.9200000000000002E-002     7.4224532770061913E-012
  -8.8099999999999984E-002     2.7309023098442964E-011
  -8.6999999999999994E-002     3.8232632337820149E-011
  -8.5899999999999990E-002     1.3304394044788559E-011
  -8.4799999999999986E-002     6.3020795179613565E-012
  -8.3699999999999997E-002    -7.0023457518497700E-013
  -8.2599999999999993E-002    -7.7025486683313105E-012
  -8.1499999999999989E-002     3.2210605710458751E-012
  -8.0399999999999999E-002     1.4144669810423061E-011
  -7.9299999999999995E-002    -1.0783566747885054E-011
  -7.8199999999999992E-002    -7.1563650838601944E-011
  -7.7100000000000002E-002    -2.0404743172885986E-010
  -7.5999999999999984E-002    -1.2142013783300598E-010
  -7.4899999999999994E-002     1.0461454619248300E-010
  -7.3799999999999991E-002     1.1553814849296629E-010
  -7.2699999999999987E-002     5.4758055728632016E-011
  -7.1599999999999997E-002    -6.0220405051492065E-012
  -7.0499999999999993E-002     7.6605249921257723E-011
  -6.9399999999999989E-002     3.0263994088564061E-010
  -6.8300000000000000E-002     3.8526723478149449E-010
  -6.7199999999999996E-002     4.6789450092177276E-010
  -6.6099999999999992E-002     2.6370700068056863E-010
  -6.5000000000000002E-002    -2.2729527981990572E-010
  -6.3899999999999985E-002    -5.7489019100742667E-010
  -6.2799999999999995E-002    -6.3567029418010179E-010
  -6.1699999999999991E-002     1.6399390179167028E-010
  -6.0599999999999994E-002     6.7684335913753557E-010
  -5.9499999999999990E-002     9.0287810561306969E-010
  -5.8399999999999994E-002     8.4209805795154580E-010
  -5.7299999999999990E-002     2.0768844977148149E-010
  -5.6199999999999986E-002     1.4690831884323075E-010
  -5.5099999999999996E-002     8.6128208731661715E-011
  -5.3999999999999992E-002    -1.1219110085392003E-009
  -5.2899999999999989E-002    -2.3299502327489563E-009
  -5.1799999999999985E-002    -2.3907302804104802E-009
  -5.0699999999999995E-002    -4.1723988708497473E-009
  -4.9599999999999991E-002    -5.9540674612890143E-009
  -4.8499999999999988E-002    -4.2939589661727950E-009
  -4.7399999999999998E-002    -2.0602208827824597E-009
  -4.6299999999999994E-002     1.7351742265248049E-010
  -4.5199999999999990E-002     1.2599965515391887E-009
  -4.4099999999999986E-002     2.9201052687000129E-009
  -4.2999999999999997E-002     1.1384369003053507E-009
  -4.1899999999999993E-002    -1.2168612784080324E-009
  -4.0799999999999989E-002    -2.4249002805731834E-009
  -3.9699999999999985E-002    -1.9120509620051962E-009
  -3.8599999999999995E-002     3.2168723240744157E-010
  -3.7499999999999992E-002     1.9817958385459633E-009
  -3.6399999999999988E-002     2.4946453791585554E-009
  -3.5299999999999984E-002     7.1297667769698592E-010
  -3.4199999999999994E-002    -1.0686920237645836E-009
  -3.3099999999999991E-002    -1.7031016597002235E-009
  -3.1999999999999987E-002    -2.3375112956358635E-009
  -3.0899999999999997E-002    -6.4136980171269897E-009
  -2.9799999999999993E-002    -7.0481078751072346E-009
  -2.8699999999999989E-002    -3.0934812489391561E-009
  -2.7599999999999986E-002     1.4347749655030384E-009
  -2.6499999999999996E-002     4.8157722254416058E-009
  -2.5399999999999992E-002     1.3132148701799906E-009
  -2.4299999999999988E-002    -5.3443054426338676E-009
  -2.3199999999999985E-002    -1.2575455343721842E-008
  -2.2099999999999995E-002    -1.0700235364424771E-008
  -2.0999999999999991E-002    -7.9420248155770423E-010
  -1.9899999999999987E-002     1.0115682513855973E-008
  -1.8799999999999983E-002     1.1560679524791340E-008
  -1.7699999999999994E-002     1.5330861025120157E-009
  -1.6599999999999990E-002    -9.0681373521306341E-009
  -1.5499999999999986E-002    -1.1064916982661543E-008
  -1.4399999999999996E-002    -2.7363649124367839E-009
  -1.3299999999999992E-002     6.7394467784254175E-009
  -1.2199999999999989E-002     1.2773481827821342E-008
  -1.1099999999999985E-002     5.0404080909061122E-009
  -9.9999999999999950E-003    -1.5312515699861251E-008
  -8.8999999999999913E-003    -2.8781883543160802E-008
  -7.7999999999999875E-003    -2.2747848049675667E-008
  -6.6999999999999837E-003    -2.9467024376117479E-009
  -5.5999999999999939E-003     8.8236298267929669E-009
  -4.4999999999999901E-003     5.6795945724275043E-009
  -3.3999999999999864E-003    -3.2007367867237235E-009
  -2.2999999999999826E-003    -2.9029956216675146E-009
  -1.1999999999999927E-003     4.2782999365442720E-009
  -9.9999999999988987E-005     1.1459595938845268E-008
   1.0000000000000148E-003     1.1757338214124502E-008
   2.1000000000000185E-003    -1.7120291850858393E-009
   3.2000000000000084E-003    -1.7475914049214225E-008
   4.3000000000000121E-003    -2.4061726833224384E-008
   5.4000000000000159E-003    -1.6880431275012597E-008
   6.5000000000000058E-003    -6.2573590753345343E-009
   7.6000000000000234E-003    -2.2332247162637486E-010
   8.7000000000000133E-003    -3.3673581700810473E-009
   9.8000000000000032E-003    -4.2168757374838606E-009
   1.0900000000000021E-002    -2.7718751738348146E-009
   1.2000000000000011E-002     3.2621618739625546E-009
   1.3100000000000001E-002     1.2653851300115093E-009
   1.4200000000000018E-002    -4.1731689215396273E-009
   1.5300000000000008E-002    -1.0758982149638996E-008
   1.6400000000000026E-002    -1.2755759115634646E-008
   1.7500000000000016E-002    -1.3031647760897158E-008
   1.8600000000000005E-002    -1.3881165550344576E-008
   1.9700000000000023E-002    -1.9319719157806503E-008
   2.0800000000000013E-002    -2.2750571204710468E-008
   2.1900000000000003E-002    -1.8007202839953607E-008
   2.3000000000000020E-002    -8.2324236316821953E-010
   2.4100000000000010E-002     2.0591237159806042E-008
   2.5200000000000000E-002     2.9672682089199043E-008
   2.6300000000000018E-002     2.1258426130543739E-008
   2.7400000000000008E-002     5.1001700640540548E-009
   2.8500000000000025E-002     2.1353936396906192E-009
   2.9600000000000015E-002     9.4959489160828525E-009
   3.0700000000000005E-002     1.5709245460016064E-008
   3.1800000000000023E-002     6.4345435646373517E-009
   3.2900000000000013E-002    -1.6033636640599980E-008
   3.4000000000000002E-002    -3.6207300269097686E-008
   3.5100000000000020E-002    -3.4583038655000564E-008
   3.6200000000000010E-002    -1.1160854462843872E-008
   3.7300000000000028E-002     1.3982218938224378E-008
   3.8400000000000017E-002     2.0769146402699334E-008
   3.9500000000000007E-002     9.7735579629443237E-009
   4.0600000000000025E-002    -1.2220313649891068E-009
   4.1700000000000015E-002    -1.8922889921668684E-009
   4.2800000000000005E-002     6.0418967606779006E-009
   4.3900000000000022E-002     5.9452691658634649E-009
   4.5000000000000012E-002    -5.6239501944332915E-009
   4.6100000000000002E-002    -2.2355836293286302E-008
   4.7200000000000020E-002    -2.5320616714452626E-008
   4.8300000000000010E-002    -9.9292494226688177E-009
   4.9400000000000027E-002     1.0624782831314405E-008
   5.0500000000000017E-002     1.9132595951987241E-008
   5.1600000000000007E-002     1.1005151456799922E-008
   5.2700000000000025E-002    -1.7113295225357206E-009
   5.3800000000000014E-002    -4.1024792452049041E-009
   5.4900000000000004E-002     8.9943696934824402E-009
   5.6000000000000022E-002     2.2091217743991365E-008
   5.7100000000000012E-002     1.5971476585718847E-008
   5.8200000000000002E-002    -9.6516687975167770E-009
   5.9300000000000019E-002    -3.3553924083662423E-008
   6.0400000000000009E-002    -3.3937372023729040E-008
   6.1500000000000027E-002    -7.3602315353582526E-009
   6.2600000000000017E-002     2.2945501498838894E-008
   6.3700000000000007E-002     3.2600574684238381E-008
   6.4800000000000024E-002     1.7876388369586493E-008
   6.5900000000000014E-002    -4.3298287177861994E-010
   6.7000000000000004E-002    -2.4280044641500353E-010
   6.8100000000000022E-002     1.9450787647201651E-008
   6.9200000000000012E-002     3.8283928915916476E-008
   7.0300000000000029E-002     3.3168035429298470E-008
   7.1400000000000019E-002     4.3899222035292951E-009
   7.2500000000000009E-002    -2.4961821054603206E-008
   7.3600000000000027E-002    -3.1655197574309568E-008
   7.4700000000000016E-002    -1.2606948374127569E-008
   7.5800000000000006E-002     1.3539968257703094E-008
   7.6900000000000024E-002     2.3266739646032875E-008
   7.8000000000000014E-002     1.2271143212672087E-008
   7.9100000000000004E-002    -4.8551180853451115E-009
   8.0200000000000021E-002    -9.3615284413317568E-009
   8.1300000000000011E-002     3.9862793066447466E-009
   8.2400000000000029E-002     2.1026828278536414E-008
   8.3500000000000019E-002     2.3278490246525507E-008
   8.4600000000000009E-002     6.2418585855539277E-009
   8.5700000000000026E-002    -1.8198180740114367E-008
   8.6800000000000016E-002    -3.1291108371078735E-008
   8.7900000000000006E-002    -2.6243002437809082E-008
   8.9000000000000024E-002    -1.1039862357620223E-008
   9.0100000000000013E-002     1.5819459076027442E-009
   9.1200000000000003E-002     6.4239036312585540E-009
   9.2300000000000021E-002     8.9982314932512963E-009
   9.3400000000000011E-002     1.6739706509838470E-008
   9.4500000000000028E-002     2.7591328333187448E-008
   9.5600000000000018E-002     3.1393582844430057E-008
   9.6700000000000008E-002     2.1386153292723975E-008
   9.7800000000000026E-002     2.0841315340192068E-009
   9.8900000000000016E-002    -1.2675908322989926E-008
  0.10000000000000001         -1.3624026351521934E-008
  0.10110000000000002         -4.4540806598547533E-009
  0.10220000000000001          1.9339865264811351E-009
  0.10330000000000003         -2.5164081929318627E-009
  0.10440000000000002         -1.2269515181628776E-008
  0.10550000000000001         -1.4391780212008598E-008
  0.10660000000000003         -2.5094180067242178E-009
  0.10770000000000002          1.5471679049028353E-008
  0.10880000000000001          2.3620408740043786E-008
  0.10990000000000003          1.2883058175816586E-008
  0.11100000000000002         -1.0539404904363892E-008
  0.11210000000000001         -2.9718606242568057E-008
  0.11320000000000002         -3.1446500514675790E-008
  0.11430000000000001         -1.7158562570784852E-008
  0.11540000000000003         -5.1203508100172712E-010
  0.11650000000000002          5.3963056245720509E-009
  0.11760000000000001         -1.2787917391676729E-009
  0.11870000000000003         -1.0431097763330399E-008
  0.11980000000000002         -1.0324980870279887E-008
  0.12090000000000001          2.1833552743544260E-009
  0.12200000000000003          1.9231185532930795E-008
  0.12310000000000001          2.8818437414201981E-008
  0.12420000000000003          2.4296042511195992E-008
  0.12530000000000002          9.2603222867637669E-009
  0.12640000000000001         -6.2662435240667946E-009
  0.12750000000000003         -1.3513640872986343E-008
  0.12860000000000002         -1.1265358423884209E-008
  0.12970000000000001         -5.4641020597046008E-009
  0.13080000000000003         -3.0036844123060291E-009
  0.13190000000000002         -6.1326890232749065E-009
  0.13300000000000001         -1.0970950370392529E-008
  0.13410000000000000         -1.0812709838603496E-008
  0.13520000000000004         -2.1790702575685827E-009
  0.13630000000000003          1.1489634132999527E-008
  0.13740000000000002          2.1195615929059386E-008
  0.13850000000000001          1.8930112588577686E-008
  0.13960000000000000          4.3345198541544505E-009
  0.14070000000000005         -1.4082726984554483E-008
  0.14180000000000004         -2.4845272506013316E-008
  0.14290000000000003         -2.1769425373463491E-008
  0.14400000000000002         -8.3588620469754460E-009
  0.14510000000000001          5.4289590600831161E-009
  0.14620000000000000          1.1193703741696481E-008
  0.14730000000000004          8.0793567391879151E-009
  0.14840000000000003          2.3757125156009806E-009
  0.14950000000000002          1.3406245003011463E-009
  0.15060000000000001          6.8317191903588537E-009
  0.15170000000000000          1.4137442327921690E-008
  0.15280000000000005          1.6424682058868711E-008
  0.15390000000000004          1.0464285438160914E-008
  0.15500000000000003         -1.1763077178983394E-009
  0.15610000000000002         -1.2171870622523784E-008
  0.15720000000000001         -1.7076553504580261E-008
  0.15830000000000000         -1.4474100140660084E-008
  0.15940000000000004         -7.4188575283073988E-009
  0.16050000000000003         -9.8008057225484890E-010
  0.16160000000000002          1.3255454511806875E-009
  0.16270000000000001         -5.1642179421662604E-010
  0.16380000000000000         -3.0626994274030039E-009
  0.16490000000000005         -1.9269941198274410E-009
  0.16600000000000004          4.6400909781141308E-009
  0.16710000000000003          1.3365814233168294E-008
  0.16820000000000002          1.7534553364839667E-008
  0.16930000000000001          1.1730413973509712E-008
  0.17040000000000000         -3.0624205393792181E-009
  0.17150000000000004         -1.9071340062737363E-008
  0.17260000000000003         -2.6606237213400163E-008
  0.17370000000000002         -2.1342133393886797E-008
  0.17480000000000001         -7.3965451541369021E-009
  0.17590000000000000          6.1048623933857016E-009
  0.17700000000000005          1.2322050046975619E-008
  0.17810000000000004          1.1296857671538874E-008
  0.17920000000000003          8.3809750250907200E-009
  0.18030000000000002          8.2824733738107170E-009
  0.18140000000000001          1.0544670914214294E-008
  0.18250000000000000          1.0451850940285112E-008
  0.18360000000000004          4.1047432119967198E-009
  0.18470000000000003         -7.2672277084961934E-009
  0.18580000000000002         -1.7642118876892710E-008
  0.18690000000000001         -2.0754482576990085E-008
  0.18800000000000000         -1.4754984789533410E-008
  0.18910000000000005         -3.1212155082727122E-009
  0.19020000000000004          7.9383815076994324E-009
  0.19130000000000003          1.3428195444475932E-008
  0.19240000000000002          1.1914744746377437E-008
  0.19350000000000001          5.6916888979685609E-009
  0.19460000000000005         -1.0270780892440712E-009
  0.19570000000000004         -4.5212971144792391E-009
  0.19680000000000003         -3.9331942147668997E-009
  0.19790000000000002         -1.9392887296021399E-009
  0.19900000000000001         -2.9370870180400743E-009
  0.20010000000000000         -9.0284819620478629E-009
  0.20120000000000005         -1.7212403946587074E-008
  0.20230000000000004         -2.0588066362847712E-008
  0.20340000000000003         -1.4090256073018281E-008
  0.20450000000000002         -6.3574923103715264E-011
  0.20560000000000000          1.2168518637167836E-008
  0.20670000000000005          1.3507987617344952E-008
  0.20780000000000004          3.4111726776586693E-009
  0.20890000000000003         -8.7493248202008544E-009
