 -0.12000000000000000          0.0000000000000000
 -0.11889999999999999          0.0000000000000000
 -0.11780000000000000          0.0000000000000000
 -0.11670000000000000         -2.3525192904827463E-009
 -0.11559999999999999          7.7887840621571058E-010
 -0.11449999999999999          1.0692496665853923E-008
 -0.11340000000000000         -3.7111604456185887E-008
 -0.11230000000000000         -2.0688177926331264E-007
 -0.11119999999999999         -2.7614797204478236E-007
 -0.11009999999999999          3.2248752290797711E-007
 -0.10900000000000000          1.6805960285637411E-006
 -0.10790000000000000          2.2185170109878527E-006
 -0.10679999999999999         -7.6573621754505439E-007
 -0.10569999999999999         -7.4758845585165545E-006
 -0.10460000000000000         -1.1849323527712841E-005
 -0.10349999999999999         -3.9844035200076178E-006
 -0.10239999999999999          1.8849616026272997E-005
 -0.10130000000000000          4.1310151573270559E-005
 -0.10020000000000000          3.4702145057963207E-005
  -9.9099999999999994E-002    -1.7309424947598018E-005
  -9.7999999999999990E-002    -9.0488189016468823E-005
  -9.6899999999999986E-002    -1.2190215056762099E-004
  -9.5799999999999996E-002    -5.5962380429264158E-005
  -9.4699999999999993E-002     9.5169591077137738E-005
  -9.3599999999999989E-002     2.3491155297961086E-004
  -9.2499999999999999E-002     2.4206690432038158E-004
  -9.1399999999999995E-002     7.1193331677932292E-005
  -9.0299999999999991E-002    -1.9239226821810007E-004
  -8.9200000000000002E-002    -3.8242404116317630E-004
  -8.8099999999999984E-002    -3.7430322845466435E-004
  -8.6999999999999994E-002    -1.7552381905261427E-004
  -8.5899999999999990E-002     9.7175703558605164E-005
  -8.4799999999999986E-002     3.2691942760720849E-004
  -8.3699999999999997E-002     4.7748972428962588E-004
  -8.2599999999999993E-002     5.6067889090627432E-004
  -8.1499999999999989E-002     5.3283135639503598E-004
  -8.0399999999999999E-002     2.5929644471034408E-004
  -7.9299999999999995E-002    -3.6469139740802348E-004
  -7.8199999999999992E-002    -1.2156905140727758E-003
  -7.7100000000000002E-002    -1.8674691673368216E-003
  -7.5999999999999984E-002    -1.7773499712347984E-003
  -7.4899999999999994E-002    -6.5258948598057032E-004
  -7.3799999999999991E-002     1.2642468791455030E-003
  -7.2699999999999987E-002     3.2211076468229294E-003
  -7.1599999999999997E-002     4.2983987368643284E-003
  -7.0499999999999993E-002     3.8470551371574402E-003
  -6.9399999999999989E-002     1.7636276315897703E-003
  -6.8300000000000000E-002    -1.5064114704728127E-003
  -6.7199999999999996E-002    -5.1684463396668434E-003
  -6.6099999999999992E-002    -8.3561725914478302E-003
  -6.5000000000000002E-002    -1.0413780808448792E-002
  -6.3899999999999985E-002    -1.1146273463964462E-002
  -6.2799999999999995E-002    -1.0955829173326492E-002
  -6.1699999999999991E-002    -1.0740536265075207E-002
  -6.0599999999999994E-002    -1.1523391120135784E-002
  -5.9499999999999990E-002    -1.3988497667014599E-002
  -5.8399999999999994E-002    -1.8233457580208778E-002
  -5.7299999999999990E-002    -2.3923616856336594E-002
  -5.6199999999999986E-002    -3.0714418739080429E-002
  -5.5099999999999996E-002    -3.8582421839237213E-002
  -5.3999999999999992E-002    -4.7810085117816925E-002
  -5.2899999999999989E-002    -5.8723337948322296E-002
  -5.1799999999999985E-002    -7.1530237793922424E-002
  -5.0699999999999995E-002    -8.6484670639038086E-002
  -4.9599999999999991E-002   -0.10421298444271088
  -4.8499999999999988E-002   -0.12580689787864685
  -4.7399999999999998E-002   -0.15248590707778931
  -4.6299999999999994E-002   -0.18509523570537567
  -4.5199999999999990E-002   -0.22395448386669159
  -4.4099999999999986E-002   -0.26929754018783569
  -4.2999999999999997E-002   -0.32198917865753174
  -4.1899999999999993E-002   -0.38389551639556885
  -4.0799999999999989E-002   -0.45757722854614258
  -3.9699999999999985E-002   -0.54557681083679199
  -3.8599999999999995E-002   -0.64990901947021484
  -3.7499999999999992E-002   -0.77210688591003418
  -3.6399999999999988E-002   -0.91362017393112183
  -3.5299999999999984E-002    -1.0760965347290039
  -3.4199999999999994E-002    -1.2613619565963745
  -3.3099999999999991E-002    -1.4713735580444336
  -3.1999999999999987E-002    -1.7085326910018921
  -3.0899999999999997E-002    -1.9762430191040039
  -2.9799999999999993E-002    -2.2791533470153809
  -2.8699999999999989E-002    -2.6226091384887695
  -2.7599999999999986E-002    -3.0115089416503906
  -2.6499999999999996E-002    -3.4494132995605469
  -2.5399999999999992E-002    -3.9386515617370605
  -2.4299999999999988E-002    -4.4812788963317871
  -2.3199999999999985E-002    -5.0799446105957031
  -2.2099999999999995E-002    -5.7379508018493652
  -2.0999999999999991E-002    -6.4584145545959473
  -1.9899999999999987E-002    -7.2434411048889160
  -1.8799999999999983E-002    -8.0940370559692383
  -1.7699999999999994E-002    -9.0105133056640625
  -1.6599999999999990E-002    -9.9927120208740234
  -1.5499999999999986E-002    -11.039454460144043
  -1.4399999999999996E-002    -12.147563934326172
  -1.3299999999999992E-002    -13.311628341674805
  -1.2199999999999989E-002    -14.524479866027832
  -1.1099999999999985E-002    -15.778198242187500
  -9.9999999999999950E-003    -17.064035415649414
  -8.8999999999999913E-003    -18.371440887451172
  -7.7999999999999875E-003    -19.686380386352539
  -6.6999999999999837E-003    -20.990875244140625
  -5.5999999999999939E-003    -22.263875961303711
  -4.4999999999999901E-003    -23.482816696166992
  -3.3999999999999864E-003    -24.624189376831055
  -2.2999999999999826E-003    -25.662630081176758
  -1.1999999999999927E-003    -26.569709777832031
  -9.9999999999988987E-005    -27.313833236694336
   1.0000000000000148E-003    -27.861066818237305
   2.1000000000000185E-003    -28.177051544189453
   3.2000000000000084E-003    -28.227243423461914
   4.3000000000000121E-003    -27.976156234741211
   5.4000000000000159E-003    -27.386842727661133
   6.5000000000000058E-003    -26.421842575073242
   7.6000000000000234E-003    -25.045305252075195
   8.7000000000000133E-003    -23.225502014160156
   9.8000000000000032E-003    -20.935132980346680
   1.0900000000000021E-002    -18.149560928344727
   1.2000000000000011E-002    -14.846941947937012
   1.3100000000000001E-002    -11.008343696594238
   1.4200000000000018E-002    -6.6217656135559082
   1.5300000000000008E-002    -1.6823434829711914
   1.6400000000000026E-002     3.8050804138183594
   1.7500000000000016E-002     9.8277273178100586
   1.8600000000000005E-002     16.366029739379883
   1.9700000000000023E-002     23.391635894775391
   2.0800000000000013E-002     30.867122650146484
   2.1900000000000003E-002     38.741558074951172
   2.3000000000000020E-002     46.954364776611328
   2.4100000000000010E-002     55.436496734619141
   2.5200000000000000E-002     64.113006591796875
   2.6300000000000018E-002     72.900909423828125
   2.7400000000000008E-002     81.708236694335938
   2.8500000000000025E-002     90.433982849121094
   2.9600000000000015E-002     98.968681335449219
   3.0700000000000005E-002     107.19844818115234
   3.1800000000000023E-002     115.01028442382812
   3.2900000000000013E-002     122.28852844238281
   3.4000000000000002E-002     128.91737365722656
   3.5100000000000020E-002     134.77954101562500
   3.6200000000000010E-002     139.75968933105469
   3.7300000000000028E-002     143.74876403808594
   3.8400000000000017E-002     146.64634704589844
   3.9500000000000007E-002     148.36042785644531
   4.0600000000000025E-002     148.80812072753906
   4.1700000000000015E-002     147.91479492187500
   4.2800000000000005E-002     145.61764526367188
   4.3900000000000022E-002     141.86862182617188
   4.5000000000000012E-002     136.63647460937500
   4.6100000000000002E-002     129.90591430664062
   4.7200000000000020E-002     121.67637634277344
   4.8300000000000010E-002     111.96125793457031
   4.9400000000000027E-002     100.79152679443359
   5.0500000000000017E-002     88.216148376464844
   5.1600000000000007E-002     74.303260803222656
   5.2700000000000025E-002     59.138065338134766
   5.3800000000000014E-002     42.819030761718750
   5.4900000000000004E-002     25.459003448486328
   5.6000000000000022E-002     7.1856036186218262
   5.7100000000000012E-002    -11.858070373535156
   5.8200000000000002E-002    -31.515474319458008
   5.9300000000000019E-002    -51.621063232421875
   6.0400000000000009E-002    -71.999374389648438
   6.1500000000000027E-002    -92.468429565429688
   6.2600000000000017E-002    -112.83684539794922
   6.3700000000000007E-002    -132.90769958496094
   6.4800000000000024E-002    -152.47555541992188
   6.5900000000000014E-002    -171.33900451660156
   6.7000000000000004E-002    -189.29791259765625
   6.8100000000000022E-002    -206.15538024902344
   6.9200000000000012E-002    -221.71978759765625
   7.0300000000000029E-002    -235.80007934570312
   7.1400000000000019E-002    -248.21537780761719
   7.2500000000000009E-002    -258.79620361328125
   7.3600000000000027E-002    -267.39056396484375
   7.4700000000000016E-002    -273.86318969726562
   7.5800000000000006E-002    -278.09481811523438
   7.6900000000000024E-002    -279.98345947265625
   7.8000000000000014E-002    -279.44982910156250
   7.9100000000000004E-002    -276.43957519531250
   8.0200000000000021E-002    -270.92953491210938
   8.1300000000000011E-002    -262.92419433593750
   8.2400000000000029E-002    -252.45481872558594
   8.3500000000000019E-002    -239.57940673828125
   8.4600000000000009E-002    -224.38560485839844
   8.5700000000000026E-002    -206.99284362792969
   8.6800000000000016E-002    -187.55084228515625
   8.7900000000000006E-002    -166.24105834960938
   8.9000000000000024E-002    -143.26733398437500
   9.0100000000000013E-002    -118.85914611816406
   9.1200000000000003E-002    -93.267578125000000
   9.2300000000000021E-002    -66.764320373535156
   9.3400000000000011E-002    -39.638301849365234
   9.4500000000000028E-002    -12.190093994140625
   9.5600000000000018E-002     15.274712562561035
   9.6700000000000008E-002     42.448596954345703
   9.7800000000000026E-002     69.026512145996094
   9.8900000000000016E-002     94.705184936523438
  0.10000000000000001          119.19300842285156
  0.10110000000000002          142.21435546875000
  0.10220000000000001          163.51626586914062
  0.10330000000000003          182.86955261230469
  0.10440000000000002          200.07313537597656
  0.10550000000000001          214.95397949218750
  0.10660000000000003          227.37248229980469
  0.10770000000000002          237.22651672363281
  0.10880000000000001          244.45439147949219
  0.10990000000000003          249.03060913085938
  0.11100000000000002          250.96923828125000
  0.11210000000000001          250.31457519531250
  0.11320000000000002          247.14633178710938
  0.11430000000000001          241.58105468750000
  0.11540000000000003          233.76710510253906
  0.11650000000000002          223.88208007812500
  0.11760000000000001          212.12631225585938
  0.11870000000000003          198.71568298339844
  0.11980000000000002          183.88069152832031
  0.12090000000000001          167.86599731445312
  0.12200000000000003          150.92434692382812
  0.12310000000000001          133.31010437011719
  0.12420000000000003          115.27880859375000
  0.12530000000000002          97.071662902832031
  0.12640000000000001          78.923904418945312
  0.12750000000000003          61.056545257568359
  0.12860000000000002          43.676589965820312
  0.12970000000000001          26.972644805908203
  0.13080000000000003          11.110043525695801
  0.13190000000000002         -3.7695219516754150
  0.13300000000000001         -17.547731399536133
  0.13410000000000000         -30.127801895141602
  0.13520000000000004         -41.437854766845703
  0.13630000000000003         -51.429241180419922
  0.13740000000000002         -60.078086853027344
  0.13850000000000001         -67.382301330566406
  0.13960000000000000         -73.358505249023438
  0.14070000000000005         -78.040069580078125
  0.14180000000000004         -81.476600646972656
  0.14290000000000003         -83.733406066894531
  0.14400000000000002         -84.888748168945312
  0.14510000000000001         -85.029998779296875
  0.14620000000000000         -84.249526977539062
  0.14730000000000004         -82.644042968750000
  0.14840000000000003         -80.313003540039062
  0.14950000000000002         -77.359619140625000
  0.15060000000000001         -73.887657165527344
  0.15170000000000000         -69.997070312500000
  0.15280000000000005         -65.781356811523438
  0.15390000000000004         -61.326698303222656
  0.15500000000000003         -56.713897705078125
  0.15610000000000002         -52.020038604736328
  0.15720000000000001         -47.316730499267578
  0.15830000000000000         -42.667301177978516
  0.15940000000000004         -38.124706268310547
  0.16050000000000003         -33.732254028320312
  0.16160000000000002         -29.526100158691406
  0.16270000000000001         -25.537298202514648
  0.16380000000000000         -21.791326522827148
  0.16490000000000005         -18.306274414062500
  0.16600000000000004         -15.092082023620605
  0.16710000000000003         -12.151359558105469
  0.16820000000000002         -9.4829540252685547
  0.16930000000000001         -7.0836377143859863
  0.17040000000000000         -4.9480509757995605
  0.17150000000000004         -3.0673608779907227
  0.17260000000000003         -1.4290953874588013
  0.17370000000000002         -1.8108123913407326E-002
  0.17480000000000001          1.1814208030700684
  0.17590000000000000          2.1854341030120850
  0.17700000000000005          3.0101492404937744
  0.17810000000000004          3.6729667186737061
  0.17920000000000003          4.1918239593505859
  0.18030000000000002          4.5834627151489258
  0.18140000000000001          4.8626184463500977
  0.18250000000000000          5.0426716804504395
  0.18360000000000004          5.1367216110229492
  0.18470000000000003          5.1587972640991211
  0.18580000000000002          5.1223297119140625
  0.18690000000000001          5.0382990837097168
  0.18800000000000000          4.9145956039428711
  0.18910000000000005          4.7574439048767090
  0.19020000000000004          4.5736021995544434
  0.19130000000000003          4.3714103698730469
  0.19240000000000002          4.1591019630432129
  0.19350000000000001          3.9424426555633545
  0.19460000000000005          3.7239737510681152
  0.19570000000000004          3.5046324729919434
  0.19680000000000003          3.2863624095916748
  0.19790000000000002          3.0729417800903320
  0.19900000000000001          2.8685836791992188
  0.20010000000000000          2.6753852367401123
  0.20120000000000005          2.4925754070281982
  0.20230000000000004          2.3180010318756104
  0.20340000000000003          2.1507208347320557
  0.20450000000000002          1.9920259714126587
  0.20560000000000000          1.8442355394363403
  0.20670000000000005          1.7087066173553467
  0.20780000000000004          1.5847250223159790
  0.20890000000000003          1.4703786373138428
