 -0.12000000000000000          0.0000000000000000
 -0.11889999999999999          0.0000000000000000
 -0.11780000000000000          0.0000000000000000
 -0.11670000000000000          0.0000000000000000
 -0.11559999999999999          0.0000000000000000
 -0.11449999999999999          0.0000000000000000
 -0.11340000000000000         -1.3827173850344820E-009
 -0.11230000000000000         -1.0714922282772932E-008
 -0.11119999999999999         -3.1083469131942820E-010
 -0.11009999999999999          2.3058704812228825E-007
 -0.10900000000000000          9.3477569862443488E-007
 -0.10790000000000000          1.0984416576320655E-006
 -0.10679999999999999         -3.4698396120802499E-006
 -0.10569999999999999         -1.7027450667228550E-005
 -0.10460000000000000         -2.9152617571526207E-005
 -0.10349999999999999          7.6964994377703988E-007
 -0.10239999999999999          1.1852293391712010E-004
 -0.10130000000000000          2.7677280013449490E-004
 -0.10020000000000000          2.3492846230510622E-004
  -9.9099999999999994E-002    -3.3342349343001842E-004
  -9.7999999999999990E-002    -1.3773911632597446E-003
  -9.6899999999999986E-002    -1.9434815039858222E-003
  -9.5799999999999996E-002    -4.1456200415268540E-004
  -9.4699999999999993E-002     3.8575881626456976E-003
  -9.3599999999999989E-002     8.3686867728829384E-003
  -9.2499999999999999E-002     7.3732719756662846E-003
  -9.1399999999999995E-002    -3.7676787469536066E-003
  -9.0299999999999991E-002    -2.1467616781592369E-002
  -8.9200000000000002E-002    -3.0993485823273659E-002
  -8.8099999999999984E-002    -1.5022695995867252E-002
  -8.6999999999999994E-002     2.8116330504417419E-002
  -8.5899999999999990E-002     7.1765542030334473E-002
  -8.4799999999999986E-002     7.2561800479888916E-002
  -8.3699999999999997E-002     7.6692984439432621E-003
  -8.2599999999999993E-002    -9.0651512145996094E-002
  -8.1499999999999989E-002   -0.14381296932697296
  -8.0399999999999999E-002    -9.0235874056816101E-002
  -7.9299999999999995E-002     4.3427847325801849E-002
  -7.8199999999999992E-002    0.14107224345207214
  -7.7100000000000002E-002     9.7635686397552490E-002
  -7.5999999999999984E-002    -5.2611272782087326E-002
  -7.4899999999999994E-002   -0.12103228271007538
  -7.3799999999999991E-002     6.5657652914524078E-002
  -7.2699999999999987E-002    0.42660328745841980
  -7.1599999999999997E-002    0.57286262512207031
  -7.0499999999999993E-002     9.7916126251220703E-002
  -6.9399999999999989E-002   -0.94913148880004883
  -6.8300000000000000E-002    -1.8508098125457764
  -6.7199999999999996E-002    -1.6225693225860596
  -6.6099999999999992E-002    0.12786197662353516
  -6.5000000000000002E-002     2.5769538879394531
  -6.3899999999999985E-002     3.9980103969573975
  -6.2799999999999995E-002     3.0041158199310303
  -6.1699999999999991E-002   -0.19341346621513367
  -6.0599999999999994E-002    -3.6705625057220459
  -5.9499999999999990E-002    -5.1439361572265625
  -5.8399999999999994E-002    -3.7843644618988037
  -5.7299999999999990E-002   -0.88145112991333008
  -5.6199999999999986E-002     1.3744333982467651
  -5.5099999999999996E-002     1.9772499799728394
  -5.3999999999999992E-002     2.0361554622650146
  -5.2899999999999989E-002     3.4302434921264648
  -5.1799999999999985E-002     6.2862520217895508
  -5.0699999999999995E-002     7.8608441352844238
  -4.9599999999999991E-002     4.4712114334106445
  -4.8499999999999988E-002    -4.7351136207580566
  -4.7399999999999998E-002    -15.581759452819824
  -4.6299999999999994E-002    -20.838809967041016
  -4.5199999999999990E-002    -15.442514419555664
  -4.4099999999999986E-002   -0.82588785886764526
  -4.2999999999999997E-002     15.494996070861816
  -4.1899999999999993E-002     25.043420791625977
  -4.0799999999999989E-002     24.046098709106445
  -3.9699999999999985E-002     14.992533683776855
  -3.8599999999999995E-002     3.2319655418395996
  -3.7499999999999992E-002    -7.7082753181457520
  -3.6399999999999988E-002    -17.512220382690430
  -3.5299999999999984E-002    -26.288778305053711
  -3.4199999999999994E-002    -31.291707992553711
  -3.3099999999999991E-002    -27.511039733886719
  -3.1999999999999987E-002    -12.371953964233398
  -3.0899999999999997E-002     10.024067878723145
  -2.9799999999999993E-002     29.976684570312500
  -2.8699999999999989E-002     38.474124908447266
  -2.7599999999999986E-002     33.198539733886719
  -2.6499999999999996E-002     18.695407867431641
  -2.5399999999999992E-002    0.91869181394577026
  -2.4299999999999988E-002    -17.799306869506836
  -2.3199999999999985E-002    -37.755252838134766
  -2.2099999999999995E-002    -56.063407897949219
  -2.0999999999999991E-002    -63.398277282714844
  -1.9899999999999987E-002    -49.060615539550781
  -1.8799999999999983E-002    -11.348664283752441
  -1.7699999999999994E-002     37.017814636230469
  -1.6599999999999990E-002     75.952781677246094
  -1.5499999999999986E-002     93.536621093750000
  -1.4399999999999996E-002     96.537719726562500
  -1.3299999999999992E-002     105.27909851074219
  -1.2199999999999989E-002     136.21662902832031
  -1.1099999999999985E-002     187.84330749511719
  -9.9999999999999950E-003     243.55213928222656
  -8.8999999999999913E-003     289.54434204101562
  -7.7999999999999875E-003     331.19329833984375
  -6.6999999999999837E-003     392.09085083007812
  -5.5999999999999939E-003     496.25012207031250
  -4.4999999999999901E-003     650.29315185546875
  -3.3999999999999864E-003     842.62976074218750
  -2.2999999999999826E-003     1060.2021484375000
  -1.1999999999999927E-003     1306.2767333984375
  -9.9999999999988987E-005     1602.2829589843750
   1.0000000000000148E-003     1973.0687255859375
   2.1000000000000185E-003     2431.8859863281250
   3.2000000000000084E-003     2980.9865722656250
   4.3000000000000121E-003     3626.9909667968750
   5.4000000000000159E-003     4393.9824218750000
   6.5000000000000058E-003     5319.8955078125000
   7.6000000000000234E-003     6439.8232421875000
   8.7000000000000133E-003     7774.9892578125000
   9.8000000000000032E-003     9340.8935546875000
   1.0900000000000021E-002     11167.805664062500
   1.2000000000000011E-002     13311.291992187500
   1.3100000000000001E-002     15840.285156250000
   1.4200000000000018E-002     18813.101562500000
   1.5300000000000008E-002     22267.486328125000
   1.6400000000000026E-002     26238.097656250000
   1.7500000000000016E-002     30786.783203125000
   1.8600000000000005E-002     36014.121093750000
   1.9700000000000023E-002     42038.968750000000
   2.0800000000000013E-002     48961.718750000000
   2.1900000000000003E-002     56848.671875000000
   2.3000000000000020E-002     65755.617187500000
   2.4100000000000010E-002     75767.289062500000
   2.5200000000000000E-002     87015.148437500000
   2.6300000000000018E-002     99653.054687500000
   2.7400000000000008E-002     113811.46875000000
   2.8500000000000025E-002     129572.74218750000
   2.9600000000000015E-002     146991.23437500000
   3.0700000000000005E-002     166136.48437500000
   3.1800000000000023E-002     187115.59375000000
   3.2900000000000013E-002     210050.34375000000
   3.4000000000000002E-002     235036.28125000000
   3.5100000000000020E-002     262114.46875000000
   3.6200000000000010E-002     291292.90625000000
   3.7300000000000028E-002     322576.18750000000
   3.8400000000000017E-002     355972.43750000000
   3.9500000000000007E-002     391454.71875000000
   4.0600000000000025E-002     428919.37500000000
   4.1700000000000015E-002     468178.65625000000
   4.2800000000000005E-002     509001.68750000000
   4.3900000000000022E-002     551159.06250000000
   4.5000000000000012E-002     594430.93750000000
   4.6100000000000002E-002     638553.12500000000
   4.7200000000000020E-002     683142.43750000000
   4.8300000000000010E-002     727701.25000000000
   4.9400000000000027E-002     771662.93750000000
   5.0500000000000017E-002     814449.75000000000
   5.1600000000000007E-002     855491.31250000000
   5.2700000000000025E-002     894168.37500000000
   5.3800000000000014E-002     929761.93750000000
   5.4900000000000004E-002     961439.37500000000
   5.6000000000000022E-002     988325.81250000000
   5.7100000000000012E-002     1009577.8750000000
   5.8200000000000002E-002     1024397.1875000000
   5.9300000000000019E-002     1032006.2500000000
   6.0400000000000009E-002     1031566.1250000000
   6.1500000000000027E-002     1022222.3125000000
   6.2600000000000017E-002     1003142.2500000000
   6.3700000000000007E-002     973595.18750000000
   6.4800000000000024E-002     932984.62500000000
   6.5900000000000014E-002     880783.06250000000
   6.7000000000000004E-002     816507.12500000000
   6.8100000000000022E-002     739755.87500000000
   6.9200000000000012E-002     650287.00000000000
   7.0300000000000029E-002     548090.93750000000
   7.1400000000000019E-002     433384.59375000000
   7.2500000000000009E-002     306529.09375000000
   7.3600000000000027E-002     168007.53125000000
   7.4700000000000016E-002     18420.705078125000
   7.5800000000000006E-002    -141429.23437500000
   7.6900000000000024E-002    -310444.46875000000
   7.8000000000000014E-002    -487266.15625000000
   7.9100000000000004E-002    -670362.18750000000
   8.0200000000000021E-002    -858124.50000000000
   8.1300000000000011E-002    -1048883.6250000000
   8.2400000000000029E-002    -1240812.3750000000
   8.3500000000000019E-002    -1431857.8750000000
   8.4600000000000009E-002    -1619792.3750000000
   8.5700000000000026E-002    -1802356.7500000000
   8.6800000000000016E-002    -1977377.8750000000
   8.7900000000000006E-002    -2142778.5000000000
   8.9000000000000024E-002    -2296512.5000000000
   9.0100000000000013E-002    -2436502.2500000000
   9.1200000000000003E-002    -2560698.2500000000
   9.2300000000000021E-002    -2667193.5000000000
   9.3400000000000011E-002    -2754376.2500000000
   9.4500000000000028E-002    -2820920.7500000000
   9.5600000000000018E-002    -2865728.0000000000
   9.6700000000000008E-002    -2887827.5000000000
   9.7800000000000026E-002    -2886452.0000000000
   9.8900000000000016E-002    -2861152.2500000000
  0.10000000000000001         -2811925.0000000000
  0.10110000000000002         -2739165.0000000000
  0.10220000000000001         -2643524.0000000000
  0.10330000000000003         -2525829.7500000000
  0.10440000000000002         -2387077.7500000000
  0.10550000000000001         -2228570.0000000000
  0.10660000000000003         -2051984.3750000000
  0.10770000000000002         -1859323.5000000000
  0.10880000000000001         -1652760.1250000000
  0.10990000000000003         -1434477.8750000000
  0.11100000000000002         -1206692.7500000000
  0.11210000000000001         -971752.68750000000
  0.11320000000000002         -732166.93750000000
  0.11430000000000001         -490613.78125000000
  0.11540000000000003         -249661.37500000000
  0.11650000000000002         -11689.027343750000
  0.11760000000000001          221133.07812500000
  0.11870000000000003          446759.31250000000
  0.11980000000000002          663118.18750000000
  0.12090000000000001          868198.50000000000
  0.12200000000000003          1060213.6250000000
  0.12310000000000001          1237716.8750000000
  0.12420000000000003          1399595.5000000000
  0.12530000000000002          1544938.6250000000
  0.12640000000000001          1672933.7500000000
  0.12750000000000003          1782918.3750000000
  0.12860000000000002          1874435.3750000000
  0.12970000000000001          1947379.0000000000
  0.13080000000000003          2001952.6250000000
  0.13190000000000002          2038535.0000000000
  0.13300000000000001          2057571.2500000000
  0.13410000000000000          2059606.3750000000
  0.13520000000000004          2045306.7500000000
  0.13630000000000003          2015557.2500000000
  0.13740000000000002          1971453.5000000000
  0.13850000000000001          1914169.6250000000
  0.13960000000000000          1844876.1250000000
  0.14070000000000005          1764743.0000000000
  0.14180000000000004          1674924.1250000000
  0.14290000000000003          1576740.0000000000
  0.14400000000000002          1471551.1250000000
  0.14510000000000001          1360773.1250000000
  0.14620000000000000          1245710.8750000000
  0.14730000000000004          1127657.0000000000
  0.14840000000000003          1007790.0000000000
  0.14950000000000002          887311.12500000000
  0.15060000000000001          767492.43750000000
  0.15170000000000000          649499.75000000000
  0.15280000000000005          534419.62500000000
  0.15390000000000004          423151.90625000000
  0.15500000000000003          316621.37500000000
  0.15610000000000002          215650.04687500000
  0.15720000000000001          121067.00781250000
  0.15830000000000000          33564.234375000000
  0.15940000000000004         -46337.371093750000
  0.16050000000000003         -118306.75781250000
  0.16160000000000002         -182086.07812500000
  0.16270000000000001         -237361.35937500000
  0.16380000000000000         -284023.21875000000
  0.16490000000000005         -321925.34375000000
  0.16600000000000004         -351246.25000000000
  0.16710000000000003         -372333.93750000000
  0.16820000000000002         -385620.53125000000
  0.16930000000000001         -391518.09375000000
  0.17040000000000000         -390433.31250000000
  0.17150000000000004         -382860.93750000000
  0.17260000000000003         -369493.34375000000
  0.17370000000000002         -351163.78125000000
  0.17480000000000001         -328737.31250000000
  0.17590000000000000         -302986.09375000000
  0.17700000000000005         -274596.03125000000
  0.17810000000000004         -244281.45312500000
  0.17920000000000003         -212785.20312500000
  0.18030000000000002         -180975.26562500000
  0.18140000000000001         -149597.32812500000
  0.18250000000000000         -119278.39062500000
  0.18360000000000004         -90496.367187500000
  0.18470000000000003         -63661.628906250000
  0.18580000000000002         -39226.039062500000
  0.18690000000000001         -17618.085937500000
  0.18800000000000000          795.61004638671875
  0.18910000000000005          15913.960937500000
  0.19020000000000004          27820.703125000000
  0.19130000000000003          36577.191406250000
  0.19240000000000002          42268.921875000000
  0.19350000000000001          44911.546875000000
  0.19460000000000005          44604.769531250000
  0.19570000000000004          41725.492187500000
  0.19680000000000003          36715.492187500000
  0.19790000000000002          29895.994140625000
  0.19900000000000001          21595.416015625000
  0.20010000000000000          12003.537109375000
  0.20120000000000005          1440.0001220703125
  0.20230000000000004         -9703.7265625000000
  0.20340000000000003         -20869.644531250000
  0.20450000000000002         -31742.238281250000
  0.20560000000000000         -42161.421875000000
  0.20670000000000005         -51972.710937500000
  0.20780000000000004         -61056.785156250000
  0.20890000000000003         -69111.515625000000
