 -0.12000000000000000          0.0000000000000000
 -0.11889999999999999          8926.6816406250000
 -0.11780000000000000          20355.591796875000
 -0.11670000000000000          26123.162109375000
 -0.11559999999999999          24633.871093750000
 -0.11449999999999999          22484.880859375000
 -0.11340000000000000          27899.263671875000
 -0.11230000000000000          42761.664062500000
 -0.11119999999999999          61309.019531250000
 -0.11009999999999999          76593.289062500000
 -0.10900000000000000          87948.609375000000
 -0.10790000000000000          101916.04687500000
 -0.10679999999999999          125998.81250000000
 -0.10569999999999999          161927.39062500000
 -0.10460000000000000          205316.46875000000
 -0.10349999999999999          251739.23437500000
 -0.10239999999999999          302653.37500000000
 -0.10130000000000000          365091.15625000000
 -0.10020000000000000          445815.34375000000
  -9.9099999999999994E-002     546419.56250000000
  -9.7999999999999990E-002     664590.81250000000
  -9.6899999999999986E-002     800002.81250000000
  -9.5799999999999996E-002     958378.75000000000
  -9.4699999999999993E-002     1149377.6250000000
  -9.3599999999999989E-002     1380718.1250000000
  -9.2499999999999999E-002     1655049.1250000000
  -9.1399999999999995E-002     1973099.5000000000
  -9.0299999999999991E-002     2339818.0000000000
  -8.9200000000000002E-002     2766911.2500000000
  -8.8099999999999984E-002     3268979.5000000000
  -8.6999999999999994E-002     3857342.0000000000
  -8.5899999999999990E-002     4538241.5000000000
  -8.4799999999999986E-002     5317557.5000000000
  -8.3699999999999997E-002     6207204.0000000000
  -8.2599999999999993E-002     7226459.0000000000
  -8.1499999999999989E-002     8396669.0000000000
  -8.0399999999999999E-002     9734729.0000000000
  -7.9299999999999995E-002     11252129.000000000
  -7.8199999999999992E-002     12960642.000000000
  -7.7100000000000002E-002     14878789.000000000
  -7.5999999999999984E-002     17032282.000000000
  -7.4899999999999994E-002     19447820.000000000
  -7.3799999999999991E-002     22146440.000000000
  -7.2699999999999987E-002     25142880.000000000
  -7.1599999999999997E-002     28451432.000000000
  -7.0499999999999993E-002     32091692.000000000
  -6.9399999999999989E-002     36088240.000000000
  -6.8300000000000000E-002     40464120.000000000
  -6.7199999999999996E-002     45234500.000000000
  -6.6099999999999992E-002     50406520.000000000
  -6.5000000000000002E-002     55984456.000000000
  -6.3899999999999985E-002     61974456.000000000
  -6.2799999999999995E-002     68383016.000000000
  -6.1699999999999991E-002     75210624.000000000
  -6.0599999999999994E-002     82446560.000000000
  -5.9499999999999990E-002     90069272.000000000
  -5.8399999999999994E-002     98051192.000000000
  -5.7299999999999990E-002     106361928.00000000
  -5.6199999999999986E-002     114966008.00000000
  -5.5099999999999996E-002     123816880.00000000
  -5.3999999999999992E-002     132853624.00000000
  -5.2899999999999989E-002     142002720.00000000
  -5.1799999999999985E-002     151183216.00000000
  -5.0699999999999995E-002     160308896.00000000
  -4.9599999999999991E-002     169285296.00000000
  -4.8499999999999988E-002     178005280.00000000
  -4.7399999999999998E-002     186348096.00000000
  -4.6299999999999994E-002     194183408.00000000
  -4.5199999999999990E-002     201376992.00000000
  -4.4099999999999986E-002     207793248.00000000
  -4.2999999999999997E-002     213292448.00000000
  -4.1899999999999993E-002     217728000.00000000
  -4.0799999999999989E-002     220947600.00000000
  -3.9699999999999985E-002     222799840.00000000
  -3.8599999999999995E-002     223141472.00000000
  -3.7499999999999992E-002     221839632.00000000
  -3.6399999999999988E-002     218769456.00000000
  -3.5299999999999984E-002     213812256.00000000
  -3.4199999999999994E-002     206859072.00000000
  -3.3099999999999991E-002     197818144.00000000
  -3.1999999999999987E-002     186621904.00000000
  -3.0899999999999997E-002     173228144.00000000
  -2.9799999999999993E-002     157617920.00000000
  -2.8699999999999989E-002     139792912.00000000
  -2.7599999999999986E-002     119778864.00000000
  -2.6499999999999996E-002     97631896.000000000
  -2.5399999999999992E-002     73442664.000000000
  -2.4299999999999988E-002     47335940.000000000
  -2.3199999999999985E-002     19465700.000000000
  -2.2099999999999995E-002    -9989442.0000000000
  -2.0999999999999991E-002    -40825052.000000000
  -1.9899999999999987E-002    -72807752.000000000
  -1.8799999999999983E-002    -105674072.00000000
  -1.7699999999999994E-002    -139135808.00000000
  -1.6599999999999990E-002    -172887440.00000000
  -1.5499999999999986E-002    -206612624.00000000
  -1.4399999999999996E-002    -239985984.00000000
  -1.3299999999999992E-002    -272672768.00000000
  -1.2199999999999989E-002    -304331616.00000000
  -1.1099999999999985E-002    -334621696.00000000
  -9.9999999999999950E-003    -363212544.00000000
  -8.8999999999999913E-003    -389790464.00000000
  -7.7999999999999875E-003    -414060544.00000000
  -6.6999999999999837E-003    -435747040.00000000
  -5.5999999999999939E-003    -454596832.00000000
  -4.4999999999999901E-003    -470386176.00000000
  -3.3999999999999864E-003    -482928960.00000000
  -2.2999999999999826E-003    -492079712.00000000
  -1.1999999999999927E-003    -497733088.00000000
  -9.9999999999988987E-005    -499822528.00000000
   1.0000000000000148E-003    -498320256.00000000
   2.1000000000000185E-003    -493241216.00000000
   3.2000000000000084E-003    -484646496.00000000
   4.3000000000000121E-003    -472641696.00000000
   5.4000000000000159E-003    -457372608.00000000
   6.5000000000000058E-003    -439019264.00000000
   7.6000000000000234E-003    -417793184.00000000
   8.7000000000000133E-003    -393938080.00000000
   9.8000000000000032E-003    -367726528.00000000
   1.0900000000000021E-002    -339457312.00000000
   1.2000000000000011E-002    -309446560.00000000
   1.3100000000000001E-002    -278020928.00000000
   1.4200000000000018E-002    -245512976.00000000
   1.5300000000000008E-002    -212258720.00000000
   1.6400000000000026E-002    -178595648.00000000
   1.7500000000000016E-002    -144857232.00000000
   1.8600000000000005E-002    -111365000.00000000
   1.9700000000000023E-002    -78423008.000000000
   2.0800000000000013E-002    -46314912.000000000
   2.1900000000000003E-002    -15303702.000000000
   2.3000000000000020E-002     14369610.000000000
   2.4100000000000010E-002     42489284.000000000
   2.5200000000000000E-002     68869616.000000000
   2.6300000000000018E-002     93357144.000000000
   2.7400000000000008E-002     115829832.00000000
   2.8500000000000025E-002     136194448.00000000
   2.9600000000000015E-002     154385328.00000000
   3.0700000000000005E-002     170365136.00000000
   3.1800000000000023E-002     184125792.00000000
   3.2900000000000013E-002     195687456.00000000
   3.4000000000000002E-002     205095104.00000000
   3.5100000000000020E-002     212413952.00000000
   3.6200000000000010E-002     217726864.00000000
   3.7300000000000028E-002     221132944.00000000
   3.8400000000000017E-002     222747168.00000000
   3.9500000000000007E-002     222697792.00000000
   4.0600000000000025E-002     221122384.00000000
   4.1700000000000015E-002     218163072.00000000
   4.2800000000000005E-002     213964176.00000000
   4.3900000000000022E-002     208671536.00000000
   4.5000000000000012E-002     202431712.00000000
   4.6100000000000002E-002     195390224.00000000
   4.7200000000000020E-002     187688240.00000000
   4.8300000000000010E-002     179459568.00000000
   4.9400000000000027E-002     170829664.00000000
   5.0500000000000017E-002     161915952.00000000
   5.1600000000000007E-002     152828304.00000000
   5.2700000000000025E-002     143668640.00000000
   5.3800000000000014E-002     134528368.00000000
   5.4900000000000004E-002     125487792.00000000
   5.6000000000000022E-002     116616224.00000000
   5.7100000000000012E-002     107973552.00000000
   5.8200000000000002E-002     99611168.000000000
   5.9300000000000019E-002     91572064.000000000
   6.0400000000000009E-002     83890400.000000000
   6.1500000000000027E-002     76590952.000000000
   6.2600000000000017E-002     69690688.000000000
   6.3700000000000007E-002     63200548.000000000
   6.4800000000000024E-002     57126328.000000000
   6.5900000000000014E-002     51468864.000000000
   6.7000000000000004E-002     46223692.000000000
   6.8100000000000022E-002     41381636.000000000
   6.9200000000000012E-002     36929952.000000000
   7.0300000000000029E-002     32853740.000000000
   7.1400000000000019E-002     29136820.000000000
   7.2500000000000009E-002     25761518.000000000
   7.3600000000000027E-002     22708490.000000000
   7.4700000000000016E-002     19956890.000000000
   7.5800000000000006E-002     17485630.000000000
   7.6900000000000024E-002     15274139.000000000
   7.8000000000000014E-002     13302586.000000000
   7.9100000000000004E-002     11551616.000000000
   8.0200000000000021E-002     10001987.000000000
   8.1300000000000011E-002     8634905.0000000000
   8.2400000000000029E-002     7432595.0000000000
   8.3500000000000019E-002     6378851.0000000000
   8.4600000000000009E-002     5458714.5000000000
   8.5700000000000026E-002     4658117.5000000000
   8.6800000000000016E-002     3963701.0000000000
   8.7900000000000006E-002     3362988.7500000000
   8.9000000000000024E-002     2844872.5000000000
   9.0100000000000013E-002     2399608.0000000000
   9.1200000000000003E-002     2018459.2500000000
   9.2300000000000021E-002     1693295.6250000000
   9.3400000000000011E-002     1416562.2500000000
   9.4500000000000028E-002     1181536.8750000000
   9.5600000000000018E-002     982546.18750000000
   9.6700000000000008E-002     814778.56250000000
   9.7800000000000026E-002     673954.31250000000
   9.8900000000000016E-002     556094.93750000000
  0.10000000000000001          457549.93750000000
  0.10110000000000002          375278.34375000000
  0.10220000000000001          306863.81250000000
  0.10330000000000003          250295.51562500000
  0.10440000000000002          203741.04687500000
  0.10550000000000001          165463.23437500000
  0.10660000000000003          133994.18750000000
  0.10770000000000002          108204.29687500000
  0.10880000000000001          87193.695312500000
  0.10990000000000003          70124.906250000000
  0.11100000000000002          56206.042968750000
  0.11210000000000001          44822.816406250000
  0.11320000000000002          35642.925781250000
  0.11430000000000001          28469.042968750000
  0.11540000000000003          22967.365234375000
  0.11650000000000002          18551.564453125000
  0.11760000000000001          14696.251953125000
  0.11870000000000003          11267.166015625000
  0.11980000000000002          8568.0625000000000
  0.12090000000000001          6900.2949218750000
  0.12200000000000003          6070.5004882812500
  0.12310000000000001          5394.7148437500000
  0.12420000000000003          4266.8374023437500
  0.12530000000000002          2751.5100097656250
  0.12640000000000001          1558.2165527343750
  0.12750000000000003          1327.6730957031250
  0.12860000000000002          1905.0278320312500
  0.12970000000000001          2402.5737304687500
  0.13080000000000003          2037.4693603515625
  0.13190000000000002          902.91967773437500
  0.13300000000000001         -79.734504699707031
  0.13410000000000000         -85.932464599609375
  0.13520000000000004          770.86224365234375
  0.13630000000000003          1525.4794921875000
  0.13740000000000002          1323.6140136718750
  0.13850000000000001          299.77258300781250
  0.13960000000000000         -570.38281250000000
  0.14070000000000005         -467.76693725585938
  0.14180000000000004          438.25903320312500
  0.14290000000000003          1151.6582031250000
  0.14400000000000002          900.09411621093750
  0.14510000000000001         -84.043365478515625
  0.14620000000000000         -808.55407714843750
  0.14730000000000004         -570.28942871093750
  0.14840000000000003          311.65841674804688
  0.14950000000000002          849.86193847656250
  0.15060000000000001          434.82772827148438
  0.15170000000000000         -510.43624877929688
  0.15280000000000005         -986.86865234375000
  0.15390000000000004         -493.25418090820312
  0.15500000000000003          442.40780639648438
  0.15610000000000002          812.14288330078125
  0.15720000000000001          213.46617126464844
  0.15830000000000000         -711.85949707031250
  0.15940000000000004         -963.06689453125000
  0.16050000000000003         -252.98696899414062
  0.16160000000000002          664.75067138671875
  0.16270000000000001          788.90808105468750
  0.16380000000000000         -47.222812652587891
  0.16490000000000005         -972.34008789062500
  0.16600000000000004         -974.30285644531250
  0.16710000000000003          10.270521163940430
  0.16820000000000002          995.39385986328125
  0.16930000000000001          957.20465087890625
  0.17040000000000000         -80.964370727539062
  0.17150000000000004         -1050.4956054687500
  0.17260000000000003         -933.52807617187500
  0.17370000000000002          169.89726257324219
  0.17480000000000001          1131.6597900390625
  0.17590000000000000          956.89575195312500
  0.17700000000000005         -178.78984069824219
  0.17810000000000004         -1101.7802734375000
  0.17920000000000003         -855.71203613281250
  0.18030000000000002          306.48291015625000
  0.18140000000000001          1185.5950927734375
  0.18250000000000000          885.31640625000000
  0.18360000000000004         -264.65417480468750
  0.18470000000000003         -1054.5545654296875
  0.18580000000000002         -665.27343750000000
  0.18690000000000001          488.13815307617188
  0.18800000000000000          1193.2208251953125
  0.18910000000000005          717.27777099609375
  0.19020000000000004         -430.93679809570312
  0.19130000000000003         -1036.9898681640625
  0.19240000000000002         -460.72634887695312
  0.19350000000000001          695.15686035156250
  0.19460000000000005          1214.0698242187500
  0.19570000000000004          543.32830810546875
  0.19680000000000003         -630.24658203125000
  0.19790000000000002         -1097.2674560546875
  0.19900000000000001         -387.12594604492188
  0.20010000000000000          743.18969726562500
  0.20120000000000005          1105.4238281250000
  0.20230000000000004          316.69616699218750
  0.20340000000000003         -802.83056640625000
  0.20450000000000002         -1092.9730224609375
  0.20560000000000000         -263.51837158203125
  0.20670000000000005          808.19622802734375
  0.20780000000000004          999.88220214843750
  0.20890000000000003          115.72026824951172
