 -0.12000000000000000          0.0000000000000000
 -0.11889999999999999          0.0000000000000000
 -0.11780000000000000          0.0000000000000000
 -0.11670000000000000          0.0000000000000000
 -0.11559999999999999          0.0000000000000000
 -0.11449999999999999          0.0000000000000000
 -0.11340000000000000          0.0000000000000000
 -0.11230000000000000          0.0000000000000000
 -0.11119999999999999          0.0000000000000000
 -0.11009999999999999          0.0000000000000000
 -0.10900000000000000          0.0000000000000000
 -0.10790000000000000         -1.3057511318628940E-028
 -0.10679999999999999         -6.2898271978262200E-028
 -0.10569999999999999          3.0531230073916366E-027
 -0.10460000000000000          3.1705712613368245E-026
 -0.10349999999999999          6.8582963128284207E-026
 -0.10239999999999999         -2.2987271192672199E-025
 -0.10130000000000000         -1.6834668398498635E-024
 -0.10020000000000000         -3.3394276776564808E-024
  -9.9099999999999994E-002     3.9897697355165668E-024
  -9.7999999999999990E-002     3.6858695914779484E-023
  -9.6899999999999986E-002     7.6621649516446162E-023
  -9.5799999999999996E-002    -1.8825654321232864E-023
  -9.4699999999999993E-002    -4.7895872876223743E-022
  -9.3599999999999989E-002    -1.1078921082411403E-021
  -9.2499999999999999E-002    -3.8080337903290502E-022
  -9.1399999999999995E-002     4.1800808890446489E-021
  -9.0299999999999991E-002     1.1503001395948282E-020
  -8.9200000000000002E-002     9.3669173239551924E-021
  -8.8099999999999984E-002    -2.3888039049993782E-020
  -8.6999999999999994E-002    -8.8733111874635246E-020
  -8.5899999999999990E-002    -1.1036119655590612E-019
  -8.4799999999999986E-002     6.5072431170819907E-020
  -8.3699999999999997E-002     5.0554704439584480E-019
  -8.2599999999999993E-002     8.6707325874977568E-019
  -8.1499999999999989E-002     2.6607836045931986E-019
  -8.0399999999999999E-002    -2.0235763934463963E-018
  -7.9299999999999995E-002    -4.9178881810094937E-018
  -7.8199999999999992E-002    -4.3523373515814757E-018
  -7.7100000000000002E-002     4.5282708096556855E-018
  -7.5999999999999984E-002     2.0402939204212462E-017
  -7.4899999999999994E-002     2.8636092834079360E-017
  -7.3799999999999991E-002     5.3312816183002199E-018
  -7.2699999999999987E-002    -5.8650083280214853E-017
  -7.1599999999999997E-002    -1.2463997174618424E-016
  -7.0499999999999993E-002    -1.0216422380603229E-016
  -6.9399999999999989E-002     8.5677276735654073E-017
  -6.8300000000000000E-002     3.8101680725690246E-016
  -6.7199999999999996E-002     5.2062816575514526E-016
  -6.6099999999999992E-002     1.6366322961244308E-016
  -6.5000000000000002E-002    -7.5271402863252108E-016
  -6.3899999999999985E-002    -1.6699057619958295E-015
  -6.2799999999999995E-002    -1.5194557699045206E-015
  -6.1699999999999991E-002     4.5308364095871922E-016
  -6.0599999999999994E-002     3.5565973248636619E-015
  -5.9499999999999990E-002     5.3111117256530657E-015
  -5.8399999999999994E-002     2.8809854231670292E-015
  -5.7299999999999990E-002    -4.0892429823162144E-015
  -5.6199999999999986E-002    -1.1477136346068739E-014
  -5.5099999999999996E-002    -1.2267959339910296E-014
  -5.3999999999999992E-002    -2.1445493560774860E-015
  -5.2899999999999989E-002     1.4699374191267343E-014
  -5.1799999999999985E-002     2.5654866143802468E-014
  -5.0699999999999995E-002     1.8586616756322352E-014
  -4.9599999999999991E-002    -5.8161076866083961E-015
  -4.8499999999999988E-002    -2.9996953543071775E-014
  -4.7399999999999998E-002    -3.1919325310051511E-014
  -4.6299999999999994E-002    -7.2689699379580204E-015
  -4.5199999999999990E-002     1.9572617317034982E-014
  -4.4099999999999986E-002     1.3984085360497188E-014
  -4.2999999999999997E-002    -2.8545582916742265E-014
  -4.1899999999999993E-002    -5.8094466195111882E-014
  -4.0799999999999989E-002    -1.7238712898565850E-015
  -3.9699999999999985E-002     1.5393032172256876E-013
  -3.8599999999999995E-002     2.9721979543338717E-013
  -3.7499999999999992E-002     2.3205344438538555E-013
  -3.6399999999999988E-002    -1.5561297638921195E-013
  -3.5299999999999984E-002    -7.1393818591378166E-013
  -3.4199999999999994E-002    -1.0108885300022519E-012
  -3.3099999999999991E-002    -5.9662127668835829E-013
  -3.1999999999999987E-002     5.7833458074613153E-013
  -3.0899999999999997E-002     1.9188676255582626E-012
  -2.9799999999999993E-002     2.4177081777571052E-012
  -2.8699999999999989E-002     1.3394223881066369E-012
  -2.7599999999999986E-002    -1.0893416160437375E-012
  -2.6499999999999996E-002    -3.5733165558438085E-012
  -2.5399999999999992E-002    -4.4663725842775115E-012
  -2.4299999999999988E-002    -2.9000480402524564E-012
  -2.3199999999999985E-002     5.2129524655275539E-013
  -2.2099999999999995E-002     4.0640208212594509E-012
  -2.0999999999999991E-002     6.0326023690326913E-012
  -1.9899999999999987E-002     5.8071273484339159E-012
  -1.8799999999999983E-002     3.8600225446550063E-012
  -1.7699999999999994E-002     8.0531366080868749E-013
  -1.6599999999999990E-002    -3.4276349120121452E-012
  -1.5499999999999986E-002    -9.1349185160627400E-012
  -1.4399999999999996E-002    -1.5160992253293593E-011
  -1.3299999999999992E-002    -1.7664194759681173E-011
  -1.2199999999999989E-002    -1.1355407933399952E-011
  -1.1099999999999985E-002     6.4389496338967955E-012
  -9.9999999999999950E-003     3.1304982911484203E-011
  -8.8999999999999913E-003     5.0824632696899741E-011
  -7.7999999999999875E-003     4.9683236691411281E-011
  -6.6999999999999837E-003     1.9164220557699174E-011
  -5.5999999999999939E-003    -3.4534597403990119E-011
  -4.4999999999999901E-003    -8.9293968053016926E-011
  -3.3999999999999864E-003    -1.1571018448952586E-010
  -2.2999999999999826E-003    -9.1791428624699023E-011
  -1.1999999999999927E-003    -1.6049042303456496E-011
  -9.9999999999988987E-005     8.8186014046698347E-011
   1.0000000000000148E-003     1.7980993083366315E-010
   2.1000000000000185E-003     2.1540105810124999E-010
   3.2000000000000084E-003     1.6682336068107873E-010
   4.3000000000000121E-003     3.4657877262533887E-011
   5.4000000000000159E-003    -1.4695071548498362E-010
   6.5000000000000058E-003    -3.1628555330343033E-010
   7.6000000000000234E-003    -4.0108819043815913E-010
   8.7000000000000133E-003    -3.4397196202462510E-010
   9.8000000000000032E-003    -1.2947606875535200E-010
   1.0900000000000021E-002     1.9772128379003107E-010
   1.2000000000000011E-002     5.3425835977449765E-010
   1.3100000000000001E-002     7.4481715239826940E-010
   1.4200000000000018E-002     7.0979133681703388E-010
   1.5300000000000008E-002     3.7890829363007583E-010
   1.6400000000000026E-002    -1.9048254640274820E-010
   1.7500000000000016E-002    -8.3012385854175363E-010
   1.8600000000000005E-002    -1.3021229650078681E-009
   1.9700000000000023E-002    -1.3782571750553529E-009
   2.0800000000000013E-002    -9.3379026733231285E-010
   2.1900000000000003E-002    -2.0948909273954541E-011
   2.3000000000000020E-002     1.1122787135775525E-009
   2.4100000000000010E-002     2.0772479292219259E-009
   2.5200000000000000E-002     2.4666018116903388E-009
   2.6300000000000018E-002     2.0079762297342540E-009
   2.7400000000000008E-002     6.9614547459906362E-010
   2.8500000000000025E-002    -1.1502686581010835E-009
   2.9600000000000015E-002    -2.9431319603645534E-009
   3.0700000000000005E-002    -3.9930960760159451E-009
   3.1800000000000023E-002    -3.7546046272041167E-009
   3.2900000000000013E-002    -2.0716794946196160E-009
   3.4000000000000002E-002     6.7505723233551862E-010
   3.5100000000000020E-002     3.6100280542683549E-009
   3.6200000000000010E-002     5.6263345094009765E-009
   3.7300000000000028E-002     5.8083897691574293E-009
   3.8400000000000017E-002     3.8530711954365415E-009
   3.9500000000000007E-002     2.8868718526808834E-010
   4.0600000000000025E-002    -3.6484586463103597E-009
   4.1700000000000015E-002    -6.4685097278527337E-009
   4.2800000000000005E-002    -7.0315189226732855E-009
   4.3900000000000022E-002    -5.0275241747499422E-009
   4.5000000000000012E-002    -1.1126818355577939E-009
   4.6100000000000002E-002     3.3475255900583534E-009
   4.7200000000000020E-002     6.7858070273985049E-009
   4.8300000000000010E-002     7.9521420559558464E-009
   4.9400000000000027E-002     6.2526583910482714E-009
   5.0500000000000017E-002     1.8601078455304787E-009
   5.1600000000000007E-002    -4.3238412850143959E-009
   5.2700000000000025E-002    -1.0753557155851468E-008
   5.3800000000000014E-002    -1.5363147198854676E-008
   5.4900000000000004E-002    -1.5838148570423982E-008
   5.6000000000000022E-002    -1.0168650810271629E-008
   5.7100000000000012E-002     2.5135074022131221E-009
   5.8200000000000002E-002     2.1045160281119024E-008
   5.9300000000000019E-002     4.1712588938480621E-008
   6.0400000000000009E-002     5.8514064704695556E-008
   6.1500000000000027E-002     6.4336362015637860E-008
   6.2600000000000017E-002     5.2724075771948264E-008
   6.3700000000000007E-002     1.9521774419217763E-008
   6.4800000000000024E-002    -3.6422491689336312E-008
   6.5900000000000014E-002    -1.1396913635053352E-007
   6.7000000000000004E-002    -2.1164589725231053E-007
   6.8100000000000022E-002    -3.3005318300638464E-007
   6.9200000000000012E-002    -4.7366188482556026E-007
   7.0300000000000029E-002    -6.5125647097374895E-007
   7.1400000000000019E-002    -8.7499864775963943E-007
   7.2500000000000009E-002    -1.1588314237087616E-006
   7.3600000000000027E-002    -1.5172722669376526E-006
   7.4700000000000016E-002    -1.9653887193271657E-006
   7.5800000000000006E-002    -2.5200779418810271E-006
   7.6900000000000024E-002    -3.2021125662140548E-006
   7.8000000000000014E-002    -4.0381546568823978E-006
   7.9100000000000004E-002    -5.0621820264495909E-006
   8.0200000000000021E-002    -6.3163079175865278E-006
   8.1300000000000011E-002    -7.8514367487514392E-006
   8.2400000000000029E-002    -9.7282800197717734E-006
   8.3500000000000019E-002    -1.2019019777653739E-005
   8.4600000000000009E-002    -1.4809454114583787E-005
   8.5700000000000026E-002    -1.8201220882474445E-005
   8.6800000000000016E-002    -2.2313761292025447E-005
   8.7900000000000006E-002    -2.7286008844384924E-005
   8.9000000000000024E-002    -3.3278214687015861E-005
   9.0100000000000013E-002    -4.0474558772984892E-005
   9.1200000000000003E-002    -4.9086949729826301E-005
   9.2300000000000021E-002    -5.9360034356359392E-005
   9.3400000000000011E-002    -7.1576920163352042E-005
   9.4500000000000028E-002    -8.6064843344502151E-005
   9.5600000000000018E-002    -1.0320013825548813E-004
   9.6700000000000008E-002    -1.2341261026449502E-004
   9.7800000000000026E-002    -1.4718958118464798E-004
   9.8900000000000016E-002    -1.7508032033219934E-004
  0.10000000000000001         -2.0770121773239225E-004
  0.10110000000000002         -2.4574104463681579E-004
  0.10220000000000001         -2.8996629407629371E-004
  0.10330000000000003         -3.4122576471418142E-004
  0.10440000000000002         -4.0045447531156242E-004
  0.10550000000000001         -4.6867781202308834E-004
  0.10660000000000003         -5.4701557382941246E-004
  0.10770000000000002         -6.3668616348877549E-004
  0.10880000000000001         -7.3900993447750807E-004
  0.10990000000000003         -8.5540942382067442E-004
  0.11100000000000002         -9.8740600515156984E-004
  0.11210000000000001         -1.1366130784153938E-003
  0.11320000000000002         -1.3047271640971303E-003
  0.11430000000000001         -1.4935175422579050E-003
  0.11540000000000003         -1.7048154259100556E-003
  0.11650000000000002         -1.9405011553317308E-003
  0.11760000000000001         -2.2024903446435928E-003
  0.11870000000000003         -2.4927125778049231E-003
  0.11980000000000002         -2.8130849823355675E-003
  0.12090000000000001         -3.1654818449169397E-003
  0.12200000000000003         -3.5516961943358183E-003
  0.12310000000000001         -3.9734006859362125E-003
  0.12420000000000003         -4.4321068562567234E-003
  0.12530000000000002         -4.9291234463453293E-003
  0.12640000000000001         -5.4655135609209538E-003
  0.12750000000000003         -6.0420464724302292E-003
  0.12860000000000002         -6.6591445356607437E-003
  0.12970000000000001         -7.3168249800801277E-003
  0.13080000000000003         -8.0146435648202896E-003
  0.13190000000000002         -8.7516373023390770E-003
  0.13300000000000001         -9.5262750983238220E-003
  0.13410000000000000         -1.0336413979530334E-002
  0.13520000000000004         -1.1179251596331596E-002
  0.13630000000000003         -1.2051282450556755E-002
  0.13740000000000002         -1.2948260642588139E-002
  0.13850000000000001         -1.3865176588296890E-002
  0.13960000000000000         -1.4796241186559200E-002
  0.14070000000000005         -1.5734877437353134E-002
  0.14180000000000004         -1.6673728823661804E-002
  0.14290000000000003         -1.7604686319828033E-002
  0.14400000000000002         -1.8518928438425064E-002
  0.14510000000000001         -1.9406963139772415E-002
  0.14620000000000000         -2.0258678123354912E-002
  0.14730000000000004         -2.1063432097434998E-002
  0.14840000000000003         -2.1810157224535942E-002
  0.14950000000000002         -2.2487463429570198E-002
  0.15060000000000001         -2.3083776235580444E-002
  0.15170000000000000         -2.3587480187416077E-002
  0.15280000000000005         -2.3987080901861191E-002
  0.15390000000000004         -2.4271363392472267E-002
  0.15500000000000003         -2.4429576471447945E-002
  0.15610000000000002         -2.4451587349176407E-002
  0.15720000000000001         -2.4328051134943962E-002
  0.15830000000000000         -2.4050606414675713E-002
  0.15940000000000004         -2.3612057790160179E-002
  0.16050000000000003         -2.3006554692983627E-002
  0.16160000000000002         -2.2229773923754692E-002
  0.16270000000000001         -2.1279040724039078E-002
  0.16380000000000000         -2.0153446123003960E-002
  0.16490000000000005         -1.8853936344385147E-002
  0.16600000000000004         -1.7383409664034843E-002
  0.16710000000000003         -1.5746762976050377E-002
  0.16820000000000002         -1.3950943015515804E-002
  0.16930000000000001         -1.2004937045276165E-002
  0.17040000000000000         -9.9197141826152802E-003
  0.17150000000000004         -7.7081471681594849E-003
  0.17260000000000003         -5.3849085234105587E-003
  0.17370000000000002         -2.9663420282304287E-003
  0.17480000000000001         -4.7029988490976393E-004
  0.17590000000000000          2.0840538199990988E-003
  0.17700000000000005          4.6764626167714596E-003
  0.17810000000000004          7.2858245112001896E-003
  0.17920000000000003          9.8904566839337349E-003
  0.18030000000000002          1.2468370608985424E-002
  0.18140000000000001          1.4997569844126701E-002
  0.18250000000000000          1.7456330358982086E-002
  0.18360000000000004          1.9823495298624039E-002
  0.18470000000000003          2.2078748792409897E-002
  0.18580000000000002          2.4202873930335045E-002
  0.18690000000000001          2.6178032159805298E-002
  0.18800000000000000          2.7987988665699959E-002
  0.18910000000000005          2.9618328437209129E-002
  0.19020000000000004          3.1056653708219528E-002
  0.19130000000000003          3.2292705029249191E-002
  0.19240000000000002          3.3318478614091873E-002
  0.19350000000000001          3.4128293395042419E-002
  0.19460000000000005          3.4718874841928482E-002
  0.19570000000000004          3.5089354962110519E-002
  0.19680000000000003          3.5241220146417618E-002
  0.19790000000000002          3.5178225487470627E-002
  0.19900000000000001          3.4906323999166489E-002
  0.20010000000000000          3.4433513879776001E-002
  0.20120000000000005          3.3769696950912476E-002
  0.20230000000000004          3.2926496118307114E-002
  0.20340000000000003          3.1917043030261993E-002
  0.20450000000000002          3.0755756422877312E-002
  0.20560000000000000          2.9458124190568924E-002
  0.20670000000000005          2.8040450066328049E-002
  0.20780000000000004          2.6519607752561569E-002
  0.20890000000000003          2.4912787601351738E-002
