 -0.12000000000000000          0.0000000000000000
 -0.11889999999999999          0.0000000000000000
 -0.11780000000000000          0.0000000000000000
 -0.11670000000000000          0.0000000000000000
 -0.11559999999999999          0.0000000000000000
 -0.11449999999999999          0.0000000000000000
 -0.11340000000000000          0.0000000000000000
 -0.11230000000000000          0.0000000000000000
 -0.11119999999999999         -4.7447730265083323E-025
 -0.11009999999999999          5.6224226918022978E-024
 -0.10900000000000000         -2.6453091091474754E-022
 -0.10790000000000000         -7.3849018004760525E-022
 -0.10679999999999999          2.7233950296544183E-021
 -0.10569999999999999          3.7011869352290610E-021
 -0.10460000000000000         -6.4529316012844953E-020
 -0.10349999999999999         -1.9502124524493612E-019
 -0.10239999999999999          3.0437222162836771E-019
 -0.10130000000000000          2.4726887303580811E-018
 -0.10020000000000000          2.7698153151095789E-018
  -9.9099999999999994E-002    -1.2100597706369790E-017
  -9.7999999999999990E-002    -4.4026396935559279E-017
  -9.6899999999999986E-002    -2.0925775253988854E-017
  -9.5799999999999996E-002     1.9955577429631123E-016
  -9.4699999999999993E-002     5.2791021388180889E-016
  -9.3599999999999989E-002     1.4564269630383645E-016
  -9.2499999999999999E-002    -2.0795304717715355E-015
  -9.1399999999999995E-002    -4.9030739321040406E-015
  -9.0299999999999991E-002    -1.6260808067004840E-015
  -8.9200000000000002E-002     1.5515383709795508E-014
  -8.8099999999999984E-002     3.7108438880311539E-014
  -8.6999999999999994E-002     1.9553855537253299E-014
  -8.5899999999999990E-002    -8.6073936335622631E-014
  -8.4799999999999986E-002    -2.3177710835667331E-013
  -8.3699999999999997E-002    -1.8231514117405395E-013
  -8.2599999999999993E-002     3.4546034110606583E-013
  -8.1499999999999989E-002     1.1913012893868813E-012
  -8.0399999999999999E-002     1.2891456565439219E-012
  -7.9299999999999995E-002    -8.2615094236168640E-013
  -7.8199999999999992E-002    -4.9710227253974004E-012
  -7.7100000000000002E-002    -7.1104884133421642E-012
  -7.5999999999999984E-002    -6.3116699366982942E-013
  -7.4899999999999994E-002     1.6275234632212587E-011
  -7.3799999999999991E-002     3.1192361193976836E-011
  -7.2699999999999987E-002     1.8525587314188741E-011
  -7.1599999999999997E-002    -3.7810112679670382E-011
  -7.0499999999999993E-002    -1.0904965125346777E-010
  -6.9399999999999989E-002    -1.1158632351460085E-010
  -6.8300000000000000E-002     3.5597736564030313E-011
  -6.7199999999999996E-002     2.9631821996112251E-010
  -6.6099999999999992E-002     4.4556164313647173E-010
  -6.5000000000000002E-002     1.7924416118031417E-010
  -6.3899999999999985E-002    -5.6919524649146069E-010
  -6.2799999999999995E-002    -1.3270902154971509E-009
  -6.1699999999999991E-002    -1.1901668539593402E-009
  -6.0599999999999994E-002     4.5054018849022270E-010
  -5.9499999999999990E-002     2.9453912642196656E-009
  -5.8399999999999994E-002     4.1507868253631841E-009
  -5.7299999999999990E-002     1.7422602249794750E-009
  -5.6199999999999986E-002    -4.3164161134257029E-009
  -5.5099999999999996E-002    -1.0133045513782690E-008
  -5.3999999999999992E-002    -9.4475609557775897E-009
  -5.2899999999999989E-002     1.2578966757104126E-009
  -5.1799999999999985E-002     1.7396931895063972E-008
  -5.0699999999999995E-002     2.6176573797442870E-008
  -4.9599999999999991E-002     1.4840106032920630E-008
  -4.8499999999999988E-002    -1.6654116308245648E-008
  -4.7399999999999998E-002    -4.9003219260157493E-008
  -4.6299999999999994E-002    -5.2579348874814968E-008
  -4.5199999999999990E-002    -1.0678210315973047E-008
  -4.4099999999999986E-002     5.9069851232607107E-008
  -4.2999999999999997E-002     1.0639472947104878E-007
  -4.1899999999999993E-002     8.1082674796562060E-008
  -4.0799999999999989E-002    -2.1770038216573084E-008
  -3.9699999999999985E-002    -1.4114752389104979E-007
  -3.8599999999999995E-002    -1.8171219551277318E-007
  -3.7499999999999992E-002    -8.6318884484626324E-008
  -3.6399999999999988E-002     1.0303871533778874E-007
  -3.5299999999999984E-002     2.5397309855179628E-007
  -3.4199999999999994E-002     2.3414668248733506E-007
  -3.3099999999999991E-002     2.5017696358986541E-008
  -3.1999999999999987E-002    -2.3614622080003755E-007
  -3.0899999999999997E-002    -3.4105298141184903E-007
  -2.9799999999999993E-002    -1.7686512876480265E-007
  -2.8699999999999989E-002     1.5505479211697093E-007
  -2.7599999999999986E-002     3.8539755564670486E-007
  -2.6499999999999996E-002     2.8442832444852684E-007
  -2.5399999999999992E-002    -1.1916267084188803E-007
  -2.4299999999999988E-002    -5.0341469659542781E-007
  -2.3199999999999985E-002    -4.7803462166484678E-007
  -2.2099999999999995E-002     7.0386668937771901E-008
  -2.0999999999999991E-002     7.9349894122060505E-007
  -1.9899999999999987E-002     1.0627536539686844E-006
  -1.8799999999999983E-002     4.5085846522852080E-007
  -1.7699999999999994E-002    -8.3044312759739114E-007
  -1.6599999999999990E-002    -1.9236342723161215E-006
  -1.5499999999999986E-002    -1.8613760630614706E-006
  -1.4399999999999996E-002    -3.2857809628694667E-007
  -1.3299999999999992E-002     1.9202007024432532E-006
  -1.2199999999999989E-002     3.3966070986934938E-006
  -1.1099999999999985E-002     2.8536894660646794E-006
  -9.9999999999999950E-003     2.6210383907709911E-007
  -8.8999999999999913E-003    -2.9592299597425153E-006
  -7.7999999999999875E-003    -4.7463495320698712E-006
  -6.6999999999999837E-003    -3.7681468256778317E-006
  -5.5999999999999939E-003    -4.2731986127364507E-007
  -4.4999999999999901E-003     3.2892908166104462E-006
  -3.3999999999999864E-003     5.0956386985490099E-006
  -2.2999999999999826E-003     3.9578826545039192E-006
  -1.1999999999999927E-003     7.8375842349487357E-007
  -9.9999999999988987E-005    -2.2858184820506722E-006
   1.0000000000000148E-003    -3.4672175388550386E-006
   2.1000000000000185E-003    -2.5820713744906243E-006
   3.2000000000000084E-003    -9.7398378784419037E-007
   4.3000000000000121E-003    -1.7003334562559758E-007
   5.4000000000000159E-003    -4.3760317680607841E-007
   6.5000000000000058E-003    -5.5304764146058005E-007
   7.6000000000000234E-003     8.8952856458490714E-007
   8.7000000000000133E-003     3.7141310258448357E-006
   9.8000000000000032E-003     5.6552626119810157E-006
   1.0900000000000021E-002     3.9574633774464019E-006
   1.2000000000000011E-002    -1.9060913700741366E-006
   1.3100000000000001E-002    -8.7158887254190631E-006
   1.4200000000000018E-002    -1.1013661605829839E-005
   1.5300000000000008E-002    -5.1792162594210822E-006
   1.6400000000000026E-002     6.8119829848001245E-006
   1.7500000000000016E-002     1.7314949218416587E-005
   1.8600000000000005E-002     1.7661006495472975E-005
   1.9700000000000023E-002     4.8152369345189072E-006
   2.0800000000000013E-002    -1.4948273019399494E-005
   2.1900000000000003E-002    -2.8961168936803006E-005
   2.3000000000000020E-002    -2.6638143026502803E-005
   2.4100000000000010E-002    -7.7955710366950370E-006
   2.5200000000000000E-002     1.5839797924854793E-005
   2.6300000000000018E-002     2.8304995794314891E-005
   2.7400000000000008E-002     2.1658748664776795E-005
   2.8500000000000025E-002     3.6766807625099318E-006
   2.9600000000000015E-002    -6.2182270994526334E-006
   3.0700000000000005E-002     8.0664403867558576E-006
   3.1800000000000023E-002     4.3190517317270860E-005
   3.2900000000000013E-002     7.1940827183425426E-005
   3.4000000000000002E-002     5.6959423091029748E-005
   3.5100000000000020E-002    -2.3241394956130534E-005
   3.6200000000000010E-002    -1.5212583821266890E-004
   3.7300000000000028E-002    -2.7328284340910614E-004
   3.8400000000000017E-002    -3.1401668093167245E-004
   3.9500000000000007E-002    -2.2318374249152839E-004
   4.0600000000000025E-002    -1.5664802504034014E-006
   4.1700000000000015E-002     2.9379979241639376E-004
   4.2800000000000005E-002     5.7430559536442161E-004
   4.3900000000000022E-002     7.5820815982297063E-004
   4.5000000000000012E-002     7.9914939124137163E-004
   4.6100000000000002E-002     6.8846403155475855E-004
   4.7200000000000020E-002     4.3345909216441214E-004
   4.8300000000000010E-002     3.0619277822552249E-005
   4.9400000000000027E-002    -5.4414925398305058E-004
   5.0500000000000017E-002    -1.3191283214837313E-003
   5.1600000000000007E-002    -2.2953285370022058E-003
   5.2700000000000025E-002    -3.4240132663398981E-003
   5.3800000000000014E-002    -4.6133468858897686E-003
   5.4900000000000004E-002    -5.7657598517835140E-003
   5.6000000000000022E-002    -6.8270503543317318E-003
   5.7100000000000012E-002    -7.8200288116931915E-003
   5.8200000000000002E-002    -8.8454121723771095E-003
   5.9300000000000019E-002    -1.0053976438939571E-002
   6.0400000000000009E-002    -1.1611509136855602E-002
   6.1500000000000027E-002    -1.3680531643331051E-002
   6.2600000000000017E-002    -1.6427783295512199E-002
   6.3700000000000007E-002    -2.0046055316925049E-002
   6.4800000000000024E-002    -2.4766853079199791E-002
   6.5900000000000014E-002    -3.0845902860164642E-002
   6.7000000000000004E-002    -3.8523264229297638E-002
   6.8100000000000022E-002    -4.7980409115552902E-002
   6.9200000000000012E-002    -5.9325244277715683E-002
   7.0300000000000029E-002    -7.2625525295734406E-002
   7.1400000000000019E-002    -8.7988153100013733E-002
   7.2500000000000009E-002   -0.10565906018018723
   7.3600000000000027E-002   -0.12610432505607605
   7.4700000000000016E-002   -0.15003900229930878
   7.5800000000000006E-002   -0.17838662862777710
   7.6900000000000024E-002   -0.21217884123325348
   7.8000000000000014E-002   -0.25242722034454346
   7.9100000000000004E-002   -0.30001536011695862
   8.0200000000000021E-002   -0.35565412044525146
   8.1300000000000011E-002   -0.41992992162704468
   8.2400000000000029E-002   -0.49343568086624146
   8.3500000000000019E-002   -0.57693678140640259
   8.4600000000000009E-002   -0.67150944471359253
   8.5700000000000026E-002   -0.77857643365859985
   8.6800000000000016E-002   -0.89982897043228149
   8.7900000000000006E-002    -1.0370541810989380
   8.9000000000000024E-002    -1.1919548511505127
   9.0100000000000013E-002    -1.3660312891006470
   9.1200000000000003E-002    -1.5605614185333252
   9.2300000000000021E-002    -1.7766551971435547
   9.3400000000000011E-002    -2.0153381824493408
   9.4500000000000028E-002    -2.2775514125823975
   9.5600000000000018E-002    -2.5640859603881836
   9.6700000000000008E-002    -2.8754773139953613
   9.7800000000000026E-002    -3.2118880748748779
   9.8900000000000016E-002    -3.5730960369110107
  0.10000000000000001         -3.9584805965423584
  0.10110000000000002         -4.3670749664306641
  0.10220000000000001         -4.7974781990051270
  0.10330000000000003         -5.2477221488952637
  0.10440000000000002         -5.7150440216064453
  0.10550000000000001         -6.1956858634948730
  0.10660000000000003         -6.6848254203796387
  0.10770000000000002         -7.1765899658203125
  0.10880000000000001         -7.6641321182250977
  0.10990000000000003         -8.1398038864135742
  0.11100000000000002         -8.5950450897216797
  0.11210000000000001         -9.0203084945678711
  0.11320000000000002         -9.4049873352050781
  0.11430000000000001         -9.7374401092529297
  0.11540000000000003         -10.005054473876953
  0.11650000000000002         -10.194651603698730
  0.11760000000000001         -10.292591094970703
  0.11870000000000003         -10.285122871398926
  0.11980000000000002         -10.158445358276367
  0.12090000000000001         -9.8986196517944336
  0.12200000000000003         -9.4918594360351562
  0.12310000000000001         -8.9248266220092773
  0.12420000000000003         -8.1850147247314453
  0.12530000000000002         -7.2614450454711914
  0.12640000000000001         -6.1449398994445801
  0.12750000000000003         -4.8287954330444336
  0.12860000000000002         -3.3089010715484619
  0.12970000000000001         -1.5839293003082275
  0.13080000000000003         0.34447503089904785
  0.13190000000000002          2.4711823463439941
  0.13300000000000001          4.7874870300292969
  0.13410000000000000          7.2805476188659668
  0.13520000000000004          9.9332208633422852
  0.13630000000000003          12.724069595336914
  0.13740000000000002          15.627462387084961
  0.13850000000000001          18.613378524780273
  0.13960000000000000          21.648090362548828
  0.14070000000000005          24.694400787353516
  0.14180000000000004          27.711755752563477
  0.14290000000000003          30.656303405761719
  0.14400000000000002          33.482208251953125
  0.14510000000000001          36.141685485839844
  0.14620000000000000          38.586437225341797
  0.14730000000000004          40.767932891845703
  0.14840000000000003          42.638954162597656
  0.14950000000000002          44.154010772705078
  0.15060000000000001          45.270866394042969
  0.15170000000000000          45.950561523437500
  0.15280000000000005          46.159427642822266
  0.15390000000000004          45.869239807128906
  0.15500000000000003          45.058540344238281
  0.15610000000000002          43.712711334228516
  0.15720000000000001          41.824687957763672
  0.15830000000000000          39.395645141601562
  0.15940000000000004          36.435573577880859
  0.16050000000000003          32.963222503662109
  0.16160000000000002          29.006202697753906
  0.16270000000000001          24.600732803344727
  0.16380000000000000          19.791599273681641
  0.16490000000000005          14.631019592285156
  0.16600000000000004          9.1782426834106445
  0.16710000000000003          3.4986636638641357
  0.16820000000000002         -2.3372848033905029
  0.16930000000000001         -8.2551708221435547
  0.17040000000000000         -14.178267478942871
  0.17150000000000004         -20.028146743774414
  0.17260000000000003         -25.727031707763672
  0.17370000000000002         -31.198276519775391
  0.17480000000000001         -36.367961883544922
  0.17590000000000000         -41.166625976562500
  0.17700000000000005         -45.529964447021484
  0.17810000000000004         -49.400756835937500
  0.17920000000000003         -52.729225158691406
  0.18030000000000002         -55.474689483642578
  0.18140000000000001         -57.605579376220703
  0.18250000000000000         -59.099937438964844
  0.18360000000000004         -59.945812225341797
  0.18470000000000003         -60.141674041748047
  0.18580000000000002         -59.695610046386719
  0.18690000000000001         -58.625839233398438
  0.18800000000000000         -56.959388732910156
  0.18910000000000005         -54.731563568115234
  0.19020000000000004         -51.986110687255859
  0.19130000000000003         -48.773239135742188
  0.19240000000000002         -45.148876190185547
  0.19350000000000001         -41.173744201660156
  0.19460000000000005         -36.911766052246094
  0.19570000000000004         -32.429145812988281
  0.19680000000000003         -27.792837142944336
  0.19790000000000002         -23.069265365600586
  0.19900000000000001         -18.324096679687500
  0.20010000000000000         -13.619935035705566
  0.20120000000000005         -9.0160465240478516
  0.20230000000000004         -4.5677022933959961
  0.20340000000000003        -0.32556504011154175
  0.20450000000000002          3.6655929088592529
  0.20560000000000000          7.3668107986450195
  0.20670000000000005          10.745522499084473
  0.20780000000000004          13.775629997253418
  0.20890000000000003          16.437313079833984
