  -8.0000000000000002E-002     0.0000000000000000
  -7.9579999999999998E-002     0.0000000000000000
  -7.9160000000000008E-002     0.0000000000000000
  -7.8740000000000004E-002     0.0000000000000000
  -7.8320000000000001E-002     0.0000000000000000
  -7.7899999999999997E-002     0.0000000000000000
  -7.7480000000000007E-002     0.0000000000000000
  -7.7060000000000003E-002     0.0000000000000000
  -7.6640000000000000E-002     0.0000000000000000
  -7.6219999999999996E-002     0.0000000000000000
  -7.5800000000000006E-002     0.0000000000000000
  -7.5380000000000003E-002     0.0000000000000000
  -7.4959999999999999E-002     0.0000000000000000
  -7.4539999999999995E-002     0.0000000000000000
  -7.4120000000000005E-002     0.0000000000000000
  -7.3700000000000002E-002     0.0000000000000000
  -7.3279999999999998E-002     0.0000000000000000
  -7.2860000000000008E-002     0.0000000000000000
  -7.2440000000000004E-002     0.0000000000000000
  -7.2020000000000001E-002     0.0000000000000000
  -7.1599999999999997E-002     0.0000000000000000
  -7.1180000000000007E-002     0.0000000000000000
  -7.0760000000000003E-002    -2.1789385927852562E-042
  -7.0340000000000000E-002    -1.3091548404052239E-042
  -6.9919999999999996E-002    -4.1899446282394881E-042
  -6.9500000000000006E-002    -1.1093182075259114E-041
  -6.9080000000000003E-002    -3.4321768756554530E-041
  -6.8659999999999999E-002    -9.0322936134909323E-041
  -6.8239999999999995E-002    -1.7118040888239031E-040
  -6.7820000000000005E-002    -2.9208181760774691E-040
  -6.7400000000000002E-002    -4.3202954487988228E-040
  -6.6979999999999998E-002    -3.0526583904421768E-040
  -6.6560000000000008E-002     5.9748785643621705E-040
  -6.6140000000000004E-002     3.5242279415111292E-039
  -6.5720000000000001E-002     1.0133961933913240E-038
  -6.5299999999999997E-002     2.2385534621791867E-038
  -6.4879999999999993E-002     4.0348759291819623E-038
  -6.4460000000000003E-002     5.8148916639464040E-038
  -6.4040000000000000E-002     5.5917592197372009E-038
  -6.3619999999999996E-002    -9.4239365280125712E-039
  -6.3200000000000006E-002    -2.1078358282988302E-037
  -6.2780000000000002E-002    -6.4239988135667581E-037
  -6.2359999999999999E-002    -1.3752431124998154E-036
  -6.1940000000000002E-002    -2.3499326451889641E-036
  -6.1520000000000005E-002    -3.1879617043795857E-036
  -6.1100000000000002E-002    -2.9362291121291673E-036
  -6.0679999999999998E-002     1.6131120225998744E-037
  -6.0260000000000001E-002     8.6442729052323952E-036
  -5.9840000000000004E-002     2.5190034281663640E-035
  -5.9420000000000001E-002     5.0850460711987448E-035
  -5.8999999999999997E-002     8.1756861630373068E-035
  -5.8580000000000000E-002     1.0434563639497469E-034
  -5.8160000000000003E-002     9.0243463414928970E-035
  -5.7740000000000000E-002    -6.2458242378409972E-036
  -5.7319999999999996E-002    -2.4285158323162561E-034
  -5.6899999999999999E-002    -6.6910317381873111E-034
  -5.6480000000000002E-002    -1.2841284026647862E-033
  -5.6059999999999999E-002    -1.9699072347176782E-033
  -5.5640000000000002E-002    -2.4089435669729384E-033
  -5.5220000000000005E-002    -2.0153098560044487E-033
  -5.4800000000000001E-002     6.4863416635342781E-035
  -5.4379999999999998E-002     4.8008148052057367E-033
  -5.3960000000000001E-002     1.2878611237289072E-032
  -5.3540000000000004E-002     2.3990012346359713E-032
  -5.3120000000000001E-002     3.5835030441372773E-032
  -5.2699999999999997E-002     4.3043078441322777E-032
  -5.2280000000000000E-002     3.6480214320330710E-032
  -5.1860000000000003E-002     3.7106004081929547E-033
  -5.1440000000000000E-002    -6.8401256323057379E-032
  -5.1019999999999996E-002    -1.8798870042345851E-031
  -5.0599999999999999E-002    -3.4896532072065928E-031
  -5.0180000000000002E-002    -5.1911432139452997E-031
  -4.9759999999999999E-002    -6.2838645768145328E-031
  -4.9340000000000002E-002    -5.6297514442184968E-031
  -4.8920000000000005E-002    -1.7345194745045321E-031
  -4.8500000000000001E-002     6.9339353837329360E-031
  -4.8079999999999998E-002     2.1307513824031947E-030
  -4.7660000000000001E-002     4.0742285880286237E-030
  -4.7239999999999997E-002     6.1814590677632736E-030
  -4.6820000000000001E-002     7.7190097412581339E-030
  -4.6399999999999997E-002     7.5099561499429464E-030
  -4.5980000000000000E-002     4.0164405118698977E-030
  -4.5560000000000003E-002    -4.3597889502828560E-030
  -4.5140000000000000E-002    -1.8692897140611641E-029
  -4.4720000000000003E-002    -3.8656106032057099E-029
  -4.4299999999999999E-002    -6.1448422430726604E-029
  -4.3880000000000002E-002    -8.0775758190756784E-029
  -4.3459999999999999E-002    -8.6313521031019676E-029
  -4.3040000000000002E-002    -6.4237289390460337E-029
  -4.2619999999999998E-002     5.2933536001137949E-031
  -4.2200000000000001E-002     1.1982429770756450E-028
  -4.1779999999999998E-002     2.9539256579734075E-028
  -4.1360000000000001E-002     5.1029285267628664E-028
  -4.0939999999999997E-002     7.2026085004669649E-028
  -4.0520000000000000E-002     8.4800578313403465E-028
  -4.0099999999999997E-002     7.8455573101555405E-028
  -3.9680000000000000E-002     4.0238884857396877E-028
  -3.9260000000000003E-002    -4.1548860147961483E-028
  -3.8840000000000000E-002    -1.7287254232028927E-027
  -3.8420000000000003E-002    -3.4777322886029607E-027
  -3.7999999999999999E-002    -5.4163032032286834E-027
  -3.7580000000000002E-002    -7.0565447023516450E-027
  -3.7159999999999999E-002    -7.6522212294234615E-027
  -3.6740000000000002E-002    -6.2523522845706228E-027
  -3.6319999999999998E-002    -1.8559333753935359E-027
  -3.5900000000000001E-002     6.3114693643039799E-027
  -3.5479999999999998E-002     1.8402674244668174E-026
  -3.5060000000000001E-002     3.3476980038909183E-026
  -3.4639999999999997E-002     4.9042832566920512E-026
  -3.4220000000000000E-002     6.0761525442099631E-026
  -3.3799999999999997E-002     6.2504182097056137E-026
  -3.3380000000000000E-002     4.6973064139320260E-026
  -3.2960000000000003E-002     7.0655768981357719E-027
  -3.2539999999999999E-002    -6.1941501579935886E-026
  -3.2120000000000003E-002    -1.5949573272840170E-025
  -3.1699999999999999E-002    -2.7654741969902303E-025
  -3.1280000000000002E-002    -3.9269639766477102E-025
  -3.0859999999999999E-002    -4.7474729285652605E-025
  -3.0440000000000002E-002    -4.7792008715817088E-025
  -3.0019999999999998E-002    -3.5100396555317315E-025
  -2.9600000000000001E-002    -4.6405976228195554E-026
  -2.9179999999999998E-002     4.6469476003088795E-025
  -2.8760000000000001E-002     1.1731589083071203E-024
  -2.8339999999999997E-002     2.0113945748667685E-024
  -2.7920000000000000E-002     2.8362685260864623E-024
  -2.7499999999999997E-002     3.4218787370579717E-024
  -2.7080000000000000E-002     3.4697781434508491E-024
  -2.6659999999999996E-002     2.6439930242646503E-024
  -2.6239999999999999E-002     6.3590435133275896E-025
  -2.5820000000000003E-002    -2.7407267460424737E-024
  -2.5399999999999999E-002    -7.4320281751494019E-024
  -2.4980000000000002E-002    -1.3020365550046418E-023
  -2.4559999999999998E-002    -1.8623118668557388E-023
  -2.4140000000000002E-002    -2.2850858376502406E-023
  -2.3719999999999998E-002    -2.3868418553050484E-023
  -2.3300000000000001E-002    -1.9599197248446549E-023
  -2.2879999999999998E-002    -8.1001526872872332E-024
  -2.2460000000000001E-002     1.1892643835571960E-023
  -2.2039999999999997E-002     4.0288417152843727E-023
  -2.1620000000000000E-002     7.4931701970672549E-023
  -2.1199999999999997E-002     1.1100672071506730E-022
  -2.0780000000000000E-002     1.4076006054407511E-022
  -2.0359999999999996E-002     1.5377021940972940E-022
  -1.9939999999999999E-002     1.3798276514848941E-022
  -1.9519999999999996E-002     8.1659838589203772E-023
  -1.9099999999999999E-002    -2.3742543149217773E-023
  -1.8680000000000002E-002    -1.7996683229095090E-022
  -1.8259999999999998E-002    -3.7807420655079139E-022
  -1.7840000000000002E-002    -5.9504437944114911E-022
  -1.7420000000000005E-002    -7.9185357551974647E-022
  -1.7000000000000001E-002    -9.1419138995138522E-022
  -1.6579999999999998E-002    -8.9693782569261360E-022
  -1.6159999999999994E-002    -6.7321906996065838E-022
  -1.5740000000000004E-002    -1.8824220584349429E-022
  -1.5320000000000000E-002     5.8285175517471085E-022
  -1.4899999999999997E-002     1.6151028906077833E-021
  -1.4479999999999993E-002     2.8151721833232588E-021
  -1.4060000000000003E-002     4.0086959095702923E-021
  -1.3639999999999999E-002     4.9390060826613833E-021
  -1.3219999999999996E-002     5.2826874548385559E-021
  -1.2799999999999992E-002     4.6863857884518340E-021
  -1.2380000000000002E-002     2.8267056574454963E-021
  -1.1959999999999998E-002    -5.0881994123930872E-022
  -1.1539999999999995E-002    -5.3271161481835296E-021
  -1.1120000000000005E-002    -1.1334721502186157E-020
  -1.0700000000000001E-002    -1.7861860303295302E-020
  -1.0279999999999997E-002    -2.3829270147549118E-020
  -9.8599999999999938E-003    -2.7782851025525672E-020
  -9.4400000000000039E-003    -2.8018477689206391E-020
  -9.0200000000000002E-003    -2.2810518283330587E-020
  -8.5999999999999965E-003    -1.0743174309039117E-020
  -8.1799999999999928E-003     8.8775456932019412E-021
  -7.7600000000000030E-003     3.5577654734493742E-020
  -7.3399999999999993E-003     6.7306966871920688E-020
  -6.9199999999999956E-003     1.0016383365857830E-019
  -6.4999999999999919E-003     1.2835939831895983E-019
  -6.0800000000000021E-003     1.4452623236953674E-019
  -5.6599999999999984E-003     1.4045216983691662E-019
  -5.2399999999999947E-003     1.0827256226433314E-019
  -4.8200000000000048E-003     4.2081483252128135E-020
  -4.4000000000000011E-003    -6.0171212466895638E-020
  -3.9799999999999974E-003    -1.9473436059162877E-019
  -3.5599999999999937E-003    -3.5039730929273884E-019
  -3.1400000000000039E-003    -5.0753709403360892E-019
  -2.7200000000000002E-003    -6.3831151044369291E-019
  -2.2999999999999965E-003    -7.0841201276011253E-019
  -1.8799999999999928E-003    -6.8064884380353089E-019
  -1.4600000000000030E-003    -5.2043915016155048E-019
  -1.0399999999999993E-003    -2.0293940821600274E-019
  -6.1999999999999555E-004     2.7880884655608015E-019
  -1.9999999999999185E-004     9.0576736428664584E-019
   2.1999999999999797E-004     1.6262475510915609E-018
   6.4000000000000168E-004     2.3523875398831247E-018
   1.0600000000000054E-003     2.9615607625200461E-018
   1.4799999999999952E-003     3.3042103370949537E-018
   1.8999999999999989E-003     3.2191793483218987E-018
   2.3200000000000026E-003     2.5566388524490714E-018
   2.7400000000000063E-003     1.2074756130895274E-018
   3.1599999999999961E-003    -8.6342083165757906E-019
   3.5799999999999998E-003    -3.5841553085252713E-018
   4.0000000000000036E-003    -6.7486274787745712E-018
   4.4200000000000073E-003    -1.0001748210352354E-017
   4.8399999999999971E-003    -1.2843667994619347E-017
   5.2600000000000008E-003    -1.4659276280891369E-017
   5.6800000000000045E-003    -1.4776645253398279E-017
   6.1000000000000082E-003    -1.2555222999669626E-017
   6.5199999999999980E-003    -7.4998037049656720E-018
   6.9400000000000017E-003     6.0919436118197270E-019
   7.3600000000000054E-003     1.1584174850637306E-017
   7.7799999999999953E-003     2.4718071114268013E-017
   8.1999999999999990E-003     3.8715497595059669E-017
   8.6200000000000027E-003     5.1692594968336211E-017
   9.0400000000000064E-003     6.1269035832592675E-017
   9.4599999999999962E-003     6.4767582337245503E-017
   9.8799999999999999E-003     5.9527054774119457E-017
   1.0300000000000004E-002     4.3316901904714884E-017
   1.0720000000000007E-002     1.4823069636397642E-017
   1.1139999999999997E-002    -2.5845311538411014E-017
   1.1560000000000001E-002    -7.6699848199591726E-017
   1.1980000000000005E-002    -1.3355127089164183E-016
   1.2400000000000008E-002    -1.8991581141610053E-016
   1.2819999999999998E-002    -2.3723333957007771E-016
   1.3240000000000002E-002    -2.6546748458674157E-016
   1.3660000000000005E-002    -2.6411315040519179E-016
   1.4079999999999995E-002    -2.2359490070178408E-016
   1.4499999999999999E-002    -1.3696590817409168E-016
   1.4920000000000003E-002    -1.7570204192527470E-018
   1.5340000000000006E-002     1.7825391269589336E-016
   1.5759999999999996E-002     3.9162999913780290E-016
   1.6180000000000000E-002     6.1853444343981161E-016
   1.6600000000000004E-002     8.3097018891028997E-016
   1.7020000000000007E-002     9.9425357320406948E-016
   1.7439999999999997E-002     1.0698864398232817E-015
   1.7860000000000001E-002     1.0198178998077665E-015
   1.8280000000000005E-002     8.1191485242147297E-016
   1.8700000000000008E-002     4.2621106153006010E-016
   1.9119999999999998E-002    -1.3870319563639271E-016
   1.9540000000000002E-002    -8.6000892332739365E-016
   1.9960000000000006E-002    -1.6866818721515561E-015
   2.0380000000000009E-002    -2.5382356651745075E-015
   2.0799999999999999E-002    -3.3071262063155743E-015
   2.1220000000000003E-002    -3.8654867051649589E-015
   2.1640000000000006E-002    -4.0764945857692649E-015
   2.2059999999999996E-002    -3.8100803668362525E-015
   2.2480000000000000E-002    -2.9620930794992195E-015
   2.2900000000000004E-002    -1.4752521026469305E-015
   2.3320000000000007E-002     6.4035609837828374E-016
   2.3739999999999997E-002     3.2900645599311313E-015
   2.4160000000000001E-002     6.2838111362432894E-015
   2.4580000000000005E-002     9.3347616657461519E-015
   2.5000000000000008E-002     1.2069994655898299E-014
   2.5419999999999998E-002     1.4054942070480206E-014
   2.5840000000000002E-002     1.4831987113050839E-014
   2.6260000000000006E-002     1.3971839247653926E-014
   2.6680000000000009E-002     1.1134510379811599E-014
   2.7099999999999999E-002     6.1345518040358273E-015
   2.7520000000000003E-002    -9.9637503983866999E-016
   2.7940000000000006E-002    -9.9579868342590668E-015
   2.8359999999999996E-002    -2.0149849242240949E-014
   2.8780000000000000E-002    -3.0668423336816423E-014
   2.9200000000000004E-002    -4.0339775252883882E-014
   2.9620000000000007E-002    -4.7792373754275602E-014
   3.0039999999999997E-002    -5.1570645932451064E-014
   3.0460000000000001E-002    -5.0285442770366509E-014
   3.0880000000000005E-002    -4.2791904023887798E-014
   3.1300000000000008E-002    -2.8380934604570070E-014
   3.1719999999999998E-002    -6.9644109313768231E-015
   3.2140000000000002E-002     2.0767305139998702E-014
   3.2560000000000006E-002     5.3240612771128372E-014
   3.2980000000000009E-002     8.7969030674004677E-014
   3.3399999999999999E-002     1.2161884714336471E-013
   3.3820000000000003E-002     1.5018315429007912E-013
   3.4240000000000007E-002     1.6926814544394486E-013
   3.4659999999999996E-002     1.7448453877259039E-013
   3.5080000000000000E-002     1.6192404807509300E-013
   3.5500000000000004E-002     1.2868703951259701E-013
   3.5920000000000007E-002     7.3417191155585319E-014
   3.6339999999999997E-002    -3.2127813933213181E-015
   3.6760000000000001E-002    -9.8124100758071307E-014
   3.7180000000000005E-002    -2.0562509110092193E-013
   3.7600000000000008E-002    -3.1742995492303157E-013
   3.8019999999999998E-002    -4.2294495930368733E-013
   3.8440000000000002E-002    -5.0984895216196628E-013
   3.8860000000000006E-002    -5.6496610341725511E-013
   3.9280000000000009E-002    -5.7540264374367625E-013
   3.9699999999999999E-002    -5.2988815226710417E-013
   4.0120000000000003E-002    -4.2023181701017639E-013
   4.0540000000000007E-002    -2.4277426263248423E-013
   4.0960000000000010E-002     3.0404284343127395E-016
   4.1380000000000000E-002     2.9996590135342161E-013
   4.1800000000000004E-002     6.3974716876732329E-013
   4.2220000000000008E-002     9.9576726993454621E-013
   4.2639999999999997E-002     1.3374330589363226E-012
   4.3060000000000001E-002     1.6289006337212790E-012
   4.3480000000000005E-002     1.8313118461341032E-012
   4.3900000000000008E-002     1.9057437645716670E-012
   4.4319999999999998E-002     1.8167618884413896E-012
   4.4740000000000002E-002     1.5363547539883201E-012
   4.5159999999999992E-002     1.0480060329559647E-012
   4.5579999999999996E-002     3.5055906464611680E-013
   4.5999999999999999E-002    -5.3848616671589822E-013
   4.6420000000000003E-002    -1.5806418656225493E-012
   4.6840000000000007E-002    -2.7154464340699923E-012
   4.7260000000000010E-002    -3.8611692865890409E-012
   4.7680000000000014E-002    -4.9174811449857523E-012
   4.8099999999999990E-002    -5.7702511512576347E-012
   4.8519999999999994E-002    -6.2985045965290949E-012
   4.8939999999999997E-002    -6.3833724435252162E-012
   4.9360000000000001E-002    -5.9187550964390191E-012
   4.9780000000000005E-002    -4.8230724334612100E-012
   5.0200000000000009E-002    -3.0514986931219093E-012
   5.0620000000000012E-002    -6.0761315767535910E-013
   5.1040000000000016E-002     2.4464840368508044E-012
   5.1459999999999992E-002     5.9828030597702552E-012
   5.1879999999999996E-002     9.8040224453386836E-012
   5.2299999999999999E-002     1.3645109669922036E-011
   5.2720000000000003E-002     1.7180930259896342E-011
   5.3140000000000007E-002     2.0040515407019154E-011
   5.3560000000000010E-002     2.1828264323316480E-011
   5.3980000000000014E-002     2.2151787815921644E-011
   5.4400000000000018E-002     2.0655561810001156E-011
   5.4819999999999994E-002     1.7058698172563629E-011
   5.5239999999999997E-002     1.1194856044339544E-011
   5.5660000000000001E-002     3.0510261197883053E-012
   5.6080000000000005E-002    -7.1978545800391131E-012
   5.6500000000000009E-002    -1.9162734700638487E-011
   5.6920000000000012E-002    -3.2226333922144305E-011
   5.7340000000000016E-002    -4.5545005694714131E-011
   5.7759999999999992E-002    -5.8069784595475915E-011
   5.8179999999999996E-002    -6.8588869837908336E-011
   5.8599999999999999E-002    -7.5792417629997192E-011
   5.9020000000000003E-002    -7.8359042727879122E-011
   5.9440000000000007E-002    -7.5061134963018939E-011
   5.9860000000000010E-002    -6.4884264591957762E-011
   6.0280000000000014E-002    -4.7153999024276809E-011
   6.0700000000000018E-002    -2.1660906831155137E-011
   6.1119999999999994E-002     1.1226287018524999E-011
   6.1539999999999997E-002     5.0470800979343560E-011
   6.1960000000000001E-002     9.4312540381570559E-011
   6.2380000000000005E-002     1.4025921437453607E-010
   6.2800000000000009E-002     1.8513172100599454E-010
   6.3220000000000012E-002     2.2517231927575662E-010
   6.3640000000000016E-002     2.5621774671152592E-010
   6.4059999999999992E-002     2.7393690939975336E-010
   6.4479999999999996E-002     2.7412669204666513E-010
   6.4899999999999999E-002     2.5305691777392357E-010
   6.5320000000000003E-002     2.0784403733224573E-010
   6.5740000000000007E-002     1.3683707960181664E-010
   6.6160000000000010E-002     3.9985484446873663E-011
   6.6580000000000014E-002    -8.0836714900641752E-011
   6.7000000000000018E-002    -2.2158427078576417E-010
   6.7419999999999994E-002    -3.7590154276851778E-010
   6.7839999999999998E-002    -5.3512277334349365E-010
   6.8260000000000001E-002    -6.8843549339616673E-010
   6.8680000000000005E-002    -8.2322972186084965E-010
   6.9100000000000009E-002    -9.2564228919082461E-010
   6.9520000000000012E-002    -9.8129938608769759E-010
   6.9940000000000016E-002    -9.7624367580104115E-010
   7.0359999999999992E-002    -8.9801556306050865E-010
   7.0779999999999996E-002    -7.3684967094450643E-010
   7.1199999999999999E-002    -4.8692533585511015E-010
   7.1620000000000003E-002    -1.4759202325870967E-010
   7.2040000000000007E-002     2.7551858172425042E-010
   7.2460000000000011E-002     7.6959861481426315E-010
   7.2880000000000014E-002     1.3140826140816261E-009
   7.3300000000000018E-002     1.8805084315834392E-009
   7.3719999999999994E-002     2.4328968816624956E-009
   7.4139999999999998E-002     2.9287497285713897E-009
   7.4560000000000001E-002     3.3207027232825488E-009
   7.4980000000000005E-002     3.5588735873952999E-009
   7.5400000000000009E-002     3.5938619638521771E-009
   7.5820000000000012E-002     3.3803405522020393E-009
   7.6240000000000016E-002     2.8810663195194416E-009
   7.6659999999999992E-002     2.0711827282053256E-009
   7.7079999999999996E-002     9.4245938612502159E-010
   7.7499999999999999E-002    -4.9270547409892223E-010
   7.7920000000000003E-002    -2.1979846479430865E-009
   7.8340000000000007E-002    -4.1107770260858979E-009
   7.8760000000000011E-002    -6.1412550881462004E-009
   7.9180000000000014E-002    -8.1730869063991612E-009
   7.9600000000000018E-002    -1.0066128992608817E-008
   8.0019999999999994E-002    -1.1661276887125056E-008
   8.0439999999999998E-002    -1.2787563839395848E-008
   8.0860000000000001E-002    -1.3271453272496897E-008
   8.1280000000000005E-002    -1.2948075449203388E-008
   8.1700000000000009E-002    -1.1674085768396261E-008
   8.2120000000000012E-002    -9.3415305024495112E-009
   8.2540000000000016E-002    -5.8919982578183848E-009
   8.2959999999999992E-002    -1.3302374888109121E-009
   8.3379999999999996E-002     4.2638804212516589E-009
   8.3799999999999999E-002     1.0726055378562862E-008
   8.4220000000000003E-002     1.7801988073401684E-008
   8.4640000000000007E-002     2.5146720688764901E-008
   8.5060000000000011E-002     3.2329651470251222E-008
   8.5480000000000014E-002     3.8846214692904183E-008
   8.5900000000000018E-002     4.4136342518328963E-008
   8.6319999999999994E-002     4.7610110730467465E-008
   8.6739999999999998E-002     4.8680084670631729E-008
   8.7160000000000001E-002     4.6799374201551074E-008
   8.7580000000000005E-002     4.1504511659802402E-008
   8.8000000000000009E-002     3.2460627483711392E-008
   8.8420000000000012E-002     1.9507117165709759E-008
   8.8840000000000016E-002     2.7007207714417043E-009
   8.9259999999999992E-002    -1.7647260723747073E-008
   8.9679999999999996E-002    -4.0942768840605824E-008
   9.0100000000000000E-002    -6.6293118089389665E-008
   9.0520000000000003E-002    -9.2506998240877789E-008
   9.0940000000000007E-002    -1.1811278600074508E-007
   9.1360000000000011E-002    -1.4139755780500708E-007
   9.1780000000000014E-002    -1.6046769494555210E-007
   9.2200000000000018E-002    -1.7333170397970937E-007
   9.2619999999999994E-002    -1.7800358432890211E-007
   9.3039999999999998E-002    -1.7262431102135162E-007
   9.3460000000000001E-002    -1.5559740065833027E-007
   9.3880000000000005E-002    -1.2573287911166188E-007
   9.4300000000000009E-002    -8.2391811359081132E-008
   9.4720000000000013E-002    -2.5624287654575018E-008
   9.5140000000000016E-002     4.3709662170392751E-008
   9.5559999999999992E-002     1.2384516059519984E-007
   9.5979999999999996E-002     2.1205439550470813E-007
   9.6400000000000000E-002     3.0463390110453812E-007
   9.6820000000000003E-002     3.9694660415853125E-007
   9.7240000000000007E-002     4.8352464050207531E-007
   9.7660000000000011E-002     5.5823705576604523E-007
   9.8080000000000014E-002     6.1452553190986212E-007
   9.8500000000000018E-002     6.4570251699201051E-007
   9.8919999999999994E-002     6.4530894994777560E-007
   9.9339999999999998E-002     6.0752070206822642E-007
   9.9760000000000001E-002     5.2758571183210207E-007
  0.10018000000000001          4.0228073943041466E-007
  0.10060000000000001          2.3035375511828424E-007
  0.10102000000000001          1.2938672469633085E-008
  0.10144000000000002         -2.4609473173597000E-007
  0.10185999999999999         -5.3987970611557085E-007
  0.10228000000000000         -8.5841122335665822E-007
  0.10270000000000000         -1.1885512975419058E-006
  0.10312000000000000         -1.5142027671904867E-006
  0.10354000000000001         -1.8166706615882926E-006
  0.10396000000000001         -2.0752229417883998E-006
  0.10438000000000001         -2.2678517373761949E-006
  0.10480000000000002         -2.3722302782221275E-006
  0.10521999999999999         -2.3668375155148488E-006
  0.10564000000000000         -2.2322362845742963E-006
  0.10606000000000000         -1.9524458205481547E-006
  0.10648000000000001         -1.5163621021552408E-006
  0.10690000000000001         -9.1915925581144669E-007
  0.10732000000000001         -1.6359842223448752E-007
  0.10774000000000002          7.3883689186617919E-007
  0.10815999999999999          1.7670713911840739E-006
  0.10858000000000000          2.8898949714376553E-006
  0.10900000000000000          4.0658777661460492E-006
  0.10942000000000000          5.2437401870086453E-006
  0.10984000000000001          6.3633064788331455E-006
  0.11026000000000001          7.3570603955992892E-006
  0.11068000000000001          8.1522683032038653E-006
  0.11110000000000002          8.6737745474710824E-006
  0.11151999999999999          8.8473026896521534E-006
  0.11194000000000000          8.6032734515974647E-006
  0.11236000000000000          7.8809974321061532E-006
  0.11278000000000001          6.6331142330646840E-006
  0.11320000000000001          4.8300787051028483E-006
  0.11362000000000001          2.4645257100054728E-006
  0.11404000000000002         -4.4475059897084471E-007
  0.11446000000000002         -3.8494189152339184E-006
  0.11488000000000000         -7.6691410501776453E-006
  0.11530000000000000         -1.1790192938062313E-005
  0.11572000000000000         -1.6065422792590637E-005
  0.11614000000000001         -2.0315825998082491E-005
  0.11656000000000001         -2.4333851221123247E-005
  0.11698000000000001         -2.7888485870870512E-005
  0.11740000000000002         -3.0732309794481656E-005
  0.11781999999999999         -3.2610300912387667E-005
  0.11824000000000000         -3.3270451906335071E-005
  0.11866000000000000         -3.2475787450950112E-005
  0.11908000000000001         -3.0017575868650523E-005
  0.11950000000000001         -2.5729310997629576E-005
  0.11992000000000001         -1.9500839542337129E-005
  0.12034000000000002         -1.1292118939002595E-005
  0.12076000000000002         -1.1460323682941468E-006
  0.12118000000000000          1.0800887125353225E-005
  0.12160000000000000          2.4309765662858996E-005
  0.12202000000000000          3.9034403307436410E-005
  0.12244000000000001          5.4519981212327729E-005
  0.12286000000000001          7.0206301410256371E-005
  0.12328000000000001          8.5436362934203917E-005
  0.12370000000000002          9.9469730482776433E-005
  0.12411999999999999          1.1150221464300071E-004
  0.12454000000000000          1.2069053550629242E-004
  0.12496000000000000          1.2618229989255167E-004
  0.12537999999999999          1.2715093118683749E-004
  0.12580000000000002          1.2283417024990927E-004
  0.12622000000000000          1.1257525907171354E-004
  0.12664000000000003          9.5866222995519653E-005
  0.12706000000000001          7.2390327711348431E-005
  0.12747999999999998          4.2062588772130291E-005
  0.12790000000000001          5.0677670429798431E-006
  0.12831999999999999         -3.8109334703331562E-005
  0.12874000000000002         -8.6659703050421101E-005
  0.12916000000000000         -1.3943701121576005E-004
  0.12958000000000003         -1.9495492497226345E-004
  0.13000000000000000         -2.5139851354290331E-004
  0.13041999999999998         -3.0664955434808733E-004
  0.13084000000000001         -3.5832682018002178E-004
  0.13125999999999999         -4.0384360659690739E-004
  0.13168000000000002         -4.4047702698681951E-004
  0.13210000000000000         -4.6545774371997391E-004
  0.13252000000000003         -4.7606510891445180E-004
  0.13294000000000000         -4.6974072903578374E-004
  0.13336000000000003         -4.4420602115542539E-004
  0.13378000000000001         -3.9758390214313035E-004
  0.13419999999999999         -3.2852557132524853E-004
  0.13462000000000002         -2.3632814229223177E-004
  0.13503999999999999         -1.2104713285090627E-004
  0.13546000000000002          1.6404450159632444E-005
  0.13588000000000000          1.7417481520535364E-004
  0.13630000000000003          3.4941528462982633E-004
  0.13672000000000001          5.3825025241558062E-004
  0.13713999999999998          7.3577835281914876E-004
  0.13756000000000002          9.3609761297687292E-004
  0.13797999999999999          1.1323810513543041E-003
  0.13840000000000002          1.3169761401573069E-003
  0.13882000000000000          1.4815347624950851E-003
  0.13924000000000003          1.6171885872726943E-003
  0.13966000000000001          1.7147420193687119E-003
  0.14007999999999998          1.7648994560389313E-003
  0.14050000000000001          1.7584822850027909E-003
  0.14091999999999999          1.6866962030187261E-003
  0.14134000000000002          1.5413369708971801E-003
  0.14176000000000000          1.3150771059107290E-003
  0.14218000000000003          1.0016299785337219E-003
  0.14260000000000000          5.9596249275469622E-004
  0.14301999999999998          9.4384590729323405E-005
  0.14344000000000001         -5.0527998187924758E-004
  0.14385999999999999         -1.2037300553451456E-003
  0.14428000000000002         -2.0001424434788122E-003
  0.14470000000000000         -2.8923743344358970E-003
  0.14512000000000003         -3.8770484690589047E-003
  0.14554000000000000         -4.9498116688539645E-003
  0.14596000000000003         -6.1056800225193601E-003
  0.14638000000000001         -7.3394122346022083E-003
  0.14679999999999999         -8.6458790960316917E-003
  0.14722000000000002         -1.0020745400933513E-002
  0.14763999999999999         -1.1460775496522149E-002
  0.14806000000000002         -1.2964598415375516E-002
  0.14848000000000000         -1.4533192774317010E-002
  0.14890000000000003         -1.6170620082232703E-002
  0.14932000000000001         -1.7884403981948484E-002