  -4.0000000000000001E-002     0.0000000000000000
  -3.9899999999999998E-002     0.0000000000000000
  -3.9800000000000002E-002     0.0000000000000000
  -3.9699999999999999E-002     0.0000000000000000
  -3.9600000000000003E-002     0.0000000000000000
  -3.9500000000000000E-002     0.0000000000000000
  -3.9399999999999998E-002     0.0000000000000000
  -3.9300000000000002E-002     0.0000000000000000
  -3.9199999999999999E-002     0.0000000000000000
  -3.9100000000000003E-002     0.0000000000000000
  -3.9000000000000000E-002    -2.8336393890623747E-037
  -3.8900000000000004E-002    -6.4279961375212317E-036
  -3.8800000000000001E-002    -7.5683905312330468E-035
  -3.8699999999999998E-002    -6.1612062438636864E-034
  -3.8600000000000002E-002    -3.8974591513527914E-033
  -3.8500000000000000E-002    -2.0414181501252977E-032
  -3.8400000000000004E-002    -9.2129211053959422E-032
  -3.8300000000000001E-002    -3.6810316424389631E-031
  -3.8199999999999998E-002    -1.3279176940278754E-030
  -3.8100000000000002E-002    -4.3895712537671582E-030
  -3.7999999999999999E-002    -1.3449679104481345E-029
  -3.7900000000000003E-002    -3.8549127886628793E-029
  -3.7800000000000000E-002    -1.0412572744397402E-028
  -3.7699999999999997E-002    -2.6669001941286286E-028
  -3.7600000000000001E-002    -6.5101333611997037E-028
  -3.7499999999999999E-002    -1.5212249444129157E-027
  -3.7400000000000003E-002    -3.4152997186304950E-027
  -3.7300000000000000E-002    -7.3906783540162643E-027
  -3.7200000000000004E-002    -1.5458378091010996E-026
  -3.7100000000000001E-002    -3.1327006993567672E-026
  -3.6999999999999998E-002    -6.1641239844348006E-026
  -3.6900000000000002E-002    -1.1798690573575394E-025
  -3.6799999999999999E-002    -2.2005161552384999E-025
  -3.6700000000000003E-002    -4.0047951198745049E-025
  -3.6600000000000001E-002    -7.1214186490935932E-025
  -3.6499999999999998E-002    -1.2387558722547676E-024
  -3.6400000000000002E-002    -2.1100086644682959E-024
  -3.6299999999999999E-002    -3.5225550314858443E-024
  -3.6200000000000003E-002    -5.7684088964920456E-024
  -3.6100000000000000E-002    -9.2722663468023414E-024
  -3.6000000000000004E-002    -1.4639095344299863E-023
  -3.5900000000000001E-002    -2.2712752232213105E-023
  -3.5799999999999998E-002    -3.4645256344368814E-023
  -3.5700000000000003E-002    -5.1974504637269836E-023
  -3.5600000000000000E-002    -7.6705287705061314E-023
  -3.5500000000000004E-002    -1.1138437040504601E-022
  -3.5400000000000001E-002    -1.5915451778563924E-022
  -3.5299999999999998E-002    -2.2376487649588165E-022
  -3.5200000000000002E-002    -3.0950537311256096E-022
  -3.5099999999999999E-002    -4.2102112356820610E-022
  -3.5000000000000003E-002    -5.6294886293708891E-022
  -3.4900000000000000E-002    -7.3930236599207184E-022
  -3.4799999999999998E-002    -9.5251725655524287E-022
  -3.4700000000000002E-002    -1.2020502429657327E-021
  -3.4599999999999999E-002    -1.4824142864458625E-021
  -3.4500000000000003E-002    -1.7805246458240401E-021
  -3.4400000000000000E-002    -2.0722290002679417E-021
  -3.4299999999999997E-002    -2.3179099220802521E-021
  -3.4200000000000001E-002    -2.4570808387099899E-021
  -3.4099999999999998E-002    -2.4019519569917799E-021
  -3.4000000000000002E-002    -2.0300276428983570E-021
  -3.3900000000000000E-002    -1.1759248863461425E-021
  -3.3799999999999997E-002     3.7722970029273452E-022
  -3.3700000000000001E-002     2.9062546535588807E-021
  -3.3599999999999998E-002     6.7553768636706553E-021
  -3.3500000000000002E-002     1.2341535547084740E-020
  -3.3399999999999999E-002     2.0155989149849186E-020
  -3.3300000000000003E-002     3.0760294353175549E-020
  -3.3200000000000000E-002     4.4774268737601036E-020
  -3.3099999999999997E-002     6.2853118512037205E-020
  -3.3000000000000002E-002     8.5650584547865175E-020
  -3.2899999999999999E-002     1.1376461826155848E-019
  -3.2800000000000003E-002     1.4766189815261336E-019
  -3.2700000000000000E-002     1.8757765370772456E-019
  -3.2600000000000004E-002     2.3338761396455308E-019
  -3.2500000000000001E-002     2.8444955072563390E-019
  -3.2399999999999998E-002     3.3941332428552150E-019
  -3.2300000000000002E-002     3.9599987111087329E-019
  -3.2199999999999999E-002     4.5075222247607116E-019
  -3.2100000000000004E-002     4.9876499055352253E-019
  -3.2000000000000001E-002     5.3340245492114458E-019
  -3.1899999999999998E-002     5.4602016458745189E-019
  -3.1800000000000002E-002     5.2571086429653197E-019
  -3.1699999999999999E-002     4.5910142168766343E-019
  -3.1600000000000003E-002     3.3023386838347327E-019
  -3.1500000000000000E-002     1.2057100930846572E-019
  -3.1399999999999997E-002    -1.9082737491580691E-019
  -3.1300000000000001E-002    -6.2690467661745431E-019
  -3.1199999999999999E-002    -1.2119276478577003E-018
  -3.1100000000000003E-002    -1.9704676758077355E-018
  -3.1000000000000000E-002    -2.9259828788565277E-018
  -3.0900000000000000E-002    -4.0989491824896381E-018
  -3.0800000000000001E-002    -5.5044928249785177E-018
  -3.0699999999999998E-002    -7.1494949150438418E-018
  -3.0600000000000002E-002    -9.0291619410358657E-018
  -3.0499999999999999E-002    -1.1123077844665862E-017
  -3.0400000000000000E-002    -1.3390795975521825E-017
  -3.0300000000000001E-002    -1.5767079907414148E-017
  -3.0200000000000001E-002    -1.8156935391616628E-017
  -3.0100000000000002E-002    -2.0430667952706464E-017
  -2.9999999999999999E-002    -2.2419238269424769E-017
  -2.9899999999999999E-002    -2.3910274336943455E-017
  -2.9800000000000000E-002    -2.4645174680360067E-017
  -2.9700000000000001E-002    -2.4317789828801379E-017
  -2.9600000000000001E-002    -2.2575256113480846E-017
  -2.9499999999999998E-002    -1.9021608792614234E-017
  -2.9400000000000003E-002    -1.3224807296362034E-017
  -2.9300000000000000E-002    -4.7278359906499226E-018
  -2.9200000000000000E-002     6.9354867469641225E-018
  -2.9100000000000001E-002     2.2219376544180932E-017
  -2.8999999999999998E-002     4.1539223652289935E-017
  -2.8900000000000002E-002     6.5238722442987528E-017
  -2.8799999999999999E-002     9.3550838409631919E-017
  -2.8700000000000000E-002     1.2655290301332947E-016
  -2.8600000000000000E-002     1.6411643194389353E-016
  -2.8500000000000001E-002     2.0585259075642009E-016
  -2.8400000000000002E-002     2.5105490103333986E-016
  -2.8299999999999999E-002     2.9864115907052725E-016
  -2.8200000000000003E-002     3.4709721406542640E-016
  -2.8100000000000000E-002     3.9442570938885246E-016
  -2.8000000000000001E-002     4.3810375740740851E-016
  -2.7900000000000001E-002     4.7505382272592365E-016
  -2.7799999999999998E-002     5.0163244606134271E-016
  -2.7700000000000002E-002     5.1364257916002064E-016
  -2.7600000000000000E-002     5.0637450707698671E-016
  -2.7500000000000000E-002     4.7468102235001335E-016
  -2.7400000000000001E-002     4.1309195973595269E-016
  -2.7299999999999998E-002     3.1597325311636315E-016
  -2.7200000000000002E-002     1.7773400858333351E-016
  -2.7099999999999999E-002    -6.9158585782088517E-018
  -2.7000000000000000E-002    -2.4265606643550104E-016
  -2.6900000000000000E-002    -5.3319607004959015E-016
  -2.6800000000000001E-002    -8.8086804890928779E-016
  -2.6700000000000002E-002    -1.2861794022197789E-015
  -2.6599999999999999E-002    -1.7473355848031868E-015
  -2.6500000000000003E-002    -2.2597447781128868E-015
  -2.6400000000000000E-002    -2.8155243876626119E-015
  -2.6300000000000000E-002    -3.4030287692187995E-015
  -2.6200000000000001E-002    -4.0064230653490043E-015
  -2.6099999999999998E-002    -4.6053338043311551E-015
  -2.6000000000000002E-002    -5.1746064369724044E-015
  -2.5899999999999999E-002    -5.6842047514466410E-015
  -2.5800000000000000E-002    -6.0992894356003483E-015
  -2.5700000000000001E-002    -6.3805090327699859E-015
  -2.5599999999999998E-002    -6.4845411958352854E-015
  -2.5500000000000002E-002    -6.3649155797275078E-015
  -2.5399999999999999E-002    -5.9731454774469752E-015
  -2.5300000000000000E-002    -5.2601906459629789E-015
  -2.5200000000000000E-002    -4.1782606393584842E-015
  -2.5100000000000001E-002    -2.6829590727361040E-015
  -2.5000000000000001E-002    -7.3575907600645016E-016
  -2.4899999999999999E-002     1.6932271201325821E-015
  -2.4800000000000003E-002     4.6222253353653004E-015
  -2.4700000000000000E-002     8.0545929965363840E-015
  -2.4600000000000000E-002     1.1975522061903696E-014
  -2.4500000000000001E-002     1.6348745545281124E-014
  -2.4399999999999998E-002     2.1113395659078972E-014
  -2.4299999999999999E-002     2.6181154818985877E-014
  -2.4199999999999999E-002     3.1433863622925759E-014
  -2.4100000000000000E-002     3.6721781892417107E-014
  -2.4000000000000000E-002     4.1862662018528687E-014
  -2.3900000000000001E-002     4.6641879404953415E-014
  -2.3800000000000002E-002     5.0813777556328599E-014
  -2.3699999999999999E-002     5.4104419241248619E-014
  -2.3599999999999999E-002     5.6215923300954873E-014
  -2.3500000000000000E-002     5.6832498912052012E-014
  -2.3400000000000001E-002     5.5628292499731308E-014
  -2.3300000000000001E-002     5.2277098123477972E-014
  -2.3199999999999998E-002     4.6463887289549186E-014
  -2.3099999999999999E-002     3.7898117532641357E-014
  -2.3000000000000000E-002     2.6328626643234640E-014
  -2.2900000000000000E-002     1.1559849113368121E-014
  -2.2800000000000001E-002    -6.5309395431035078E-015
  -2.2700000000000001E-002    -2.7975853309825972E-014
  -2.2599999999999999E-002    -5.2698585106163501E-014
  -2.2499999999999999E-002    -8.0497200159908300E-014
  -2.2400000000000000E-002    -1.1102829267951864E-013
  -2.2300000000000000E-002    -1.4379323469773664E-013
  -2.2200000000000001E-002    -1.7812743738788300E-013
  -2.2100000000000002E-002    -2.1319335457171268E-013
  -2.1999999999999999E-002    -2.4797834142012420E-013
  -2.1899999999999999E-002    -2.8129801547989441E-013
  -2.1800000000000000E-002    -3.1180616357102953E-013
  -2.1700000000000001E-002    -3.3801176376087316E-013
  -2.1600000000000001E-002    -3.5830371872616618E-013
  -2.1499999999999998E-002    -3.7098381549909021E-013
  -2.1399999999999999E-002    -3.7430803357003939E-013
  -2.1299999999999999E-002    -3.6653617424206586E-013
  -2.1200000000000000E-002    -3.4598948597634738E-013
  -2.1100000000000001E-002    -3.1111549968210195E-013
  -2.1000000000000001E-002    -2.6055928790437444E-013
  -2.0899999999999998E-002    -1.9323948094885496E-013
  -2.0799999999999999E-002    -1.0842739331167958E-013
  -2.0700000000000000E-002    -5.8270598226163942E-015
  -2.0600000000000000E-002     1.1434620882534025E-013
  -2.0500000000000001E-002     2.5129163615418559E-013
  -2.0400000000000001E-002     4.0355647426201791E-013
  -2.0299999999999999E-002     5.6898019282214385E-013
  -2.0199999999999999E-002     7.4465260346823214E-013
  -2.0100000000000000E-002     9.2689018352937191E-013
  -2.0000000000000000E-002     1.1112329589488268E-012
  -1.9900000000000001E-002     1.2924657004365070E-012
  -1.9799999999999998E-002     1.4646666041465140E-012
  -1.9699999999999999E-002     1.6212845952920385E-012
  -1.9599999999999999E-002     1.7552479652030439E-012
  -1.9500000000000000E-002     1.8591051007682546E-012
  -1.9400000000000001E-002     1.9251971978412330E-012
  -1.9300000000000001E-002     1.9458616575679377E-012
  -1.9199999999999998E-002     1.9136645393325047E-012
  -1.9099999999999999E-002     1.8216584924540813E-012
  -1.9000000000000000E-002     1.6636622635068932E-012
  -1.8900000000000000E-002     1.4345537561674671E-012
  -1.8800000000000001E-002     1.1305725236207542E-012
  -1.8700000000000001E-002     7.4962112255397284E-013
  -1.8599999999999998E-002     2.9155708880165832E-013
  -1.8499999999999999E-002    -2.4153525316969460E-013
  -1.8400000000000000E-002    -8.4510382632879688E-013
  -1.8300000000000000E-002    -1.5119300126112400E-012
  -1.8200000000000001E-002    -2.2319836950890348E-012
  -1.8100000000000002E-002    -2.9923429185896300E-012
  -1.7999999999999999E-002    -3.7771894986771137E-012
  -1.7899999999999999E-002    -4.5678903368151502E-012
  -1.7800000000000000E-002    -5.3431703506134909E-012
  -1.7700000000000000E-002    -6.0793869938180478E-012
  -1.7600000000000001E-002    -6.7509071249860497E-012
  -1.7499999999999998E-002    -7.3305892606123635E-012
  -1.7399999999999999E-002    -7.7903673095791603E-012
  -1.7299999999999999E-002    -8.1019375236524027E-012
  -1.7200000000000000E-002    -8.2375295820669159E-012
  -1.7100000000000001E-002    -8.1707583407530926E-012
  -1.7000000000000001E-002    -7.8775362968852569E-012
  -1.6899999999999998E-002    -7.3370285541551894E-012
  -1.6799999999999999E-002    -6.5326260026421501E-012
  -1.6700000000000000E-002    -5.4529154629168186E-012
  -1.6600000000000000E-002    -4.0926094978244176E-012
  -1.6500000000000001E-002    -2.4534120394992254E-012
  -1.6400000000000001E-002    -5.4478622134312982E-013
  -1.6299999999999999E-002     1.6154090868789051E-012
  -1.6199999999999999E-002     4.0004479763544598E-012
  -1.6100000000000000E-002     6.5744566908609858E-012
  -1.6000000000000000E-002     9.2923620187423950E-012
  -1.5900000000000001E-002     1.2100083955635110E-011
  -1.5799999999999998E-002     1.4934995948290286E-011
  -1.5699999999999999E-002     1.7726672560391954E-011
  -1.5599999999999999E-002     2.0397929872961740E-011
  -1.5500000000000000E-002     2.2866155149903200E-011
  -1.5400000000000000E-002     2.5044926202366646E-011
  -1.5300000000000001E-002     2.6845898767891008E-011
  -1.5199999999999998E-002     2.8180945424449710E-011
  -1.5099999999999999E-002     2.8964493997696295E-011
  -1.4999999999999999E-002     2.9116039440557628E-011
  -1.4900000000000000E-002     2.8562778878193917E-011
  -1.4800000000000001E-002     2.7242283082151708E-011
  -1.4700000000000001E-002     2.5105176618134273E-011
  -1.4599999999999998E-002     2.2117717379810387E-011
  -1.4499999999999999E-002     1.8264223466957219E-011
  -1.4400000000000000E-002     1.3549256334954851E-011
  -1.4300000000000000E-002     7.9994786836290466E-012
  -1.4200000000000001E-002     1.6651188891256274E-012
  -1.4099999999999998E-002    -5.3790370595219184E-012
  -1.3999999999999999E-002    -1.3033198652256939E-011
  -1.3899999999999999E-002    -2.1172723296825069E-011
  -1.3800000000000000E-002    -2.9648911797908184E-011
  -1.3700000000000000E-002    -3.8290485365743976E-011
  -1.3600000000000001E-002    -4.6905774403471767E-011
  -1.3499999999999998E-002    -5.5285592076570467E-011
  -1.3399999999999999E-002    -6.3206807843219082E-011
  -1.3299999999999999E-002    -7.0436587118472005E-011
  -1.3200000000000000E-002    -7.6737199927734423E-011
  -1.3100000000000001E-002    -8.1871391610643940E-011
  -1.3000000000000001E-002    -8.5608159450245580E-011
  -1.2899999999999998E-002    -8.7728865838521131E-011
  -1.2799999999999999E-002    -8.8033545730947793E-011
  -1.2699999999999999E-002    -8.6347276551101970E-011
  -1.2600000000000000E-002    -8.2526457889642302E-011
  -1.2500000000000001E-002    -7.6464827525324353E-011
  -1.2399999999999998E-002    -6.8099061112381065E-011
  -1.2299999999999998E-002    -5.7413806348050045E-011
  -1.2199999999999999E-002    -4.4445953861771414E-011
  -1.2100000000000000E-002    -2.9288009517625113E-011
  -1.2000000000000000E-002    -1.2090423280597395E-011
  -1.1900000000000001E-002     6.9372450492433124E-012
  -1.1799999999999998E-002     2.7526434256963661E-011
  -1.1699999999999999E-002     4.9351068370784290E-011
  -1.1599999999999999E-002     7.2030451048199495E-011
  -1.1500000000000000E-002     9.5133650956924498E-011
  -1.1400000000000000E-002     1.1818528100615566E-010
  -1.1300000000000001E-002     1.4067269571427232E-010
  -1.1199999999999998E-002     1.6205457809004287E-010
  -1.1099999999999999E-002     1.8177073735081706E-010
  -1.0999999999999999E-002     1.9925300298595516E-010
  -1.0900000000000000E-002     2.1393707638761583E-010
  -1.0800000000000001E-002     2.2527511800429778E-010
  -1.0699999999999998E-002     2.3274882021695475E-010
  -1.0599999999999998E-002     2.3588278552644226E-010
  -1.0499999999999999E-002     2.3425786310760088E-010
  -1.0400000000000000E-002     2.2752427719652246E-010
  -1.0300000000000000E-002     2.1541407546621372E-010
  -1.0200000000000001E-002     1.9775281412393042E-010
  -1.0099999999999998E-002     1.7446999400760888E-010
  -9.9999999999999985E-003     1.4560812278130442E-010
  -9.8999999999999991E-003     1.1133004240715394E-010
  -9.7999999999999997E-003     7.1924265154788003E-011
  -9.7000000000000003E-003     2.7808134267504059E-011
  -9.6000000000000009E-003    -2.0471412759404117E-011
  -9.4999999999999980E-003    -7.2239672577190106E-011
  -9.3999999999999986E-003    -1.2669870708137410E-010
  -9.2999999999999992E-003    -1.8293455639195599E-010
  -9.1999999999999998E-003    -2.3992738351630294E-010
  -9.1000000000000004E-003    -2.9656441191683314E-010
  -9.0000000000000011E-003    -3.5165545475557280E-010
  -8.8999999999999982E-003    -4.0395134459636495E-010
  -8.7999999999999988E-003    -4.5216466681985423E-010
  -8.6999999999999994E-003    -4.9499276899567235E-010
  -8.5999999999999965E-003    -5.3114257436703838E-010
  -8.5000000000000006E-003    -5.5935739373680349E-010
  -8.3999999999999977E-003    -5.7844473655421780E-010
  -8.3000000000000018E-003    -5.8730498242454132E-010
  -8.1999999999999990E-003    -5.8496041344113792E-010
  -8.0999999999999961E-003    -5.7058407998411553E-010
  -8.0000000000000002E-003    -5.4352794487400047E-010
  -7.8999999999999973E-003    -5.0334969525778206E-010
  -7.8000000000000014E-003    -4.4983758384908867E-010
  -7.6999999999999985E-003    -3.8303268889983144E-010
  -7.6000000000000026E-003    -3.0324801003622781E-010
  -7.4999999999999997E-003    -2.1108373382539014E-010
  -7.3999999999999969E-003    -1.0743782252742307E-010
  -7.3000000000000009E-003     6.4882669549570782E-012
  -7.1999999999999981E-003     1.2918952019269625E-010
  -7.1000000000000021E-003     2.5886348620218769E-010
  -6.9999999999999993E-003     3.9342279434251282E-010
  -6.8999999999999964E-003     5.3051468773546162E-010
  -6.8000000000000005E-003     6.6754757277465160E-010
  -6.6999999999999976E-003     8.0172468663874952E-010
  -6.6000000000000017E-003     9.3008478696532393E-010
  -6.4999999999999988E-003     1.0495498914409040E-009
  -6.3999999999999960E-003     1.1569797342403376E-009
  -6.3000000000000000E-003     1.2492316070478182E-009
  -6.1999999999999972E-003     1.3232261952822455E-009
  -6.1000000000000013E-003     1.3760171890808692E-009
  -5.9999999999999984E-003     1.4048642249520071E-009
  -5.9000000000000025E-003     1.4073077148069046E-009
  -5.7999999999999996E-003     1.3812442301031069E-009
  -5.6999999999999967E-003     1.3250005537202014E-009
  -5.6000000000000008E-003     1.2374047342333938E-009
  -5.4999999999999979E-003     1.1178523662280782E-009
  -5.4000000000000020E-003     9.6636609825395681E-010
  -5.2999999999999992E-003     7.8364637001726578E-010
  -5.1999999999999963E-003     5.7111132489851002E-010
  -5.1000000000000004E-003     3.3092442675020095E-010
  -4.9999999999999975E-003     6.6007643795273907E-011
  -4.9000000000000016E-003    -2.1996134080826124E-010
  -4.7999999999999987E-003    -5.2256898808167307E-010
  -4.6999999999999958E-003    -8.3670426143100940E-010
  -4.5999999999999999E-003    -1.1566156921105630E-009
  -4.4999999999999971E-003    -1.4759878874670562E-009
  -4.4000000000000011E-003    -1.7880366076639120E-009
  -4.2999999999999983E-003    -2.0856232296750932E-009
  -4.2000000000000023E-003    -2.3613853095127979E-009
  -4.0999999999999995E-003    -2.6078836867782229E-009
  -3.9999999999999966E-003    -2.8177620237102019E-009
  -3.9000000000000007E-003    -2.9839180015756028E-009
  -3.7999999999999978E-003    -3.0996811783978728E-009
  -3.7000000000000019E-003    -3.1589943993992620E-009
  -3.5999999999999990E-003    -3.1565954294876519E-009
  -3.4999999999999962E-003    -3.0881930346282616E-009
  -3.4000000000000002E-003    -2.9506341814311554E-009
  -3.2999999999999974E-003    -2.7420572479286420E-009
  -3.2000000000000015E-003    -2.4620259164720437E-009
  -3.0999999999999986E-003    -2.1116390858111345E-009
  -2.9999999999999957E-003    -1.6936135827094745E-009
  -2.8999999999999998E-003    -1.2123353432258455E-009
  -2.7999999999999969E-003    -6.7387367908011697E-010
  -2.7000000000000010E-003    -8.5958261342167219E-011
  -2.5999999999999981E-003     5.4208409983047545E-010
  -2.5000000000000022E-003     1.1994347737243061E-009
  -2.3999999999999994E-003     1.8739301221870619E-009
  -2.2999999999999965E-003     2.5522495228358366E-009
  -2.2000000000000006E-003     3.2201423749711466E-009
  -2.0999999999999977E-003     3.8626906118111037E-009
  -2.0000000000000018E-003     4.4646042418605703E-009
  -1.8999999999999989E-003     5.0105426474544856E-009
  -1.7999999999999960E-003     5.4854574216278706E-009
  -1.7000000000000001E-003     5.8749480835729173E-009
  -1.5999999999999973E-003     6.1656231231665970E-009
  -1.5000000000000013E-003     6.3454601573198488E-009
  -1.3999999999999985E-003     6.4041536518288922E-009
  -1.2999999999999956E-003     6.3334413269444667E-009
  -1.1999999999999997E-003     6.1274016971424317E-009
  -1.0999999999999968E-003     5.7827151955791578E-009
  -1.0000000000000009E-003     5.2988773369122555E-009
  -8.9999999999999802E-004     4.6783581453269107E-009
  -8.0000000000000210E-004     3.9267016305188918E-009
  -6.9999999999999923E-004     3.0525602046083122E-009
  -5.9999999999999637E-004     2.0676602652258680E-009
  -5.0000000000000044E-004     9.8669517001326312E-010
  -3.9999999999999758E-004    -1.7285355091711807E-010
  -3.0000000000000165E-004    -1.3909665641520519E-009
  -1.9999999999999879E-004    -2.6454047841184547E-009
  -9.9999999999995925E-005    -3.9120906514256149E-009
   0.0000000000000000         -5.1655471011713416E-009
   1.0000000000000286E-004    -6.3793867965955542E-009
   1.9999999999999879E-004    -7.5268387078608612E-009
   3.0000000000000165E-004    -8.5813027794756636E-009
   4.0000000000000452E-004    -9.5169241376424907E-009
   5.0000000000000044E-004    -1.0309170406230805E-008
   6.0000000000000331E-004    -1.0935399252787192E-008
   6.9999999999999923E-004    -1.1375405506441894E-008
   8.0000000000000210E-004    -1.1611930972321716E-008
   8.9999999999999802E-004    -1.1631129837041954E-008
   1.0000000000000009E-003    -1.1422972789887353E-008
   1.1000000000000038E-003    -1.0981582754254759E-008
   1.1999999999999997E-003    -1.0305494235751667E-008
   1.3000000000000025E-003    -9.3978247406312221E-009
   1.3999999999999985E-003    -8.2663564882068385E-009
   1.5000000000000013E-003    -6.9235257527111571E-009
   1.6000000000000042E-003    -5.3863149496180540E-009
   1.7000000000000001E-003    -3.6760532395874179E-009
   1.8000000000000030E-003    -1.8181269823003277E-009
   1.8999999999999989E-003     1.5839747569135199E-010
   2.0000000000000018E-003     2.2212265360366246E-009
   2.1000000000000046E-003     4.3353627354747459E-009
   2.2000000000000006E-003     6.4636838104092931E-009
   2.3000000000000034E-003     8.5675750938207784E-009
   2.3999999999999994E-003     1.0607589473465850E-008
   2.5000000000000022E-003     1.2544136396286376E-008
   2.5999999999999981E-003     1.4338176868022856E-008
   2.7000000000000010E-003     1.5951913567846532E-008
   2.8000000000000039E-003     1.7349469416672036E-008
   2.8999999999999998E-003     1.8497532394690097E-008
   3.0000000000000027E-003     1.9365970160833967E-008
   3.0999999999999986E-003     1.9928393157897517E-008
   3.2000000000000015E-003     2.0162662650591301E-008
   3.3000000000000043E-003     2.0051341920179766E-008
   3.4000000000000002E-003     1.9582071075774365E-008
   3.5000000000000031E-003     1.8747883245850971E-008
   3.5999999999999990E-003     1.7547442610066355E-008
   3.7000000000000019E-003     1.5985209600444250E-008
   3.7999999999999978E-003     1.4071531495574163E-008
   3.9000000000000007E-003     1.1822663736893446E-008
   4.0000000000000036E-003     9.2607201906957926E-009
   4.0999999999999995E-003     6.4135510235985294E-009
   4.2000000000000023E-003     3.3145570732528995E-009
   4.2999999999999983E-003     2.4339104950227286E-012
   4.4000000000000011E-003    -3.4791458602967396E-009
   4.5000000000000040E-003    -7.0819154984747001E-009
   4.5999999999999999E-003    -1.0753461232582140E-008
   4.7000000000000028E-003    -1.4437727458016525E-008
   4.7999999999999987E-003    -1.8075590801913677E-008
   4.9000000000000016E-003    -2.1605497835253118E-008
   5.0000000000000044E-003    -2.4964171174701733E-008
   5.1000000000000004E-003    -2.8087379533303647E-008
   5.2000000000000032E-003    -3.0910772608194748E-008
   5.2999999999999992E-003    -3.3370785246233936E-008
   5.4000000000000020E-003    -3.5405609111194281E-008
   5.4999999999999979E-003    -3.6956219418016190E-008
   5.6000000000000008E-003    -3.7967453181408928E-008
   5.7000000000000037E-003    -3.8389138978800474E-008
   5.7999999999999996E-003    -3.8177258687710491E-008
   5.9000000000000025E-003    -3.7295126986691685E-008
   5.9999999999999984E-003    -3.5714567303557487E-008
   6.1000000000000013E-003    -3.3417066447327670E-008
   6.2000000000000041E-003    -3.0394883054896127E-008
   6.3000000000000000E-003    -2.6652077877997726E-008
   6.4000000000000029E-003    -2.2205437488764801E-008
   6.4999999999999988E-003    -1.7085257653093322E-008
   6.6000000000000017E-003    -1.1335953509217234E-008
   6.7000000000000046E-003    -5.0164463694102324E-009
   6.8000000000000005E-003     1.7996767409655945E-009
   6.9000000000000034E-003     9.0242862071931995E-009
   6.9999999999999993E-003     1.6555144810581623E-008
   7.1000000000000021E-003     2.4276664234434975E-008
   7.1999999999999981E-003     3.2061013399697913E-008
   7.3000000000000009E-003     3.9769595616689912E-008
   7.4000000000000038E-003     4.7254868462687227E-008
   7.4999999999999997E-003     5.4362555346187946E-008
   7.6000000000000026E-003     6.0934176815408136E-008
   7.6999999999999985E-003     6.6809910492793279E-008
   7.8000000000000014E-003     7.1831699699487217E-008
   7.9000000000000042E-003     7.5846656955036451E-008
   8.0000000000000002E-003     7.8710584716645826E-008
   8.1000000000000030E-003     8.0291620463412983E-008
   8.1999999999999990E-003     8.0473917307699594E-008
   8.3000000000000018E-003     7.9161239341374312E-008
   8.4000000000000047E-003     7.6280421978935919E-008
   8.5000000000000006E-003     7.1784590716106322E-008
   8.6000000000000035E-003     6.5656038827910379E-008
   8.6999999999999994E-003     5.7908653872118521E-008
   8.8000000000000023E-003     4.8589814838351231E-008
   8.8999999999999982E-003     3.7781688888571807E-008
   9.0000000000000011E-003     2.5601842423839116E-008
   9.1000000000000039E-003     1.2203077659478367E-008
   9.1999999999999998E-003    -2.2275172817387556E-009
   9.3000000000000027E-003    -1.7470339841452187E-008
   9.3999999999999986E-003    -3.3275910027441569E-008
   9.5000000000000015E-003    -4.9368320986786784E-008
   9.6000000000000044E-003    -6.5449519581761706E-008
   9.7000000000000003E-003    -8.1204312607496831E-008
   9.8000000000000032E-003    -9.6306074226504279E-008
   9.8999999999999991E-003    -1.1042300940289351E-007
   1.0000000000000002E-002    -1.2322493603278417E-007
   1.0100000000000005E-002    -1.3439034773909952E-007
   1.0200000000000001E-002    -1.4361367561832594E-007
   1.0300000000000004E-002    -1.5061260683069122E-007
   1.0400000000000000E-002    -1.5513521134380426E-007
   1.0500000000000002E-002    -1.5696679156462778E-007
   1.0599999999999998E-002    -1.5593623459153605E-007
   1.0700000000000001E-002    -1.5192166813449148E-007
   1.0800000000000004E-002    -1.4485533483821200E-007
   1.0900000000000000E-002    -1.3472745763465355E-007
   1.1000000000000003E-002    -1.2158902507053426E-007
   1.1099999999999999E-002    -1.0555338292306260E-007
   1.1200000000000002E-002    -8.6796518417031621E-008
   1.1300000000000004E-002    -6.5555987305287999E-008
   1.1400000000000000E-002    -4.2128480259862044E-008
   1.1500000000000003E-002    -1.6866064100895528E-008
   1.1599999999999999E-002     9.8289643091220569E-009
   1.1700000000000002E-002     3.7510417882913316E-008
   1.1800000000000005E-002     6.5695701323420508E-008
   1.1900000000000001E-002     9.3874326978493627E-008
   1.2000000000000004E-002     1.2151726025422249E-007
   1.2100000000000000E-002     1.4808689741130365E-007
   1.2200000000000003E-002     1.7304753896496550E-007
   1.2299999999999998E-002     1.9587605493143201E-007
   1.2400000000000001E-002     2.1607257849609596E-007
   1.2500000000000004E-002     2.3317093678087986E-007
   1.2600000000000000E-002     2.4674866949681018E-007
   1.2700000000000003E-002     2.5643637968641997E-007
   1.2799999999999999E-002     2.6192611812803079E-007
   1.2900000000000002E-002     2.6297871613678581E-007
   1.3000000000000005E-002     2.5942992465388670E-007
   1.3100000000000001E-002     2.5119510382864974E-007
   1.3200000000000003E-002     2.3827251993679965E-007
   1.3299999999999999E-002     2.2074496541790722E-007
   1.3400000000000002E-002     1.9877978729709866E-007
   1.3500000000000005E-002     1.7262736662360112E-007
   1.3600000000000001E-002     1.4261800629356003E-007
   1.3700000000000004E-002     1.0915725567883783E-007
   1.3800000000000000E-002     7.2719856802905269E-008
   1.3900000000000003E-002     3.3842411539808381E-008
   1.3999999999999999E-002    -6.8851302437167305E-009
   1.4100000000000001E-002    -4.8828905363507147E-008
   1.4200000000000004E-002    -9.1321396666899091E-008
   1.4300000000000000E-002    -1.3367223061777622E-007
   1.4400000000000003E-002    -1.7517939454592124E-007
   1.4499999999999999E-002    -2.1514057380045415E-007