  -4.0000000000000001E-002     0.0000000000000000
  -3.9899999999999998E-002     0.0000000000000000
  -3.9800000000000002E-002     0.0000000000000000
  -3.9699999999999999E-002    -1.3395877740407514E-009
  -3.9600000000000003E-002    -9.2780920724067073E-009
  -3.9500000000000000E-002    -3.6534579805902467E-008
  -3.9399999999999998E-002    -1.0734260769140747E-007
  -3.9300000000000002E-002    -2.6144240905523475E-007
  -3.9199999999999999E-002    -5.5734318493705359E-007
  -3.9100000000000003E-002    -1.0741530331870308E-006
  -3.9000000000000000E-002    -1.9112997051706770E-006
  -3.8900000000000004E-002    -3.1855504403210944E-006
  -3.8800000000000001E-002    -5.0248931984242518E-006
  -3.8699999999999998E-002    -7.5590419328364078E-006
  -3.8600000000000002E-002    -1.0906600437010638E-005
  -3.8500000000000000E-002    -1.5159182112256531E-005
  -3.8400000000000004E-002    -2.0363111616461538E-005
  -3.8300000000000001E-002    -2.6499643354327418E-005
  -3.8199999999999998E-002    -3.3464901207480580E-005
  -3.8100000000000002E-002    -4.1051003790926188E-005
  -3.7999999999999999E-002    -4.8930007324088365E-005
  -3.7900000000000003E-002    -5.6642431445652619E-005
  -3.7800000000000000E-002    -6.3591985963284969E-005
  -3.7699999999999997E-002    -6.9048226578161120E-005
  -3.7600000000000001E-002    -7.2158582042902708E-005
  -3.7499999999999999E-002    -7.1970396675169468E-005
  -3.7400000000000003E-002    -6.7464192397892475E-005
  -3.7300000000000000E-002    -5.7597459090175107E-005
  -3.7200000000000004E-002    -4.1358653106726706E-005
  -3.7100000000000001E-002    -1.7830376236815937E-005
  -3.6999999999999998E-002     1.3741270777245518E-005
  -3.6900000000000002E-002     5.3872849093750119E-005
  -3.6799999999999999E-002     1.0276942339260131E-004
  -3.6700000000000003E-002     1.6025392687879503E-004
  -3.6600000000000001E-002     2.2570372675545514E-004
  -3.6499999999999998E-002     2.9800031916238368E-004
  -3.6400000000000002E-002     3.7549529224634171E-004
  -3.6299999999999999E-002     4.5599768054671586E-004
  -3.6200000000000003E-002     5.3678650874644518E-004
  -3.6100000000000000E-002     6.1465083854272962E-004
  -3.6000000000000004E-002     6.8596104392781854E-004
  -3.5900000000000001E-002     7.4677023803815246E-004
  -3.5799999999999998E-002     7.9294492024928331E-004
  -3.5700000000000003E-002     8.2032673526555300E-004
  -3.5600000000000000E-002     8.2491507055237889E-004
  -3.5500000000000004E-002     8.0306938616558909E-004
  -3.5400000000000001E-002     7.5172266224399209E-004
  -3.5299999999999998E-002     6.6859862999990582E-004
  -3.5200000000000002E-002     5.5241899099200964E-004
  -3.5099999999999999E-002     4.0309535688720644E-004
  -3.5000000000000003E-002     2.2189023729879409E-004
  -3.4900000000000000E-002     1.1538398211996537E-005
  -3.4799999999999998E-002    -2.2368287318386137E-004
  -3.4700000000000002E-002    -4.7794196871109307E-004
  -3.4599999999999999E-002    -7.4391363887116313E-004
  -3.4500000000000003E-002    -1.0129073634743690E-003
  -3.4400000000000000E-002    -1.2750747846439481E-003
  -3.4299999999999997E-002    -1.5196921303868294E-003
  -3.4200000000000001E-002    -1.7355128657072783E-003
  -3.4099999999999998E-002    -1.9111857982352376E-003
  -3.4000000000000002E-002    -2.0357237663120031E-003
  -3.3900000000000000E-002    -2.0990080665796995E-003
  -3.3799999999999997E-002    -2.0923148840665817E-003
  -3.3700000000000001E-002    -2.0088348537683487E-003
  -3.3599999999999998E-002    -1.8441707361489534E-003
  -3.3500000000000002E-002    -1.5967815415933728E-003
  -3.3399999999999999E-002    -1.2683526147156954E-003
  -3.3300000000000003E-002    -8.6406728951260448E-004
  -3.3200000000000000E-002    -3.9275462040677667E-004
  -3.3099999999999997E-002     1.3310169742908329E-004
  -3.3000000000000002E-002     6.9751124829053879E-004
  -3.2899999999999999E-002     1.2812885688617826E-003
  -3.2800000000000003E-002     1.8625338561832905E-003
  -3.2700000000000000E-002     2.4172770790755749E-003
  -3.2600000000000004E-002     2.9202809091657400E-003
  -3.2500000000000001E-002     3.3459691330790520E-003
  -3.2399999999999998E-002     3.6694700829684734E-003
  -3.2300000000000002E-002     3.8677365519106388E-003
  -3.2199999999999999E-002     3.9206906221807003E-003
  -3.2100000000000004E-002     3.8123705890029669E-003
  -3.2000000000000001E-002     3.5320101305842400E-003
  -3.1899999999999998E-002     3.0750103760510683E-003
  -3.1800000000000002E-002     2.4437536485493183E-003
  -3.1699999999999999E-002     1.6481991624459624E-003
  -3.1600000000000003E-002     7.0623756619170308E-004
  -3.1500000000000000E-002    -3.5625731106847525E-004
  -3.1399999999999997E-002    -1.5056917909532785E-003
  -3.1300000000000001E-002    -2.7013567741960287E-003
  -3.1199999999999999E-002    -3.8963754195719957E-003
  -3.1100000000000003E-002    -5.0389892421662807E-003
  -3.1000000000000000E-002    -6.0741566121578217E-003
  -3.0900000000000000E-002    -6.9454391486942768E-003
  -3.0800000000000001E-002    -7.5970953330397606E-003
  -3.0699999999999998E-002    -7.9763568937778473E-003
  -3.0600000000000002E-002    -8.0357762053608894E-003
  -3.0499999999999999E-002    -7.7355825342237949E-003
  -3.0400000000000000E-002    -7.0459358394145966E-003
  -3.0300000000000001E-002    -5.9489957056939602E-003
  -3.0200000000000001E-002    -4.4407011009752750E-003
  -3.0100000000000002E-002    -2.5321627035737038E-003
  -2.9999999999999999E-002    -2.5060467305593193E-004
  -2.9899999999999999E-002     2.3602491710335016E-003
  -2.9800000000000000E-002     5.2403830923140049E-003
  -2.9700000000000001E-002     8.3143198862671852E-003
  -2.9600000000000001E-002     1.1492614634335041E-002
  -2.9499999999999998E-002     1.4673999510705471E-002
  -2.9400000000000003E-002     1.7748109996318817E-002
  -2.9300000000000000E-002     2.0598821341991425E-002
  -2.9200000000000000E-002     2.3107962682843208E-002
  -2.9100000000000001E-002     2.5159472599625587E-002
  -2.8999999999999998E-002     2.6643747463822365E-002
  -2.8900000000000002E-002     2.7462074533104897E-002
  -2.8799999999999999E-002     2.7530929073691368E-002
  -2.8700000000000000E-002     2.6786161586642265E-002
  -2.8600000000000000E-002     2.5186615064740181E-002
  -2.8500000000000001E-002     2.2717218846082687E-002
  -2.8400000000000002E-002     1.9391382113099098E-002
  -2.8299999999999999E-002     1.5252448618412018E-002
  -2.8200000000000003E-002     1.0374234989285469E-002
  -2.8100000000000000E-002     4.8603937029838562E-003
  -2.8000000000000001E-002    -1.1571603827178478E-003
  -2.7900000000000001E-002    -7.5211436487734318E-003
  -2.7799999999999998E-002    -1.4052637852728367E-002
  -2.7700000000000002E-002    -2.0556097850203514E-002
  -2.7600000000000000E-002    -2.6825010776519775E-002
  -2.7500000000000000E-002    -3.2648392021656036E-002
  -2.7400000000000001E-002    -3.7817794829607010E-002
  -2.7299999999999998E-002    -4.2134597897529602E-002
  -2.7200000000000002E-002    -4.5417372137308121E-002
  -2.7099999999999999E-002    -4.7508988529443741E-002
  -2.7000000000000000E-002    -4.8283286392688751E-002
  -2.6900000000000000E-002    -4.7650989145040512E-002
  -2.6800000000000001E-002    -4.5564632862806320E-002
  -2.6700000000000002E-002    -4.2022146284580231E-002
  -2.6599999999999999E-002    -3.7069175392389297E-002
  -2.6500000000000003E-002    -3.0799690634012222E-002
  -2.6400000000000000E-002    -2.3355020210146904E-002
  -2.6300000000000000E-002    -1.4921080321073532E-002
  -2.6200000000000001E-002    -5.7239523157477379E-003
  -2.6099999999999998E-002     3.9761988446116447E-003
  -2.6000000000000002E-002     1.3892646878957748E-002
  -2.5899999999999999E-002     2.3720873519778252E-002
  -2.5800000000000000E-002     3.3148426562547684E-002
  -2.5700000000000001E-002     4.1865419596433640E-002
  -2.5599999999999998E-002     4.9575366079807281E-002
  -2.5500000000000002E-002     5.6005995720624924E-002
  -2.5399999999999999E-002     6.0919638723134995E-002
  -2.5300000000000000E-002     6.4122788608074188E-002
  -2.5200000000000000E-002     6.5474547445774078E-002
  -2.5100000000000001E-002     6.4893275499343872E-002
  -2.5000000000000001E-002     6.2361791729927063E-002
  -2.4899999999999999E-002     5.7930000126361847E-002
  -2.4800000000000003E-002     5.1715604960918427E-002
  -2.4700000000000000E-002     4.3902181088924408E-002
  -2.4600000000000000E-002     3.4734964370727539E-002
  -2.4500000000000001E-002     2.4514185264706612E-002
  -2.4399999999999998E-002     1.3586320914328098E-002
  -2.4299999999999999E-002     2.3332959972321987E-003
  -2.4199999999999999E-002    -8.8400086387991905E-003
  -2.4100000000000000E-002    -1.9519282504916191E-002
  -2.4000000000000000E-002    -2.9295299202203751E-002
  -2.3900000000000001E-002    -3.7778567522764206E-002
  -2.3800000000000002E-002    -4.4613927602767944E-002
  -2.3699999999999999E-002    -4.9494158476591110E-002
  -2.3599999999999999E-002    -5.2172418683767319E-002
  -2.3500000000000000E-002    -5.2472837269306183E-002
  -2.3400000000000001E-002    -5.0298921763896942E-002
  -2.3300000000000001E-002    -4.5639358460903168E-002
  -2.3199999999999998E-002    -3.8570698350667953E-002
  -2.3099999999999999E-002    -2.9257230460643768E-002
  -2.3000000000000000E-002    -1.7947549000382423E-002
  -2.2900000000000000E-002    -4.9679484218358994E-003
  -2.2800000000000001E-002     9.2871906235814095E-003
  -2.2700000000000001E-002     2.4367969483137131E-002
  -2.2599999999999999E-002     3.9783105254173279E-002
  -2.2499999999999999E-002     5.5017121136188507E-002
  -2.2400000000000000E-002     6.9548204541206360E-002
  -2.2300000000000000E-002     8.2866549491882324E-002
  -2.2200000000000001E-002     9.4493538141250610E-002
  -2.2100000000000002E-002    0.10399977117776871
  -2.1999999999999999E-002    0.11102159321308136
  -2.1899999999999999E-002    0.11527665704488754
  -2.1800000000000000E-002    0.11657514423131943
  -2.1700000000000001E-002    0.11483033746480942
  -2.1600000000000001E-002    0.11006320267915726
  -2.1499999999999998E-002    0.10240536183118820
  -2.1399999999999999E-002     9.2096455395221710E-002
  -2.1299999999999999E-002     7.9478591680526733E-002
  -2.1200000000000000E-002     6.4986020326614380E-002
  -2.1100000000000001E-002     4.9132615327835083E-002
  -2.1000000000000001E-002     3.2494708895683289E-002
  -2.0899999999999998E-002     1.5692172572016716E-002
  -2.0799999999999999E-002    -6.3285307260230184E-004
  -2.0700000000000000E-002    -1.5838377177715302E-002
  -2.0600000000000000E-002    -2.9305262491106987E-002
  -2.0500000000000001E-002    -4.0459938347339630E-002
  -2.0400000000000001E-002    -4.8795405775308609E-002
  -2.0299999999999999E-002    -5.3891051560640335E-002
  -2.0199999999999999E-002    -5.5428128689527512E-002
  -2.0100000000000000E-002    -5.3203865885734558E-002
  -2.0000000000000000E-002    -4.7139655798673630E-002
  -1.9900000000000001E-002    -3.7286333739757538E-002
  -1.9799999999999998E-002    -2.3823568597435951E-002
  -1.9699999999999999E-002    -7.0554642006754875E-003
  -1.9599999999999999E-002     1.2598969042301178E-002
  -1.9500000000000000E-002     3.4620173275470734E-002
  -1.9400000000000001E-002     5.8404743671417236E-002
  -1.9300000000000001E-002     8.3287969231605530E-002
  -1.9199999999999998E-002    0.10856680572032928
  -1.9099999999999999E-002    0.13352584838867188
  -1.9000000000000000E-002    0.15746390819549561
  -1.8900000000000000E-002    0.17972005903720856
  -1.8800000000000001E-002    0.19970023632049561
  -1.8700000000000001E-002    0.21689876914024353
  -1.8599999999999998E-002    0.23092015087604523
  -1.8499999999999999E-002    0.24149577319622040
  -1.8400000000000000E-002    0.24849496781826019
  -1.8300000000000000E-002    0.25193366408348083
  -1.8200000000000001E-002    0.25197523832321167
  -1.8100000000000002E-002    0.24892728030681610
  -1.7999999999999999E-002    0.24323391914367676
  -1.7899999999999999E-002    0.23546008765697479
  -1.7800000000000000E-002    0.22627322375774384
  -1.7700000000000000E-002    0.21642141044139862
  -1.7600000000000001E-002    0.20670621097087860
  -1.7499999999999998E-002    0.19795502722263336
  -1.7399999999999999E-002    0.19099116325378418
  -1.7299999999999999E-002    0.18660415709018707
  -1.7200000000000000E-002    0.18552121520042419
  -1.7100000000000001E-002    0.18837936222553253
  -1.7000000000000001E-002    0.19570375978946686
  -1.6899999999999998E-002    0.20788486301898956
  -1.6799999999999999E-002    0.22516790032386780
  -1.6700000000000000E-002    0.24763970077037811
  -1.6600000000000000E-002    0.27522841095924377
  -1.6500000000000001E-002    0.30770289897918701
  -1.6400000000000001E-002    0.34468391537666321
  -1.6299999999999999E-002    0.38565829396247864
  -1.6199999999999999E-002    0.42999801039695740
  -1.6100000000000000E-002    0.47698551416397095
  -1.6000000000000000E-002    0.52584224939346313
  -1.5900000000000001E-002    0.57575744390487671
  -1.5799999999999998E-002    0.62592315673828125
  -1.5699999999999999E-002    0.67556667327880859
  -1.5599999999999999E-002    0.72398251295089722
  -1.5500000000000000E-002    0.77056050300598145
  -1.5400000000000000E-002    0.81481546163558960
  -1.5300000000000001E-002    0.85640674829483032
  -1.5199999999999998E-002    0.89515668153762817
  -1.5099999999999999E-002    0.93106138706207275
  -1.4999999999999999E-002    0.96429294347763062
  -1.4900000000000000E-002    0.99520343542098999
  -1.4800000000000001E-002     1.0243076086044312
  -1.4700000000000001E-002     1.0522730350494385
  -1.4599999999999998E-002     1.0799005031585693
  -1.4499999999999999E-002     1.1080913543701172
  -1.4400000000000000E-002     1.1378259658813477
  -1.4300000000000000E-002     1.1701234579086304
  -1.4200000000000001E-002     1.2060055732727051
  -1.4099999999999998E-002     1.2464700937271118
  -1.3999999999999999E-002     1.2924475669860840
  -1.3899999999999999E-002     1.3447710275650024
  -1.3800000000000000E-002     1.4041527509689331
  -1.3700000000000000E-002     1.4711546897888184
  -1.3600000000000001E-002     1.5461698770523071
  -1.3499999999999998E-002     1.6294186115264893
  -1.3399999999999999E-002     1.7209343910217285
  -1.3299999999999999E-002     1.8205767869949341
  -1.3200000000000000E-002     1.9280313253402710
  -1.3100000000000001E-002     2.0428364276885986
  -1.3000000000000001E-002     2.1643979549407959
  -1.2899999999999998E-002     2.2920210361480713
  -1.2799999999999999E-002     2.4249482154846191
  -1.2699999999999999E-002     2.5623915195465088
  -1.2600000000000000E-002     2.7035663127899170
  -1.2500000000000001E-002     2.8477413654327393
  -1.2399999999999998E-002     2.9942574501037598
  -1.2299999999999998E-002     3.1425902843475342
  -1.2199999999999999E-002     3.2923476696014404
  -1.2100000000000000E-002     3.4433202743530273
  -1.2000000000000000E-002     3.5954916477203369
  -1.1900000000000001E-002     3.7490413188934326
  -1.1799999999999998E-002     3.9043655395507812
  -1.1699999999999999E-002     4.0620479583740234
  -1.1599999999999999E-002     4.2228808403015137
  -1.1500000000000000E-002     4.3878159523010254
  -1.1400000000000000E-002     4.5579590797424316
  -1.1300000000000001E-002     4.7345194816589355
  -1.1199999999999998E-002     4.9187903404235840
  -1.1099999999999999E-002     5.1120929718017578
  -1.0999999999999999E-002     5.3157577514648438
  -1.0900000000000000E-002     5.5310554504394531
  -1.0800000000000001E-002     5.7591753005981445
  -1.0699999999999998E-002     6.0011858940124512
  -1.0599999999999998E-002     6.2579822540283203
  -1.0499999999999999E-002     6.5302925109863281
  -1.0400000000000000E-002     6.8186473846435547
  -1.0300000000000000E-002     7.1233663558959961
  -1.0200000000000001E-002     7.4445371627807617
  -1.0099999999999998E-002     7.7820405960083008
  -9.9999999999999985E-003     8.1355781555175781
  -9.8999999999999991E-003     8.5046768188476562
  -9.7999999999999997E-003     8.8887243270874023
  -9.7000000000000003E-003     9.2870178222656250
  -9.6000000000000009E-003     9.6987466812133789
  -9.4999999999999980E-003     10.123125076293945
  -9.3999999999999986E-003     10.559382438659668
  -9.2999999999999992E-003     11.006796836853027
  -9.1999999999999998E-003     11.464790344238281
  -9.1000000000000004E-003     11.932936668395996
  -9.0000000000000011E-003     12.410992622375488
  -8.8999999999999982E-003     12.898902893066406
  -8.7999999999999988E-003     13.396903991699219
  -8.6999999999999994E-003     13.905425071716309
  -8.5999999999999965E-003     14.425169944763184
  -8.5000000000000006E-003     14.957088470458984
  -8.3999999999999977E-003     15.502366065979004
  -8.3000000000000018E-003     16.062269210815430
  -8.1999999999999990E-003     16.638338088989258
  -8.0999999999999961E-003     17.232257843017578
  -8.0000000000000002E-003     17.845619201660156
  -7.8999999999999973E-003     18.480220794677734
  -7.8000000000000014E-003     19.137672424316406
  -7.6999999999999985E-003     19.819614410400391
  -7.6000000000000026E-003     20.527477264404297
  -7.4999999999999997E-003     21.262592315673828
  -7.3999999999999969E-003     22.026002883911133
  -7.3000000000000009E-003     22.818613052368164
  -7.1999999999999981E-003     23.640935897827148
  -7.1000000000000021E-003     24.493322372436523
  -6.9999999999999993E-003     25.375793457031250
  -6.8999999999999964E-003     26.288145065307617
  -6.8000000000000005E-003     27.229925155639648
  -6.6999999999999976E-003     28.200477600097656
  -6.6000000000000017E-003     29.198928833007812
  -6.4999999999999988E-003     30.224330902099609
  -6.3999999999999960E-003     31.275655746459961
  -6.3000000000000000E-003     32.351814270019531
  -6.1999999999999972E-003     33.451774597167969
  -6.1000000000000013E-003     34.574581146240234
  -5.9999999999999984E-003     35.719371795654297
  -5.9000000000000025E-003     36.885532379150391
  -5.7999999999999996E-003     38.072669982910156
  -5.6999999999999967E-003     39.280544281005859
  -5.6000000000000008E-003     40.509384155273438
  -5.4999999999999979E-003     41.759521484375000
  -5.4000000000000020E-003     43.031455993652344
  -5.2999999999999992E-003     44.326362609863281
  -5.1999999999999963E-003     45.645256042480469
  -5.1000000000000004E-003     46.989307403564453
  -4.9999999999999975E-003     48.360244750976562
  -4.9000000000000016E-003     49.759613037109375
  -4.7999999999999987E-003     51.188968658447266
  -4.6999999999999958E-003     52.650077819824219
  -4.5999999999999999E-003     54.144371032714844
  -4.4999999999999971E-003     55.673240661621094
  -4.4000000000000011E-003     57.237792968750000
  -4.2999999999999983E-003     58.839084625244141
  -4.2000000000000023E-003     60.477668762207031
  -4.0999999999999995E-003     62.153797149658203
  -3.9999999999999966E-003     63.867465972900391
  -3.9000000000000007E-003     65.617927551269531
  -3.7999999999999978E-003     67.404533386230469
  -3.7000000000000019E-003     69.226104736328125
  -3.5999999999999990E-003     71.081123352050781
  -3.4999999999999962E-003     72.967453002929688
  -3.4000000000000002E-003     74.883384704589844
  -3.2999999999999974E-003     76.826301574707031
  -3.2000000000000015E-003     78.794029235839844
  -3.0999999999999986E-003     80.783950805664062
  -2.9999999999999957E-003     82.793464660644531
  -2.8999999999999998E-003     84.820167541503906
  -2.7999999999999969E-003     86.861724853515625
  -2.7000000000000010E-003     88.916145324707031
  -2.5999999999999981E-003     90.981193542480469
  -2.5000000000000022E-003     93.055633544921875
  -2.3999999999999994E-003     95.137664794921875
  -2.2999999999999965E-003     97.226104736328125
  -2.2000000000000006E-003     99.320503234863281
  -2.0999999999999977E-003     101.41978454589844
  -2.0000000000000018E-003     103.52379608154297
  -1.8999999999999989E-003     105.63257598876953
  -1.7999999999999960E-003     107.74591827392578
  -1.7000000000000001E-003     109.86399078369141
  -1.5999999999999973E-003     111.98699188232422
  -1.5000000000000013E-003     114.11538696289062
  -1.3999999999999985E-003     116.24829101562500
  -1.2999999999999956E-003     118.38581848144531
  -1.1999999999999997E-003     120.52703094482422
  -1.0999999999999968E-003     122.67119598388672
  -1.0000000000000009E-003     124.81711578369141
  -8.9999999999999802E-004     126.96272277832031
  -8.0000000000000210E-004     129.10623168945312
  -6.9999999999999923E-004     131.24487304687500
  -5.9999999999999637E-004     133.37496948242188
  -5.0000000000000044E-004     135.49346923828125
  -3.9999999999999758E-004     137.59594726562500
  -3.0000000000000165E-004     139.67750549316406
  -1.9999999999999879E-004     141.73390197753906
  -9.9999999999995925E-005     143.75990295410156
   0.0000000000000000          145.74977111816406
   1.0000000000000286E-004     147.69792175292969
   1.9999999999999879E-004     149.59887695312500
   3.0000000000000165E-004     151.44732666015625
   4.0000000000000452E-004     153.23837280273438
   5.0000000000000044E-004     154.96568298339844
   6.0000000000000331E-004     156.62432861328125
   6.9999999999999923E-004     158.21022033691406
   8.0000000000000210E-004     159.71749877929688
   8.9999999999999802E-004     161.14318847656250
   1.0000000000000009E-003     162.48181152343750
   1.1000000000000038E-003     163.73110961914062
   1.1999999999999997E-003     164.88694763183594
   1.3000000000000025E-003     165.94596862792969
   1.3999999999999985E-003     166.90487670898438
   1.5000000000000013E-003     167.76144409179688
   1.6000000000000042E-003     168.51147460937500
   1.7000000000000001E-003     169.15200805664062
   1.8000000000000030E-003     169.68090820312500
   1.8999999999999989E-003     170.09440612792969
   2.0000000000000018E-003     170.38894653320312
   2.1000000000000046E-003     170.56051635742188
   2.2000000000000006E-003     170.60403442382812
   2.3000000000000034E-003     170.51422119140625
   2.3999999999999994E-003     170.28823852539062
   2.5000000000000022E-003     169.91729736328125
   2.5999999999999981E-003     169.39585876464844
   2.7000000000000010E-003     168.71719360351562
   2.8000000000000039E-003     167.87388610839844
   2.8999999999999998E-003     166.85641479492188
   3.0000000000000027E-003     165.65879821777344
   3.0999999999999986E-003     164.27279663085938
   3.2000000000000015E-003     162.68911743164062
   3.3000000000000043E-003     160.90000915527344
   3.4000000000000002E-003     158.89506530761719
   3.5000000000000031E-003     156.66744995117188
   3.5999999999999990E-003     154.20851135253906
   3.7000000000000019E-003     151.50927734375000
   3.7999999999999978E-003     148.56170654296875
   3.9000000000000007E-003     145.35871887207031
   4.0000000000000036E-003     141.89204406738281
   4.0999999999999995E-003     138.15495300292969
   4.2000000000000023E-003     134.14312744140625
   4.2999999999999983E-003     129.84826660156250
   4.4000000000000011E-003     125.26617431640625
   4.5000000000000040E-003     120.39097595214844
   4.5999999999999999E-003     115.21684265136719
   4.7000000000000028E-003     109.73861694335938
   4.7999999999999987E-003     103.95601654052734
   4.9000000000000016E-003     97.861396789550781
   5.0000000000000044E-003     91.448005676269531
   5.1000000000000004E-003     84.716545104980469
   5.2000000000000032E-003     77.659233093261719
   5.2999999999999992E-003     70.274208068847656
   5.4000000000000020E-003     62.554286956787109
   5.4999999999999979E-003     54.495853424072266
   5.6000000000000008E-003     46.093173980712891
   5.7000000000000037E-003     37.344570159912109
   5.7999999999999996E-003     28.240295410156250
   5.9000000000000025E-003     18.774703979492188
   5.9999999999999984E-003     8.9431705474853516
   6.1000000000000013E-003    -1.2634377479553223
   6.2000000000000041E-003    -11.849009513854980
   6.3000000000000000E-003    -22.818740844726562
   6.4000000000000029E-003    -34.181434631347656
   6.4999999999999988E-003    -45.942329406738281
   6.6000000000000017E-003    -58.110267639160156
   6.7000000000000046E-003    -70.689651489257812
   6.8000000000000005E-003    -83.686286926269531
   6.9000000000000034E-003    -97.103706359863281
   6.9999999999999993E-003    -110.94433593750000
   7.1000000000000021E-003    -125.21001434326172
   7.1999999999999981E-003    -139.91168212890625
   7.3000000000000009E-003    -155.04354858398438
   7.4000000000000038E-003    -170.61009216308594
   7.4999999999999997E-003    -186.61091613769531
   7.6000000000000026E-003    -203.04539489746094
   7.6999999999999985E-003    -219.91316223144531
   7.8000000000000014E-003    -237.20922851562500
   7.9000000000000042E-003    -254.93673706054688
   8.0000000000000002E-003    -273.08959960937500
   8.1000000000000030E-003    -291.66503906250000
   8.1999999999999990E-003    -310.65676879882812
   8.3000000000000018E-003    -330.06246948242188
   8.4000000000000047E-003    -349.87420654296875
   8.5000000000000006E-003    -370.08941650390625
   8.6000000000000035E-003    -390.70272827148438
   8.6999999999999994E-003    -411.70407104492188
   8.8000000000000023E-003    -433.09304809570312
   8.8999999999999982E-003    -454.86187744140625
   9.0000000000000011E-003    -477.00360107421875
   9.1000000000000039E-003    -499.51058959960938
   9.1999999999999998E-003    -522.37481689453125
   9.3000000000000027E-003    -545.59210205078125
   9.3999999999999986E-003    -569.15496826171875
   9.5000000000000015E-003    -593.05090332031250
   9.6000000000000044E-003    -617.27813720703125
   9.7000000000000003E-003    -641.82745361328125
   9.8000000000000032E-003    -666.68218994140625
   9.8999999999999991E-003    -691.83959960937500
   1.0000000000000002E-002    -717.28417968750000
   1.0100000000000005E-002    -743.00622558593750
   1.0200000000000001E-002    -768.98760986328125
   1.0300000000000004E-002    -795.21990966796875
   1.0400000000000000E-002    -821.68566894531250
   1.0500000000000002E-002    -848.36853027343750
   1.0599999999999998E-002    -875.25109863281250
   1.0700000000000001E-002    -902.31079101562500
   1.0800000000000004E-002    -929.53662109375000
   1.0900000000000000E-002    -956.90228271484375
   1.1000000000000003E-002    -984.38635253906250
   1.1099999999999999E-002    -1011.9659423828125
   1.1200000000000002E-002    -1039.6192626953125
   1.1300000000000004E-002    -1067.3218994140625
   1.1400000000000000E-002    -1095.0490722656250
   1.1500000000000003E-002    -1122.7702636718750
   1.1599999999999999E-002    -1150.4626464843750
   1.1700000000000002E-002    -1178.0986328125000
   1.1800000000000005E-002    -1205.6477050781250
   1.1900000000000001E-002    -1233.0837402343750
   1.2000000000000004E-002    -1260.3767089843750
   1.2100000000000000E-002    -1287.5009765625000
   1.2200000000000003E-002    -1314.4246826171875
   1.2299999999999998E-002    -1341.1162109375000
   1.2400000000000001E-002    -1367.5468750000000
   1.2500000000000004E-002    -1393.6860351562500
   1.2600000000000000E-002    -1419.5065917968750
   1.2700000000000003E-002    -1444.9720458984375
   1.2799999999999999E-002    -1470.0490722656250
   1.2900000000000002E-002    -1494.7132568359375
   1.3000000000000005E-002    -1518.9248046875000
   1.3100000000000001E-002    -1542.6538085937500
   1.3200000000000003E-002    -1565.8664550781250
   1.3299999999999999E-002    -1588.5256347656250
   1.3400000000000002E-002    -1610.6004638671875
   1.3500000000000005E-002    -1632.0511474609375
   1.3600000000000001E-002    -1652.8424072265625
   1.3700000000000004E-002    -1672.9379882812500
   1.3800000000000000E-002    -1692.2984619140625
   1.3900000000000003E-002    -1710.8864746093750
   1.3999999999999999E-002    -1728.6622314453125
   1.4100000000000001E-002    -1745.5852050781250
   1.4200000000000004E-002    -1761.6166992187500
   1.4300000000000000E-002    -1776.7165527343750
   1.4400000000000003E-002    -1790.8426513671875
   1.4499999999999999E-002    -1803.9534912109375
   1.4600000000000002E-002    -1816.0113525390625
   1.4700000000000005E-002    -1826.9729003906250
   1.4800000000000001E-002    -1836.7980957031250
   1.4900000000000004E-002    -1845.4461669921875
   1.4999999999999999E-002    -1852.8780517578125
   1.5100000000000002E-002    -1859.0529785156250
   1.5200000000000005E-002    -1863.9328613281250
   1.5300000000000001E-002    -1867.4769287109375
   1.5400000000000004E-002    -1869.6506347656250
   1.5500000000000000E-002    -1870.4147949218750
   1.5600000000000003E-002    -1869.7341308593750
   1.5699999999999999E-002    -1867.5698242187500
   1.5800000000000002E-002    -1863.8905029296875
   1.5900000000000004E-002    -1858.6621093750000
   1.6000000000000000E-002    -1851.8471679687500
   1.6100000000000003E-002    -1843.4189453125000
   1.6199999999999999E-002    -1833.3419189453125
   1.6300000000000002E-002    -1821.5880126953125
   1.6400000000000005E-002    -1808.1235351562500
   1.6500000000000001E-002    -1792.9248046875000
   1.6600000000000004E-002    -1775.9606933593750
   1.6700000000000000E-002    -1757.2060546875000
   1.6800000000000002E-002    -1736.6317138671875
   1.6900000000000005E-002    -1714.2143554687500
   1.7000000000000001E-002    -1689.9304199218750
   1.7100000000000004E-002    -1663.7629394531250
   1.7200000000000000E-002    -1635.6823730468750
   1.7300000000000003E-002    -1605.6652832031250
   1.7399999999999999E-002    -1573.6992187500000
   1.7500000000000002E-002    -1539.7718505859375
   1.7600000000000005E-002    -1503.8585205078125
   1.7700000000000000E-002    -1465.9458007812500
   1.7800000000000003E-002    -1426.0246582031250
   1.7899999999999999E-002    -1384.0781250000000