  -4.0000000000000001E-002     0.0000000000000000
  -3.9899999999999998E-002     0.0000000000000000
  -3.9800000000000002E-002     0.0000000000000000
  -3.9699999999999999E-002     0.0000000000000000
  -3.9600000000000003E-002     0.0000000000000000
  -3.9500000000000000E-002     4.8198881307918837E-028
  -3.9399999999999998E-002     9.0172925923984801E-027
  -3.9300000000000002E-002     1.2001933960606579E-026
  -3.9199999999999999E-002    -1.2137681977178746E-026
  -3.9100000000000003E-002     5.7466687774126729E-025
  -3.9000000000000000E-002     3.6235296217845864E-024
  -3.8900000000000004E-002     7.6300220252004808E-024
  -3.8800000000000001E-002     4.6406288917000253E-024
  -3.8699999999999998E-002     2.8196122806682548E-023
  -3.8600000000000002E-002     9.0715103972100945E-023
  -3.8500000000000000E-002     1.9565682843154522E-022
  -3.8400000000000004E-002     1.6396364105580724E-022
  -3.8300000000000001E-002     1.8259471810160191E-022
  -3.8199999999999998E-002     4.3462959265021824E-022
  -3.8100000000000002E-002     7.5979311004672176E-022
  -3.7999999999999999E-002     1.4606572754879263E-021
  -3.7900000000000003E-002     3.0710415119900531E-021
  -3.7800000000000000E-002     5.9109603597796941E-021
  -3.7699999999999997E-002     8.2296829221882941E-021
  -3.7600000000000001E-002     9.4973339797515413E-021
  -3.7499999999999999E-002     9.1253708915669050E-021
  -3.7400000000000003E-002     4.5695775404966385E-021
  -3.7300000000000000E-002     4.9469734443157722E-021
  -3.7200000000000004E-002     9.1079322440436679E-021
  -3.7100000000000001E-002     9.0100349338718769E-021
  -3.6999999999999998E-002     1.0227588250000247E-020
  -3.6900000000000002E-002     1.5036107896425338E-020
  -3.6799999999999999E-002     1.9820218444638013E-020
  -3.6700000000000003E-002     4.4418464751929594E-020
  -3.6600000000000001E-002     8.9322154943652500E-020
  -3.6499999999999998E-002     1.0832197016376416E-019
  -3.6400000000000002E-002     8.4539752071040351E-020
  -3.6299999999999999E-002     1.1558709263705601E-020
  -3.6200000000000003E-002     1.7157336644722285E-020
  -3.6100000000000000E-002     3.7360339380167747E-021
  -3.6000000000000004E-002     3.6753857663627256E-020
  -3.5900000000000001E-002     4.1350912302303573E-021
  -3.5799999999999998E-002    -6.9267904162385935E-020
  -3.5700000000000003E-002     6.4373198596922641E-020
  -3.5600000000000000E-002     2.0742035950967923E-019
  -3.5500000000000004E-002     9.8974183007061395E-020
  -3.5400000000000001E-002    -1.3515375114337810E-019
  -3.5299999999999998E-002    -5.5466735561471639E-019
  -3.5200000000000002E-002    -9.8869465818921303E-019
  -3.5099999999999999E-002    -1.3606853276773991E-018
  -3.5000000000000003E-002    -2.0599053387691127E-018
  -3.4900000000000000E-002    -3.4850364113680948E-018
  -3.4799999999999998E-002    -4.8297032830858280E-018
  -3.4700000000000002E-002    -5.5035820991240968E-018
  -3.4599999999999999E-002    -5.8896860208260861E-018
  -3.4500000000000003E-002    -5.9411225928564710E-018
  -3.4400000000000000E-002    -6.5308949249812667E-018
  -3.4299999999999997E-002    -7.2902190167544256E-018
  -3.4200000000000001E-002    -7.7737036032498326E-018
  -3.4099999999999998E-002    -5.9866005693443302E-018
  -3.4000000000000002E-002    -2.3773079814906635E-018
  -3.3900000000000000E-002    -1.3705735481174346E-018
  -3.3799999999999997E-002    -2.9497837602118223E-018
  -3.3700000000000001E-002    -4.3459167756668391E-018
  -3.3599999999999998E-002    -6.6270881720053646E-018
  -3.3500000000000002E-002    -8.0961700388862798E-018
  -3.3399999999999999E-002    -2.3164758784725950E-018
  -3.3300000000000003E-002     3.6101834613733863E-018
  -3.3200000000000000E-002     8.0976366301123363E-018
  -3.3099999999999997E-002     1.4787676555455437E-017
  -3.3000000000000002E-002     1.7084227720923160E-017
  -3.2899999999999999E-002     2.1870830758191913E-017
  -3.2800000000000003E-002     3.6740289006449242E-017
  -3.2700000000000000E-002     4.2447520904432363E-017
  -3.2600000000000004E-002     5.0864424435571792E-017
  -3.2500000000000001E-002     6.3952787462712591E-017
  -3.2399999999999998E-002     6.3314614311405480E-017
  -3.2300000000000002E-002     6.2203565164958954E-017
  -3.2199999999999999E-002     5.8650374447790472E-017
  -3.2100000000000004E-002     5.5938095541343397E-017
  -3.2000000000000001E-002     6.2480677287609119E-017
  -3.1899999999999998E-002     7.9659961295804423E-017
  -3.1800000000000002E-002     1.0429275142803335E-016
  -3.1699999999999999E-002     1.1947582362501158E-016
  -3.1600000000000003E-002     1.2252711423370739E-016
  -3.1500000000000000E-002     1.2323638521302466E-016
  -3.1399999999999997E-002     1.5399045746193379E-016
  -3.1300000000000001E-002     1.7190693806692616E-016
  -3.1199999999999999E-002     1.2702455478116230E-016
  -3.1100000000000003E-002     8.4448218694298282E-017
  -3.1000000000000000E-002     5.2424999922826585E-017
  -3.0900000000000000E-002     1.7382528902144484E-017
  -3.0800000000000001E-002    -2.3081043970832521E-017
  -3.0699999999999998E-002    -9.0524634534553620E-017
  -3.0600000000000002E-002    -1.4338651816970621E-016
  -3.0499999999999999E-002    -1.8255149523595254E-016
  -3.0400000000000000E-002    -2.7558568986987364E-016
  -3.0300000000000001E-002    -3.4117364796748106E-016
  -3.0200000000000001E-002    -3.8783449604001352E-016
  -3.0100000000000002E-002    -6.1624389181917085E-016
  -2.9999999999999999E-002    -8.2809763159754886E-016
  -2.9899999999999999E-002    -8.5304688117980587E-016
  -2.9800000000000000E-002    -9.6547451718093482E-016
  -2.9700000000000001E-002    -1.2066142093523934E-015
  -2.9600000000000001E-002    -1.4591286010934117E-015
  -2.9499999999999998E-002    -1.6859841414006106E-015
  -2.9400000000000003E-002    -1.7558584303184596E-015
  -2.9300000000000000E-002    -1.6682627298363929E-015
  -2.9200000000000000E-002    -1.5218230152338596E-015
  -2.9100000000000001E-002    -1.3426142428800175E-015
  -2.8999999999999998E-002    -1.0446310166512701E-015
  -2.8900000000000002E-002    -5.8326122294647645E-016
  -2.8799999999999999E-002    -4.8035797612885458E-017
  -2.8700000000000000E-002     4.8392315765618263E-016
  -2.8600000000000000E-002     9.4233410645753937E-016
  -2.8500000000000001E-002     1.3890784469598890E-015
  -2.8400000000000002E-002     1.9923631582025427E-015
  -2.8299999999999999E-002     2.6776153536301134E-015
  -2.8200000000000003E-002     3.4276990273240547E-015
  -2.8100000000000000E-002     4.4056114821815900E-015
  -2.8000000000000001E-002     5.2513014586980187E-015
  -2.7900000000000001E-002     5.6897786517560479E-015
  -2.7799999999999998E-002     6.1039527754914568E-015
  -2.7700000000000002E-002     6.4518766407738442E-015
  -2.7600000000000000E-002     6.3353956344827482E-015
  -2.7500000000000000E-002     5.9128947533593559E-015
  -2.7400000000000001E-002     5.4371099941395110E-015
  -2.7299999999999998E-002     4.8516027045147122E-015
  -2.7200000000000002E-002     4.0391884173311687E-015
  -2.7099999999999999E-002     3.0991216063151923E-015
  -2.7000000000000000E-002     2.1913530086109696E-015
  -2.6900000000000000E-002     1.2532961008997093E-015
  -2.6800000000000001E-002    -2.9539221861754557E-017
  -2.6700000000000002E-002    -1.2700241545750344E-015
  -2.6599999999999999E-002    -2.9470118531637387E-015
  -2.6500000000000003E-002    -5.0376865256640622E-015
  -2.6400000000000000E-002    -6.6349200371590249E-015
  -2.6300000000000000E-002    -8.3344459060456268E-015
  -2.6200000000000001E-002    -9.9895838603643143E-015
  -2.6099999999999998E-002    -1.1809374008200924E-014
  -2.6000000000000002E-002    -1.3683793545970699E-014
  -2.5899999999999999E-002    -1.4857501689992565E-014
  -2.5800000000000000E-002    -1.5699455827695129E-014
  -2.5700000000000001E-002    -1.7046246684158939E-014
  -2.5599999999999998E-002    -1.8373050951199336E-014
  -2.5500000000000002E-002    -1.9011217432121988E-014
  -2.5399999999999999E-002    -1.8851973543972285E-014
  -2.5300000000000000E-002    -1.7749197633019388E-014
  -2.5200000000000000E-002    -1.6170111378902875E-014
  -2.5100000000000001E-002    -1.3395538916657641E-014
  -2.5000000000000001E-002    -1.0094576982308274E-014
  -2.4899999999999999E-002    -6.8354097711588024E-015
  -2.4800000000000003E-002    -3.9350050588847843E-015
  -2.4700000000000000E-002    -9.4071934402271745E-016
  -2.4600000000000000E-002     2.2685465092260430E-015
  -2.4500000000000001E-002     6.2538212794644756E-015
  -2.4399999999999998E-002     1.1175656144317252E-014
  -2.4299999999999999E-002     1.5492666286150147E-014
  -2.4199999999999999E-002     1.9956618009606825E-014
  -2.4100000000000000E-002     2.4569308718601357E-014
  -2.4000000000000000E-002     2.9234068236929506E-014
  -2.3900000000000001E-002     3.4571554874494176E-014
  -2.3800000000000002E-002     4.0321556721767057E-014
  -2.3699999999999999E-002     4.4362269798403284E-014
  -2.3599999999999999E-002     4.8200152365489995E-014
  -2.3500000000000000E-002     5.3243345875860631E-014
  -2.3400000000000001E-002     5.9149381356413122E-014
  -2.3300000000000001E-002     6.6677464602166864E-014
  -2.3199999999999998E-002     7.5313981938961161E-014
  -2.3099999999999999E-002     8.3601657226758247E-014
  -2.3000000000000000E-002     9.1511562596343493E-014
  -2.2900000000000000E-002     9.8723844854306519E-014
  -2.2800000000000001E-002     1.0325348567688866E-013
  -2.2700000000000001E-002     1.0424458876407555E-013
  -2.2599999999999999E-002     1.0423382805751363E-013
  -2.2499999999999999E-002     1.0391802029345934E-013
  -2.2400000000000000E-002     9.9816314068357226E-014
  -2.2300000000000000E-002     8.8965815237766060E-014
  -2.2200000000000001E-002     7.0925023124522590E-014
  -2.2100000000000002E-002     4.5954590095287698E-014
  -2.1999999999999999E-002     1.2861633721212521E-014
  -2.1899999999999999E-002    -2.6945336085537445E-014
  -2.1800000000000000E-002    -6.7080076302655778E-014
  -2.1700000000000001E-002    -1.0889858079957820E-013
  -2.1600000000000001E-002    -1.6214670394126135E-013
  -2.1499999999999998E-002    -2.2200345945258548E-013
  -2.1399999999999999E-002    -2.7808823494825108E-013
  -2.1299999999999999E-002    -3.3387824297827218E-013
  -2.1200000000000000E-002    -3.8595908695600312E-013
  -2.1100000000000001E-002    -4.3434621676240182E-013
  -2.1000000000000001E-002    -4.8100645645351991E-013
  -2.0899999999999998E-002    -5.1706084075800463E-013
  -2.0799999999999999E-002    -5.4104144124947351E-013
  -2.0700000000000000E-002    -5.5298962024080689E-013
  -2.0600000000000000E-002    -5.4860028195560795E-013
  -2.0500000000000001E-002    -5.2379362782892236E-013
  -2.0400000000000001E-002    -4.7349879008992679E-013
  -2.0299999999999999E-002    -3.9613202041516304E-013
  -2.0199999999999999E-002    -2.9558731222227574E-013
  -2.0100000000000000E-002    -1.7464296068331331E-013
  -2.0000000000000000E-002    -2.9389664801208332E-014
  -1.9900000000000001E-002     1.4150307444879551E-013
  -1.9799999999999998E-002     3.2861254407705320E-013
  -1.9699999999999999E-002     5.2252299709287797E-013
  -1.9599999999999999E-002     7.2570866416904467E-013
  -1.9500000000000000E-002     9.3736238389319215E-013
  -1.9400000000000001E-002     1.1577697351175531E-012
  -1.9300000000000001E-002     1.3705306421002428E-012
  -1.9199999999999998E-002     1.5641899667878656E-012
  -1.9099999999999999E-002     1.7466047054839895E-012
  -1.9000000000000000E-002     1.9092646300761240E-012
  -1.8900000000000000E-002     2.0483465184434335E-012
  -1.8800000000000001E-002     2.1586404538864734E-012
  -1.8700000000000001E-002     2.2218138787111208E-012
  -1.8599999999999998E-002     2.2305146011453170E-012
  -1.8499999999999999E-002     2.1896714042651810E-012
  -1.8400000000000000E-002     2.0928384893148522E-012
  -1.8300000000000000E-002     1.9350963973568946E-012
  -1.8200000000000001E-002     1.7151073313306786E-012
  -1.8100000000000002E-002     1.4257351809571217E-012
  -1.7999999999999999E-002     1.0640879453613361E-012
  -1.7899999999999999E-002     6.4178117030813664E-013
  -1.7800000000000000E-002     1.6554609788034524E-013
  -1.7700000000000000E-002    -3.8268319719689248E-013
  -1.7600000000000001E-002    -1.0051334764504816E-012
  -1.7499999999999998E-002    -1.6638958006548465E-012
  -1.7399999999999999E-002    -2.3351162583423735E-012
  -1.7299999999999999E-002    -3.0238164402951462E-012
  -1.7200000000000000E-002    -3.7374656321198518E-012
  -1.7100000000000001E-002    -4.4363293420779382E-012
  -1.7000000000000001E-002    -5.0921693077465857E-012
  -1.6899999999999998E-002    -5.7167439185268343E-012
  -1.6799999999999999E-002    -6.2831376386462967E-012
  -1.6700000000000000E-002    -6.7619920079975415E-012
  -1.6600000000000000E-002    -7.1336829672585811E-012
  -1.6500000000000001E-002    -7.3852963675125061E-012
  -1.6400000000000001E-002    -7.4885800685486892E-012
  -1.6299999999999999E-002    -7.4284094500609577E-012
  -1.6199999999999999E-002    -7.2009512068482717E-012
  -1.6100000000000000E-002    -6.8065674624362416E-012
  -1.6000000000000000E-002    -6.2411048551425097E-012
  -1.5900000000000001E-002    -5.4624230486077785E-012
  -1.5799999999999998E-002    -4.4802802960652865E-012
  -1.5699999999999999E-002    -3.3043977710339734E-012
  -1.5599999999999999E-002    -1.9422150519810000E-012
  -1.5500000000000000E-002    -4.1706400702792856E-013
  -1.5400000000000000E-002     1.2662439456342933E-012
  -1.5300000000000001E-002     3.0854368539279253E-012
  -1.5199999999999998E-002     4.9960773365609334E-012
  -1.5099999999999999E-002     6.9587469467280449E-012
  -1.4999999999999999E-002     8.9521237645051599E-012
  -1.4900000000000000E-002     1.0946565702496525E-011
  -1.4800000000000001E-002     1.2865952227214539E-011
  -1.4700000000000001E-002     1.4662332112336252E-011
  -1.4599999999999998E-002     1.6306350367201183E-011
  -1.4499999999999999E-002     1.7735967208776238E-011
  -1.4400000000000000E-002     1.8879670396487747E-011
  -1.4300000000000000E-002     1.9709130161249533E-011
  -1.4200000000000001E-002     2.0180178708639751E-011
  -1.4099999999999998E-002     2.0210923212804488E-011
  -1.3999999999999999E-002     1.9822489136234189E-011
  -1.3899999999999999E-002     1.8970262860573683E-011
  -1.3800000000000000E-002     1.7628887932774617E-011
  -1.3700000000000000E-002     1.5838804226508962E-011
  -1.3600000000000001E-002     1.3617595766290957E-011
  -1.3499999999999998E-002     1.0959266480425889E-011
  -1.3399999999999999E-002     7.8345073484253902E-012
  -1.3299999999999999E-002     4.3061309726311059E-012
  -1.3200000000000000E-002     3.9680671942710077E-013
  -1.3100000000000001E-002    -3.8234853651231138E-012
  -1.3000000000000001E-002    -8.2470714285465263E-012
  -1.2899999999999998E-002    -1.2837830624945479E-011
  -1.2799999999999999E-002    -1.7510564179201715E-011
  -1.2699999999999999E-002    -2.2143753844461322E-011
  -1.2600000000000000E-002    -2.6648076106861041E-011
  -1.2500000000000001E-002    -3.0955994712034141E-011
  -1.2399999999999998E-002    -3.4934999337821182E-011
  -1.2299999999999998E-002    -3.8474560343226827E-011
  -1.2199999999999999E-002    -4.1487414198515538E-011
  -1.2100000000000000E-002    -4.3891303785903446E-011
  -1.2000000000000000E-002    -4.5606841220235950E-011
  -1.1900000000000001E-002    -4.6565584721491859E-011
  -1.1799999999999998E-002    -4.6731386121878771E-011
  -1.1699999999999999E-002    -4.6043811124940603E-011
  -1.1599999999999999E-002    -4.4418739519880290E-011
  -1.1500000000000000E-002    -4.1921639770681196E-011
  -1.1400000000000000E-002    -3.8536521196341766E-011
  -1.1300000000000001E-002    -3.4171710600050531E-011
  -1.1199999999999998E-002    -2.8891798675712010E-011
  -1.1099999999999999E-002    -2.2841279215257693E-011
  -1.0999999999999999E-002    -1.6088278279036139E-011
  -1.0900000000000000E-002    -8.6267182633492645E-012
  -1.0800000000000001E-002    -5.4161124370122327E-013
  -1.0699999999999998E-002     8.1210975444445666E-012
  -1.0599999999999998E-002     1.7256569437296143E-011
  -1.0499999999999999E-002     2.6733662158995308E-011
  -1.0400000000000000E-002     3.6443025680510388E-011
  -1.0300000000000000E-002     4.6171656775673142E-011
  -1.0200000000000001E-002     5.5818839134191833E-011
  -1.0099999999999998E-002     6.5337651955488241E-011
  -9.9999999999999985E-003     7.4541602057554002E-011
  -9.8999999999999991E-003     8.3250573101878445E-011
  -9.7999999999999997E-003     9.1272669977549015E-011
  -9.7000000000000003E-003     9.8327852804391824E-011
  -9.6000000000000009E-003     1.0411917855668307E-010
  -9.4999999999999980E-003     1.0863721033871343E-010
  -9.3999999999999986E-003     1.1181017223194090E-010
  -9.2999999999999992E-003     1.1334313348987379E-010
  -9.1999999999999998E-003     1.1299134544673350E-010
  -9.1000000000000004E-003     1.1068197747210462E-010
  -9.0000000000000011E-003     1.0632512231767421E-010
  -8.8999999999999982E-003     9.9648005125185790E-011
  -8.7999999999999988E-003     9.0625500159813299E-011
  -8.6999999999999994E-003     7.9321008095156742E-011
  -8.5999999999999965E-003     6.5576141738965532E-011
  -8.5000000000000006E-003     4.9348539143956316E-011
  -8.3999999999999977E-003     3.0826993735466601E-011
  -8.3000000000000018E-003     9.9815052057028453E-012
  -8.1999999999999990E-003    -1.3170051854638487E-011
  -8.0999999999999961E-003    -3.8353400316770703E-011
  -8.0000000000000002E-003    -6.5338290333727400E-011
  -7.8999999999999973E-003    -9.3899152342480363E-011
  -7.8000000000000014E-003    -1.2362895429607335E-010
  -7.6999999999999985E-003    -1.5405236808430089E-010
  -7.6000000000000026E-003    -1.8420645564454219E-010
  -7.4999999999999997E-003    -2.1354305823617636E-010
  -7.3999999999999969E-003    -2.4180152324859705E-010
  -7.3000000000000009E-003    -2.6802721153629250E-010
  -7.1999999999999981E-003    -2.9153310321383685E-010
  -7.1000000000000021E-003    -3.1159871904939962E-010
  -6.9999999999999993E-003    -3.2743557865089201E-010
  -6.8999999999999964E-003    -3.3851335623502621E-010
  -6.8000000000000005E-003    -3.4389480152441365E-010
  -6.6999999999999976E-003    -3.4285502215070096E-010
  -6.6000000000000017E-003    -3.3471242444349514E-010
  -6.4999999999999988E-003    -3.1877309125682984E-010
  -6.3999999999999960E-003    -2.9494237607785578E-010
  -6.3000000000000000E-003    -2.6321791968264563E-010
  -6.1999999999999972E-003    -2.2309050440316724E-010
  -6.1000000000000013E-003    -1.7448238687212125E-010
  -5.9999999999999984E-003    -1.1781799147403405E-010
  -5.9000000000000025E-003    -5.3629302387836475E-011
  -5.7999999999999996E-003     1.7529288784401409E-011
  -5.6999999999999967E-003     9.5116060860878093E-011
  -5.6000000000000008E-003     1.7814250075076643E-010
  -5.4999999999999979E-003     2.6531166152921060E-010
  -5.4000000000000020E-003     3.5516703467131094E-010
  -5.2999999999999992E-003     4.4618719829969677E-010
  -5.1999999999999963E-003     5.3660648147157985E-010
  -5.1000000000000004E-003     6.2436406045307535E-010
  -4.9999999999999975E-003     7.0734640367220436E-010
  -4.9000000000000016E-003     7.8354994714757709E-010
  -4.7999999999999987E-003     8.5064805199763782E-010
  -4.6999999999999958E-003     9.0584484357947304E-010
  -4.5999999999999999E-003     9.4700713937356795E-010
  -4.4999999999999971E-003     9.7247265795630256E-010
  -4.4000000000000011E-003     9.8032848505624770E-010
  -4.2999999999999983E-003     9.6803154381319700E-010
  -4.2000000000000023E-003     9.3388852206999218E-010
  -4.0999999999999995E-003     8.7752283217668037E-010
  -3.9999999999999966E-003     7.9805578812042199E-010
  -3.9000000000000007E-003     6.9504296762445961E-010
  -3.7999999999999978E-003     5.6945415050080328E-010
  -3.7000000000000019E-003     4.2132111688353291E-010
  -3.5999999999999990E-003     2.5109181400750913E-010
  -3.4999999999999962E-003     6.1531300887818219E-011
  -3.4000000000000002E-003    -1.4542245185822367E-010
  -3.2999999999999974E-003    -3.6807407122196878E-010
  -3.2000000000000015E-003    -6.0151345016024038E-010
  -3.0999999999999986E-003    -8.4191958960033730E-010
  -2.9999999999999957E-003    -1.0868945743425229E-009
  -2.8999999999999998E-003    -1.3313010693849492E-009
  -2.7999999999999969E-003    -1.5691095089920282E-009
  -2.7000000000000010E-003    -1.7946525376899558E-009
  -2.5999999999999981E-003    -2.0020332058834356E-009
  -2.5000000000000022E-003    -2.1873172162401033E-009
  -2.3999999999999994E-003    -2.3447659369679741E-009
  -2.2999999999999965E-003    -2.4684316812795259E-009
  -2.2000000000000006E-003    -2.5541349035762551E-009
  -2.0999999999999977E-003    -2.5938617920218121E-009
  -2.0000000000000018E-003    -2.5833886141413132E-009
  -1.8999999999999989E-003    -2.5210480369963761E-009
  -1.7999999999999960E-003    -2.4047319691078428E-009
  -1.7000000000000001E-003    -2.2331128057828664E-009
  -1.5999999999999973E-003    -2.0051975635482222E-009
  -1.5000000000000013E-003    -1.7196507551275886E-009
  -1.3999999999999985E-003    -1.3772577522885854E-009
  -1.2999999999999956E-003    -9.8402597181745932E-010
  -1.1999999999999997E-003    -5.4267423887921495E-010
  -1.0999999999999968E-003    -5.7971804440226649E-011
  -1.0000000000000009E-003     4.6291404043330431E-010
  -8.9999999999999802E-004     1.0104328485027736E-009
  -8.0000000000000210E-004     1.5770383887669936E-009
  -6.9999999999999923E-004     2.1522046367294934E-009
  -5.9999999999999637E-004     2.7200757202194836E-009
  -5.0000000000000044E-004     3.2719318365792560E-009
  -3.9999999999999758E-004     3.8000904645230094E-009
  -3.0000000000000165E-004     4.2955163870317392E-009
  -1.9999999999999879E-004     4.7474277842241008E-009
  -9.9999999999995925E-005     5.1450452787094036E-009
   0.0000000000000000          5.4794426773696614E-009
   1.0000000000000286E-004     5.7413882537105110E-009
   1.9999999999999879E-004     5.9262759144473875E-009
   3.0000000000000165E-004     6.0243263710901829E-009
   4.0000000000000452E-004     6.0206626351089199E-009
   5.0000000000000044E-004     5.9135758512240955E-009
   6.0000000000000331E-004     5.6945288484655521E-009
   6.9999999999999923E-004     5.3522035692310510E-009
   8.0000000000000210E-004     4.8898822768705941E-009
   8.9999999999999802E-004     4.3062096111157189E-009
   1.0000000000000009E-003     3.6013345638963301E-009
   1.1000000000000038E-003     2.7825708404094485E-009
   1.1999999999999997E-003     1.8450516670043271E-009
   1.3000000000000025E-003     7.9106843298148988E-010
   1.3999999999999985E-003    -3.5802188991240769E-010
   1.5000000000000013E-003    -1.5799922481463113E-009
   1.6000000000000042E-003    -2.8639595139878793E-009
   1.7000000000000001E-003    -4.1919965276804305E-009
   1.8000000000000030E-003    -5.5457269887426719E-009
   1.8999999999999989E-003    -6.8964816080097080E-009
   2.0000000000000018E-003    -8.2233500009465388E-009
   2.1000000000000046E-003    -9.5076231332313910E-009
   2.2000000000000006E-003    -1.0711851849976028E-008
   2.3000000000000034E-003    -1.1811184030818822E-008
   2.3999999999999994E-003    -1.2767283230630255E-008
   2.5000000000000022E-003    -1.3551920474696999E-008
   2.5999999999999981E-003    -1.4147712334988682E-008
   2.7000000000000010E-003    -1.4518499291682474E-008
   2.8000000000000039E-003    -1.4640849421709845E-008
   2.8999999999999998E-003    -1.4513772406132830E-008
   3.0000000000000027E-003    -1.4127763847682218E-008
   3.0999999999999986E-003    -1.3456681990930974E-008
   3.2000000000000015E-003    -1.2489781653357568E-008
   3.3000000000000043E-003    -1.1217462514423460E-008
   3.4000000000000002E-003    -9.6388435011363072E-009
   3.5000000000000031E-003    -7.7784312324524763E-009
   3.5999999999999990E-003    -5.6591158426044785E-009
   3.7000000000000019E-003    -3.3162690371568715E-009
   3.7999999999999978E-003    -7.9289680376959382E-010
   3.9000000000000007E-003     1.8543129254311452E-009
   4.0000000000000036E-003     4.5730379483188699E-009
   4.0999999999999995E-003     7.3455668214705838E-009
   4.2000000000000023E-003     1.0146854911852188E-008
   4.2999999999999983E-003     1.2899347368033887E-008
   4.4000000000000011E-003     1.5548826226563506E-008
   4.5000000000000040E-003     1.8033889048751917E-008
   4.5999999999999999E-003     2.0282206136812420E-008
   4.7000000000000028E-003     2.2291613888114625E-008
   4.7999999999999987E-003     2.4014305211039755E-008
   4.9000000000000016E-003     2.5435785033778302E-008
   5.0000000000000044E-003     2.6564917376958874E-008
   5.1000000000000004E-003     2.7315682160633514E-008
   5.2000000000000032E-003     2.7651834599851099E-008
   5.2999999999999992E-003     2.7610639108388568E-008
   5.4000000000000020E-003     2.7128049140401345E-008
   5.4999999999999979E-003     2.6170118516688490E-008
   5.6000000000000008E-003     2.4793601838268842E-008
   5.7000000000000037E-003     2.2981296865509648E-008
   5.7999999999999996E-003     2.0676930390095549E-008
   5.9000000000000025E-003     1.7873963642500712E-008
   5.9999999999999984E-003     1.4735543452104594E-008
   6.1000000000000013E-003     1.1292424773046150E-008
   6.2000000000000041E-003     7.4989703335859303E-009
   6.3000000000000000E-003     3.4384726177449920E-009
   6.4000000000000029E-003    -7.9896056437434027E-010
   6.4999999999999988E-003    -5.0995825340294232E-009
   6.6000000000000017E-003    -9.3985699223253505E-009
   6.7000000000000046E-003    -1.3752541327960444E-008
   6.8000000000000005E-003    -1.8147332525586535E-008
   6.9000000000000034E-003    -2.2449992087558712E-008
   6.9999999999999993E-003    -2.6495643012935943E-008
   7.1000000000000021E-003    -3.0200911993460977E-008
   7.1999999999999981E-003    -3.3592126413850565E-008
   7.3000000000000009E-003    -3.6683353243915917E-008
   7.4000000000000038E-003    -3.9505657412064465E-008
   7.4999999999999997E-003    -4.2037168412889514E-008
   7.6000000000000026E-003    -4.4160294976336445E-008
   7.6999999999999985E-003    -4.5927102121368080E-008
   7.8000000000000014E-003    -4.7319392848521602E-008
   7.9000000000000042E-003    -4.8294015897454301E-008
   8.0000000000000002E-003    -4.8921833695203532E-008
   8.1000000000000030E-003    -4.9195580942296147E-008
   8.1999999999999990E-003    -4.8974722943739835E-008
   8.3000000000000018E-003    -4.8140972097598933E-008
   8.4000000000000047E-003    -4.6734754732824513E-008
   8.5000000000000006E-003    -4.4701764068122429E-008
   8.6000000000000035E-003    -4.2050078974398275E-008
   8.6999999999999994E-003    -3.8967531423850232E-008
   8.8000000000000023E-003    -3.5363502348673137E-008
   8.8999999999999982E-003    -3.1110790388311216E-008
   9.0000000000000011E-003    -2.6397270147526797E-008
   9.1000000000000039E-003    -2.1185565302062059E-008
   9.1999999999999998E-003    -1.5422365606809763E-008
   9.3000000000000027E-003    -9.1847152106083740E-009
   9.3999999999999986E-003    -2.5560846772521018E-009
   9.5000000000000015E-003     4.8750239400874307E-009
   9.6000000000000044E-003     1.3345701432854185E-008
   9.7000000000000003E-003     2.2451791537037025E-008
   9.8000000000000032E-003     3.2129740645814309E-008
   9.8999999999999991E-003     4.2500751362695155E-008
   1.0000000000000002E-002     5.3448932391120252E-008
   1.0100000000000005E-002     6.4596896720559016E-008
   1.0200000000000001E-002     7.6250380232067982E-008
   1.0300000000000004E-002     8.8644831919282296E-008
   1.0400000000000000E-002     1.0111256187883555E-007
   1.0500000000000002E-002     1.1317664672105821E-007
   1.0599999999999998E-002     1.2480968791805935E-007
   1.0700000000000001E-002     1.3536791243495827E-007
   1.0800000000000004E-002     1.4431412864723825E-007
   1.0900000000000000E-002     1.5150806120800553E-007
   1.1000000000000003E-002     1.5641568040791753E-007
   1.1099999999999999E-002     1.5876143777404650E-007
   1.1200000000000002E-002     1.5812027243100601E-007
   1.1300000000000004E-002     1.5374256179256918E-007
   1.1400000000000000E-002     1.4575785201031977E-007
   1.1500000000000003E-002     1.3374223328810331E-007
   1.1599999999999999E-002     1.1758336881939613E-007
   1.1700000000000002E-002     9.8336180087699177E-008
   1.1800000000000005E-002     7.6176149832463125E-008
   1.1900000000000001E-002     5.0581199673160882E-008
   1.2000000000000004E-002     2.2001788835268599E-008
   1.2100000000000000E-002    -8.5641742586517466E-009
   1.2200000000000003E-002    -4.0382072796774082E-008
   1.2299999999999998E-002    -7.2623649316483352E-008
   1.2400000000000001E-002    -1.0457646482109340E-007
   1.2500000000000004E-002    -1.3516701358184946E-007
   1.2600000000000000E-002    -1.6327960850048839E-007
   1.2700000000000003E-002    -1.8835497428426606E-007
   1.2799999999999999E-002    -2.0951119950041175E-007
   1.2900000000000002E-002    -2.2668353949484299E-007
   1.3000000000000005E-002    -2.3829117878904071E-007
   1.3100000000000001E-002    -2.4263783870992484E-007
   1.3200000000000003E-002    -2.4202185500143969E-007
   1.3299999999999999E-002    -2.3745529631469253E-007
   1.3400000000000002E-002    -2.2813945577127015E-007
   1.3500000000000005E-002    -2.1306527742126491E-007
   1.3600000000000001E-002    -1.9297566211662343E-007
   1.3700000000000004E-002    -1.6922487588999502E-007
   1.3800000000000000E-002    -1.4227688893697632E-007
   1.3900000000000003E-002    -1.1304113201049404E-007
   1.3999999999999999E-002    -8.3981383625086892E-008
   1.4100000000000001E-002    -5.6915922641564975E-008
   1.4200000000000004E-002    -3.1229895114393003E-008
   1.4300000000000000E-002    -6.5607461685601720E-009
   1.4400000000000003E-002     1.6512625933273739E-008