  -4.0000000000000001E-002     0.0000000000000000
  -3.9899999999999998E-002     0.0000000000000000
  -3.9800000000000002E-002     0.0000000000000000
  -3.9699999999999999E-002     0.0000000000000000
  -3.9600000000000003E-002     0.0000000000000000
  -3.9500000000000000E-002     0.0000000000000000
  -3.9399999999999998E-002     0.0000000000000000
  -3.9300000000000002E-002     0.0000000000000000
  -3.9199999999999999E-002     0.0000000000000000
  -3.9100000000000003E-002     7.9760042360073132E-032
  -3.9000000000000000E-002     1.5196210743418967E-030
  -3.8900000000000004E-002     1.5226701562246528E-029
  -3.8800000000000001E-002     1.0670372911928217E-028
  -3.8699999999999998E-002     5.8688579120645441E-028
  -3.8600000000000002E-002     2.6964142038578880E-027
  -3.8500000000000000E-002     1.0757599097629741E-026
  -3.8400000000000004E-002     3.8260385608240832E-026
  -3.8300000000000001E-002     1.2361707997202616E-025
  -3.8199999999999998E-002     3.6798512335813589E-025
  -3.8100000000000002E-002     1.0203194987381642E-024
  -3.7999999999999999E-002     2.6579120061895497E-024
  -3.7900000000000003E-002     6.5503581968919635E-024
  -3.7800000000000000E-002     1.5359898063783837E-023
  -3.7699999999999997E-002     3.4432708817509686E-023
  -3.7600000000000001E-002     7.4087727314680404E-023
  -3.7499999999999999E-002     1.5352687244021393E-022
  -3.7400000000000003E-002     3.0728686905513878E-022
  -3.7300000000000000E-002     5.9553677004064132E-022
  -3.7200000000000004E-002     1.1199960870482639E-021
  -3.7100000000000001E-002     2.0477797143255693E-021
  -3.6999999999999998E-002     3.6460239242326475E-021
  -3.6900000000000002E-002     6.3306079061179549E-021
  -3.6799999999999999E-002     1.0732524660620618E-020
  -3.6700000000000003E-002     1.7785211966089782E-020
  -3.6600000000000001E-002     2.8835228579088712E-020
  -3.6499999999999998E-002     4.5776536990202543E-020
  -3.6400000000000002E-002     7.1204941437134916E-020
  -3.6299999999999999E-002     1.0858377928998573E-019
  -3.6200000000000003E-002     1.6240313554770915E-019
  -3.6100000000000000E-002     2.3830432382677999E-019
  -3.6000000000000004E-002     3.4312620201314819E-019
  -3.5900000000000001E-002     4.8481298686037889E-019
  -3.5799999999999998E-002     6.7210167019098688E-019
  -3.5700000000000003E-002     9.1388816590267369E-019
  -3.5600000000000000E-002     1.2181449441368020E-018
  -3.5500000000000004E-002     1.5902536936574300E-018
  -3.5400000000000001E-002     2.0305950209439088E-018
  -3.5299999999999998E-002     2.5312520837510698E-018
  -3.5200000000000002E-002     3.0717006699250942E-018
  -3.5099999999999999E-002     3.6134065706301992E-018
  -3.5000000000000003E-002     4.0933479289717353E-018
  -3.4900000000000000E-002     4.4165869513003070E-018
  -3.4799999999999998E-002     4.4482129612503532E-018
  -3.4700000000000002E-002     4.0052068716205349E-018
  -3.4599999999999999E-002     2.8490437081556735E-018
  -3.4500000000000003E-002     6.8023109785358147E-019
  -3.4400000000000000E-002    -2.8636941107797534E-018
  -3.4299999999999997E-002    -8.2047680999665292E-018
  -3.4200000000000001E-002    -1.5813443380747745E-017
  -3.4099999999999998E-002    -2.6187084009911988E-017
  -3.4000000000000002E-002    -3.9815227054496716E-017
  -3.3900000000000000E-002    -5.7128798872056329E-017
  -3.3799999999999997E-002    -7.8430486355419906E-017
  -3.3700000000000001E-002    -1.0380457590028415E-016
  -3.3599999999999998E-002    -1.3300484561679408E-016
  -3.3500000000000002E-002    -1.6532158777426899E-016
  -3.3399999999999999E-002    -1.9942993696408476E-016
  -3.3300000000000003E-002    -2.3322578393592289E-016
  -3.3200000000000000E-002    -2.6365729545060575E-016
  -3.3099999999999997E-002    -2.8656694263543361E-016
  -3.3000000000000002E-002    -2.9655872856970255E-016
  -3.2899999999999999E-002    -2.8691716428934366E-016
  -3.2800000000000003E-002    -2.4960075722114104E-016
  -3.2700000000000000E-002    -1.7534582565832961E-016
  -3.2600000000000004E-002    -5.3913673562515818E-017
  -3.2500000000000001E-002     1.2548169750262840E-016
  -3.2399999999999998E-002     3.7352763310485556E-016
  -3.2300000000000002E-002     6.9991401810718746E-016
  -3.2199999999999999E-002     1.1121586007887510E-015
  -3.2100000000000004E-002     1.6141369009903695E-015
  -3.2000000000000001E-002     2.2043219300663802E-015
  -3.1899999999999998E-002     2.8737564204786873E-015
  -3.1800000000000002E-002     3.6038147529918792E-015
  -3.1699999999999999E-002     4.3638332761241662E-015
  -3.1600000000000003E-002     5.1087542840045925E-015
  -3.1500000000000000E-002     5.7769319892814110E-015
  -3.1399999999999997E-002     6.2883421072298246E-015
  -3.1300000000000001E-002     6.5434540313827165E-015
  -3.1199999999999999E-002     6.4230618504576738E-015
  -3.1100000000000003E-002     5.7894363131652526E-015
  -3.1000000000000000E-002     4.4891742470435422E-015
  -3.0900000000000000E-002     2.3580810681243748E-015
  -3.0800000000000001E-002    -7.7146945566709943E-016
  -3.0699999999999998E-002    -5.0604975464500941E-015
  -3.0600000000000002E-002    -1.0650342404056132E-014
  -3.0499999999999999E-002    -1.7646506746626066E-014
  -3.0400000000000000E-002    -2.6099424609905310E-014
  -3.0300000000000001E-002    -3.5982454266603875E-014
  -3.0200000000000001E-002    -4.7167473513120076E-014
  -3.0100000000000002E-002    -5.9398998577837175E-014
  -2.9999999999999999E-002    -7.2267943040417448E-014
  -2.9899999999999999E-002    -8.5186313569535904E-014
  -2.9800000000000000E-002    -9.7365068481639061E-014
  -2.9700000000000001E-002    -1.0779689586706137E-013
  -2.9600000000000001E-002    -1.1524678780738817E-013
  -2.9499999999999998E-002    -1.1825334819432626E-013
  -2.9400000000000003E-002    -1.1514324649991581E-013
  -2.9300000000000000E-002    -1.0406267996832322E-013
  -2.9200000000000000E-002    -8.3028337894211490E-014
  -2.9100000000000001E-002    -5.0000510730483644E-014
  -2.8999999999999998E-002    -2.9812436309358372E-015
  -2.8900000000000002E-002     5.9862251061085919E-014
  -2.8799999999999999E-002     1.4004742461201647E-013
  -2.8700000000000000E-002     2.3860088709491689E-013
  -2.8600000000000000E-002     3.5586076728606753E-013
  -2.8500000000000001E-002     4.9125970218860671E-013
  -2.8400000000000002E-002     6.4309744595564267E-013
  -2.8299999999999999E-002     8.0831012456289431E-013
  -2.8200000000000003E-002     9.8224900435539553E-013
  -2.8100000000000000E-002     1.1584801043809656E-012
  -2.8000000000000001E-002     1.3286247102506366E-012
  -2.7900000000000001E-002     1.4822544233683566E-012
  -2.7799999999999998E-002     1.6068632969351571E-012
  -2.7700000000000002E-002     1.6879367912073229E-012
  -2.7600000000000000E-002     1.7091371720678872E-012
  -2.7500000000000000E-002     1.6526266032740322E-012
  -2.7400000000000001E-002     1.4995434364714622E-012
  -2.7299999999999998E-002     1.2306508893542012E-012
  -2.7200000000000002E-002     8.2715865407090305E-013
  -2.7099999999999999E-002     2.7172976867738396E-013
  -2.7000000000000000E-002    -4.5034004195025623E-013
  -2.6900000000000000E-002    -1.3497793377795220E-012
  -2.6800000000000001E-002    -2.4318615697571655E-012
  -2.6700000000000002E-002    -3.6948295985272939E-012
  -2.6599999999999999E-002    -5.1282762758564360E-012
  -2.6500000000000003E-002    -6.7115249989535553E-012
  -2.6400000000000000E-002    -8.4121225610300776E-012
  -2.6300000000000000E-002    -1.0184506016308603E-011
  -2.6200000000000001E-002    -1.1968939728213002E-011
  -2.6099999999999998E-002    -1.3690863547022314E-011
  -2.6000000000000002E-002    -1.5260719771204023E-011
  -2.5899999999999999E-002    -1.6574422390114307E-011
  -2.5800000000000000E-002    -1.7514545369579082E-011
  -2.5700000000000001E-002    -1.7952330594317445E-011
  -2.5599999999999998E-002    -1.7750644704106477E-011
  -2.5500000000000002E-002    -1.6767909977177808E-011
  -2.5399999999999999E-002    -1.4863036149059816E-011
  -2.5300000000000000E-002    -1.1901400871761059E-011
  -2.5200000000000000E-002    -7.7618024854619883E-012
  -2.5100000000000001E-002    -2.3442851392746489E-012
  -2.5000000000000001E-002     4.4212910242646952E-012
  -2.4899999999999999E-002     1.2566154714011013E-011
  -2.4800000000000003E-002     2.2073266825461957E-011
  -2.4700000000000000E-002     3.2868003457808825E-011
  -2.4600000000000000E-002     4.4809385368882459E-011
  -2.4500000000000001E-002     5.7682095211397666E-011
  -2.4399999999999998E-002     7.1189949768513117E-011
  -2.4299999999999999E-002     8.4951295997726106E-011
  -2.4199999999999999E-002     9.8496794054270254E-011
  -2.4100000000000000E-002     1.1127021526391445E-010
  -2.4000000000000000E-002     1.2263276505386500E-010
  -2.3900000000000001E-002     1.3187131941982955E-010
  -2.3800000000000002E-002     1.3821113697964904E-010
  -2.3699999999999999E-002     1.4083303967460381E-010
  -2.3599999999999999E-002     1.3889585315229880E-010
  -2.3500000000000000E-002     1.3156302436367895E-010
  -2.3400000000000001E-002     1.1803469313065307E-010
  -2.3300000000000001E-002     9.7583503777531888E-011
  -2.3199999999999998E-002     6.9594469076506016E-011
  -2.3099999999999999E-002     3.3607595872897633E-011
  -2.3000000000000000E-002    -1.0637784056410915E-011
  -2.2900000000000000E-002    -6.3157819252257497E-011
  -2.2800000000000001E-002    -1.2368038537768911E-010
  -2.2700000000000001E-002    -1.9160403819107330E-010
  -2.2599999999999999E-002    -2.6596141955437247E-010
  -2.2499999999999999E-002    -3.4539007764955443E-010
  -2.2400000000000000E-002    -4.2811157396904775E-010
  -2.2300000000000000E-002    -5.1192200478666905E-010
  -2.2200000000000001E-002    -5.9419624776069213E-010
  -2.2100000000000002E-002    -6.7190569774666642E-010
  -2.1999999999999999E-002    -7.4165545926874188E-010
  -2.1899999999999999E-002    -7.9973738742467049E-010
  -2.1800000000000000E-002    -8.4220308504967534E-010
  -2.1700000000000001E-002    -8.6495749451742654E-010
  -2.1600000000000001E-002    -8.6386980902020127E-010
  -2.1499999999999998E-002    -8.3490570013111665E-010
  -2.1399999999999999E-002    -7.7427353417647282E-010
  -2.1299999999999999E-002    -6.7858701990886061E-010
  -2.1200000000000000E-002    -5.4503929147742269E-010
  -2.1100000000000001E-002    -3.7158179311269635E-010
  -2.1000000000000001E-002    -1.5710875655994272E-010
  -2.0899999999999998E-002     9.8364719147703283E-011
  -2.0799999999999999E-002     3.9353145742104800E-010
  -2.0700000000000000E-002     7.2563949293780183E-010
  -2.0600000000000000E-002     1.0903619118707297E-009
  -2.0500000000000001E-002     1.4816988747057280E-009
  -2.0400000000000001E-002     1.8919152910967796E-009
  -2.0299999999999999E-002     2.3115263036999067E-009
  -2.0199999999999999E-002     2.7293352022894624E-009
  -2.0100000000000000E-002     3.1325273486260130E-009
  -2.0000000000000000E-002     3.5068250525682743E-009
  -1.9900000000000001E-002     3.8367149457485539E-009
  -1.9799999999999998E-002     4.1057353072915248E-009
  -1.9699999999999999E-002     4.2968344438065742E-009
  -1.9599999999999999E-002     4.3927985693414939E-009
  -1.9500000000000000E-002     4.3767305335506990E-009
  -1.9400000000000001E-002     4.2325942750665035E-009
  -1.9300000000000001E-002     3.9457983547208642E-009
  -1.9199999999999998E-002     3.5038127954578613E-009
  -1.9099999999999999E-002     2.8968087928404884E-009
  -1.9000000000000000E-002     2.1183039766725642E-009
  -1.8900000000000000E-002     1.1657830256694979E-009
  -1.8800000000000001E-002     4.1299498543256874E-011
  -1.8700000000000001E-002    -1.2479900446393799E-009
  -1.8599999999999998E-002    -2.6893616222878336E-009
  -1.8499999999999999E-002    -4.2641605801918558E-009
  -1.8400000000000000E-002    -5.9475575575618223E-009
  -1.8300000000000000E-002    -7.7084489902290443E-009
  -1.8200000000000001E-002    -9.5095078478379946E-009
  -1.8100000000000002E-002    -1.1307433211982243E-008
  -1.7999999999999999E-002    -1.3053358394188308E-008
  -1.7899999999999999E-002    -1.4693489980288632E-008
  -1.7800000000000000E-002    -1.6169940053600840E-008
  -1.7700000000000000E-002    -1.7421758258251430E-008
  -1.7600000000000001E-002    -1.8386190347996489E-008
  -1.7499999999999998E-002    -1.9000101048050055E-008
  -1.7399999999999999E-002    -1.9201600309770583E-008
  -1.7299999999999999E-002    -1.8931793022147758E-008
  -1.7200000000000000E-002    -1.8136695700832206E-008
  -1.7100000000000001E-002    -1.6769186927945157E-008
  -1.7000000000000001E-002    -1.4791056379692691E-008
  -1.6899999999999998E-002    -1.2175041419482113E-008
  -1.6799999999999999E-002    -8.9067908604079093E-009
  -1.6700000000000000E-002    -4.9867630025346443E-009
  -1.6600000000000000E-002    -4.3194017806946761E-010
  -1.6500000000000001E-002     4.7226786925591568E-009
  -1.6400000000000001E-002     1.0422848362168224E-008
  -1.6299999999999999E-002     1.6594219331977911E-008
  -1.6199999999999999E-002     2.3141861760223037E-008
  -1.6100000000000000E-002     2.9950196989148026E-008
  -1.6000000000000000E-002     3.6883541554288968E-008
  -1.5900000000000001E-002     4.3787061088096380E-008
  -1.5799999999999998E-002     5.0488402791870612E-008
  -1.5699999999999999E-002     5.6799834169396490E-008
  -1.5599999999999999E-002     6.2521102961454744E-008
  -1.5500000000000000E-002     6.7442790907534800E-008
  -1.5400000000000000E-002     7.1350306996009749E-008
  -1.5300000000000001E-002     7.4028442043072573E-008
  -1.5199999999999998E-002     7.5266427757014753E-008
  -1.5099999999999999E-002     7.4863443444428412E-008
  -1.4999999999999999E-002     7.2634506409485766E-008
  -1.4900000000000000E-002     6.8416554199757229E-008
  -1.4800000000000001E-002     6.2074818174551183E-008
  -1.4700000000000001E-002     5.3509094044557060E-008
  -1.4599999999999998E-002     4.2659973331637957E-008
  -1.4499999999999999E-002     2.9514779953387915E-008
  -1.4400000000000000E-002     1.4113079593869315E-008
  -1.4300000000000000E-002    -3.4484346489449536E-009
  -1.4200000000000001E-002    -2.3011860861288369E-008
  -1.4099999999999998E-002    -4.4354898420806421E-008
  -1.3999999999999999E-002    -6.7188921093475074E-008
  -1.3899999999999999E-002    -9.1158277371050644E-008
  -1.3800000000000000E-002    -1.1584095460648314E-007
  -1.3700000000000000E-002    -1.4075131105073524E-007
  -1.3600000000000001E-002    -1.6534379199129035E-007
  -1.3499999999999998E-002    -1.8901923226621875E-007
  -1.3399999999999999E-002    -2.1113261539085215E-007
  -1.3299999999999999E-002    -2.3100274404441734E-007
  -1.3200000000000000E-002    -2.4792413455543283E-007
  -1.3100000000000001E-002    -2.6118021878573927E-007
  -1.3000000000000001E-002    -2.7005890501641261E-007
  -1.2899999999999998E-002    -2.7386920464778086E-007
  -1.2799999999999999E-002    -2.7195929419576714E-007
  -1.2699999999999999E-002    -2.6373587047601177E-007
  -1.2600000000000000E-002    -2.4868398895705468E-007
  -1.2500000000000001E-002    -2.2638738528257818E-007
  -1.2399999999999998E-002    -1.9654864047424780E-007
  -1.2299999999999998E-002    -1.5900872085694573E-007
  -1.2199999999999999E-002    -1.1376572217614012E-007
  -1.2100000000000000E-002    -6.0991439454483043E-008
  -1.2000000000000000E-002    -1.0463104826996528E-009
  -1.1900000000000001E-002     6.5508892532761820E-008
  -1.1799999999999998E-002     1.3790437947136525E-007
  -1.1699999999999999E-002     2.1515728576559923E-007
  -1.1599999999999999E-002     2.9607090823446924E-007
  -1.1500000000000000E-002     3.7924010598544555E-007
  -1.1400000000000000E-002     4.6306121248562704E-007
  -1.1300000000000001E-002     5.4574798014073167E-007
  -1.1199999999999998E-002     6.2535315237255418E-007
  -1.1099999999999999E-002     6.9979665795472101E-007
  -1.0999999999999999E-002     7.6689809702656930E-007
  -1.0900000000000000E-002     8.2441738413763233E-007
  -1.0800000000000001E-002     8.7009846083674347E-007
  -1.0699999999999998E-002     9.0171937472405261E-007
  -1.0599999999999998E-002     9.1714503014372895E-007
  -1.0499999999999999E-002     9.1438607796590077E-007
  -1.0400000000000000E-002     8.9165564531867858E-007
  -1.0300000000000000E-002     8.4743192019232083E-007
  -1.0200000000000001E-002     7.8051755281194346E-007
  -1.0099999999999998E-002     6.9009740855108248E-007
  -9.9999999999999985E-003     5.7579546819397365E-007
  -9.8999999999999991E-003     4.3772402591457649E-007
  -9.7999999999999997E-003     2.7652856715576490E-007
  -9.7000000000000003E-003     9.3423508928935917E-008
  -9.6000000000000009E-003    -1.0978121167681820E-007
  -9.4999999999999980E-003    -3.3066473292819865E-007
  -9.3999999999999986E-003    -5.6619302313265507E-007
  -9.2999999999999992E-003    -8.1272906982121640E-007
  -9.1999999999999998E-003    -1.0660584166544140E-006
  -9.1000000000000004E-003    -1.3214308864917257E-006
  -9.0000000000000011E-003    -1.5736161458335118E-006
  -8.8999999999999982E-003    -1.8169754412156180E-006
  -8.7999999999999988E-003    -2.0455513549677562E-006
  -8.6999999999999994E-003    -2.2531685317517258E-006
  -8.5999999999999965E-003    -2.4335483885806752E-006
  -8.5000000000000006E-003    -2.5804388315009419E-006
  -8.3999999999999977E-003    -2.6877523850998841E-006
  -8.3000000000000018E-003    -2.7497096652950859E-006
  -8.1999999999999990E-003    -2.7609910375758773E-006
  -8.0999999999999961E-003    -2.7168896394869080E-006
  -8.0000000000000002E-003    -2.6134612198802643E-006
  -7.8999999999999973E-003    -2.4476721591781825E-006
  -7.8000000000000014E-003    -2.2175358935783152E-006
  -7.6999999999999985E-003    -1.9222406990593299E-006
  -7.6000000000000026E-003    -1.5622596265529864E-006
  -7.4999999999999997E-003    -1.1394403145459364E-006
  -7.3999999999999969E-003    -6.5707348539945087E-007
  -7.3000000000000009E-003    -1.1993927273579175E-007
  -7.1999999999999981E-003     4.6568439415750618E-007
  -7.1000000000000021E-003     1.0920334716502111E-006
  -6.9999999999999993E-003     1.7499085060990183E-006
  -6.8999999999999964E-003     2.4287564883707091E-006
  -6.8000000000000005E-003     3.1167867291514995E-006
  -6.6999999999999976E-003     3.8011185097275302E-006
  -6.6000000000000017E-003     4.4679659367830027E-006
  -6.4999999999999988E-003     5.1028487177973147E-006
  -6.3999999999999960E-003     5.6908338592620566E-006
  -6.3000000000000000E-003     6.2168001022655517E-006
  -6.1999999999999972E-003     6.6657248680712655E-006
  -6.1000000000000013E-003     7.0229884840955492E-006
  -5.9999999999999984E-003     7.2746861405903473E-006
  -5.9000000000000025E-003     7.4079512160096783E-006
  -5.7999999999999996E-003     7.4112690526817460E-006
  -5.6999999999999967E-003     7.2747948252072092E-006
  -5.6000000000000008E-003     6.9906482167425565E-006
  -5.4999999999999979E-003     6.5531939981156029E-006
  -5.4000000000000020E-003     5.9592985053313896E-006
  -5.2999999999999992E-003     5.2085447350691538E-006
  -5.1999999999999963E-003     4.3034228838223498E-006
  -5.1000000000000004E-003     3.2494604056410026E-006
  -4.9999999999999975E-003     2.0553247850330081E-006
  -4.9000000000000016E-003     7.3285065127492999E-007
  -4.7999999999999987E-003    -7.0296493959176587E-007
  -4.6999999999999958E-003    -2.2340450414048973E-006
  -4.5999999999999999E-003    -3.8393600334529765E-006
  -4.4999999999999971E-003    -5.4951233323663473E-006
  -4.4000000000000011E-003    -7.1750437200535089E-006
  -4.2999999999999983E-003    -8.8506340034655295E-006
  -4.2000000000000023E-003    -1.0491578905202914E-005
  -4.0999999999999995E-003    -1.2066143426636700E-005
  -3.9999999999999966E-003    -1.3541659427573904E-005
  -3.9000000000000007E-003    -1.4885005839460064E-005
  -3.7999999999999978E-003    -1.6063169823610224E-005
  -3.7000000000000019E-003    -1.7043812476913445E-005
  -3.5999999999999990E-003    -1.7795882740756497E-005
  -3.4999999999999962E-003    -1.8290189473191276E-005
  -3.4000000000000002E-003    -1.8500035366741940E-005
  -3.2999999999999974E-003    -1.8401844499749132E-005
  -3.2000000000000015E-003    -1.7975724404095672E-005
  -3.0999999999999986E-003    -1.7206053598783910E-005
  -2.9999999999999957E-003    -1.6082020010799170E-005
  -2.8999999999999998E-003    -1.4598111192754004E-005
  -2.7999999999999969E-003    -1.2754551789839752E-005
  -2.7000000000000010E-003    -1.0557697351032402E-005
  -2.5999999999999981E-003    -8.0203062680084258E-006
  -2.5000000000000022E-003    -5.1617957979033235E-006
  -2.3999999999999994E-003    -2.0083386971236905E-006
  -2.2999999999999965E-003     1.4070836868995684E-006
  -2.2000000000000006E-003     5.0447692956367973E-006
  -2.0999999999999977E-003     8.8584965851623565E-006
  -2.0000000000000018E-003     1.2795807379006874E-005
  -1.8999999999999989E-003     1.6798485376057215E-005
  -1.7999999999999960E-003     2.0803065126528963E-005
  -1.7000000000000001E-003     2.4741560991969891E-005
  -1.5999999999999973E-003     2.8542244763229974E-005
  -1.5000000000000013E-003     3.2130621548276395E-005
  -1.3999999999999985E-003     3.5430442949291319E-005
  -1.2999999999999956E-003     3.8364880310837179E-005
  -1.1999999999999997E-003     4.0857783460523933E-005
  -1.0999999999999968E-003     4.2835054046008736E-005
  -1.0000000000000009E-003     4.4226027966942638E-005
  -8.9999999999999802E-004     4.4964966946281493E-005
  -8.0000000000000210E-004     4.4992524635745212E-005
  -6.9999999999999923E-004     4.4257292756810784E-005
  -5.9999999999999637E-004     4.2717274482129142E-005
  -5.0000000000000044E-004     4.0341292333323509E-005
  -3.9999999999999758E-004     3.7110392440808937E-005
  -3.0000000000000165E-004     3.3019063266692683E-005
  -1.9999999999999879E-004     2.8076347007299773E-005
  -9.9999999999995925E-005     2.2306758182821795E-005
   0.0000000000000000          1.5751033060951158E-005
   1.0000000000000286E-004     8.4665807662531734E-006
   1.9999999999999879E-004     5.2770849379157880E-007
   3.0000000000000165E-004    -7.9744622780708596E-006
   4.0000000000000452E-004    -1.6932397556956857E-005
   5.0000000000000044E-004    -2.6222882297588512E-005
   6.0000000000000331E-004    -3.5708108043763787E-005
   6.9999999999999923E-004    -4.5237145968712866E-005
   8.0000000000000210E-004    -5.4647651268169284E-005
   8.9999999999999802E-004    -6.3768122345209122E-005
   1.0000000000000009E-003    -7.2420327342115343E-005
   1.1000000000000038E-003    -8.0422054452355951E-005
   1.1999999999999997E-003    -8.7590218754485250E-005
   1.3000000000000025E-003    -9.3744165496900678E-005
   1.3999999999999985E-003    -9.8709104349836707E-005
   1.5000000000000013E-003    -1.0231982741970569E-004
   1.6000000000000042E-003    -1.0442425264045596E-004
   1.7000000000000001E-003    -1.0488727275514975E-004
   1.8000000000000030E-003    -1.0359419684391469E-004
   1.8999999999999989E-003    -1.0045434464700520E-004
   2.0000000000000018E-003    -9.5404218882322311E-005
   2.1000000000000046E-003    -8.8410415628459305E-005
   2.2000000000000006E-003    -7.9472156357951462E-005
   2.3000000000000034E-003    -6.8623332481365651E-005
   2.3999999999999994E-003    -5.5934062402229756E-005
   2.5000000000000022E-003    -4.1511520976200700E-005
   2.5999999999999981E-003    -2.5500337869743817E-005
   2.7000000000000010E-003    -8.0820373113965616E-006
   2.8000000000000039E-003     1.0526093319640495E-005
   2.8999999999999998E-003     3.0072853405727074E-005
   3.0000000000000027E-003     5.0275935791432858E-005
   3.0999999999999986E-003     7.0825219154357910E-005
   3.2000000000000015E-003     9.1386944404803216E-005
   3.3000000000000043E-003     1.1160853318870068E-004
   3.4000000000000002E-003     1.3112391752656549E-004
   3.5000000000000031E-003     1.4955953520257026E-004
   3.5999999999999990E-003     1.6654074715916067E-004
   3.7000000000000019E-003     1.8169842951465398E-004
   3.7999999999999978E-003     1.9467597303446382E-004
   3.9000000000000007E-003     2.0513636991381645E-004
   4.0000000000000036E-003     2.1276915504131466E-004
   4.0999999999999995E-003     2.1729724539909512E-004
   4.2000000000000023E-003     2.1848343021702021E-004
   4.2999999999999983E-003     2.1613646822515875E-004
   4.4000000000000011E-003     2.1011661738157272E-004
   4.5000000000000040E-003     2.0034039334859699E-004
   4.5999999999999999E-003     1.8678445485420525E-004
   4.7000000000000028E-003     1.6948877600952983E-004
   4.7999999999999987E-003     1.4855853805784136E-004
   4.9000000000000016E-003     1.2416516256053001E-004
   5.0000000000000044E-003     9.6545962151139975E-005
   5.1000000000000004E-003     6.6003027313854545E-005
   5.2000000000000032E-003     3.2900279620662332E-005
   5.2999999999999992E-003    -2.3399488782160915E-006
   5.4000000000000020E-003    -3.9241964259417728E-005
   5.4999999999999979E-003    -7.7282616985030472E-005
   5.6000000000000008E-003    -1.1589823407121003E-004
   5.7000000000000037E-003    -1.5449261991307139E-004
   5.7999999999999996E-003    -1.9244561553932726E-004
   5.9000000000000025E-003    -2.2912246640771627E-004
   5.9999999999999984E-003    -2.6388373225927353E-004
   6.1000000000000013E-003    -2.9609556077048182E-004
   6.2000000000000041E-003    -3.2513993210159242E-004
   6.3000000000000000E-003    -3.5042528179474175E-004
   6.4000000000000029E-003    -3.7139691994525492E-004
   6.4999999999999988E-003    -3.8754675188101828E-004
   6.6000000000000017E-003    -3.9842328988015652E-004
   6.7000000000000046E-003    -4.0364026790484786E-004
   6.8000000000000005E-003    -4.0288479067385197E-004
   6.9000000000000034E-003    -3.9592469693161547E-004
   6.9999999999999993E-003    -3.8261487497948110E-004
   7.1000000000000021E-003    -3.6290206480771303E-004
   7.1999999999999981E-003    -3.3682887442409992E-004
   7.3000000000000009E-003    -3.0453602084890008E-004
   7.4000000000000038E-003    -2.6626372709870338E-004
   7.4999999999999997E-003    -2.2235114010982215E-004
   7.6000000000000026E-003    -1.7323478823527694E-004
   7.6999999999999985E-003    -1.1944525613216683E-004
   7.8000000000000014E-003    -6.1602586356457323E-005
   7.9000000000000042E-003    -4.1029261410585605E-007
   8.0000000000000002E-003     6.3352199504151940E-005
   8.1000000000000030E-003     1.2883785529993474E-004
   8.1999999999999990E-003     1.9514231826178730E-004
   8.3000000000000018E-003     2.6131435879506171E-004
   8.4000000000000047E-003     3.2636849209666252E-004
   8.5000000000000006E-003     3.8929731817916036E-004
   8.6000000000000035E-003     4.4908508425578475E-004
   8.6999999999999994E-003     5.0472217844799161E-004
   8.8000000000000023E-003     5.5521976901218295E-004
   8.8999999999999982E-003     5.9962441446259618E-004
   9.0000000000000011E-003     6.3703313935548067E-004
   9.1000000000000039E-003     6.6660868469625711E-004
   9.1999999999999998E-003     6.8759394343942404E-004
   9.3000000000000027E-003     6.9932604674249887E-004
   9.3999999999999986E-003     7.0124998455867171E-004
   9.5000000000000015E-003     6.9293129490688443E-004
   9.6000000000000044E-003     6.7406753078103065E-004
   9.7000000000000003E-003     6.4449862111359835E-004
   9.8000000000000032E-003     6.0421507805585861E-004
   9.8999999999999991E-003     5.5336573859676719E-004
   1.0000000000000002E-002     4.9226201372221112E-004
   1.0100000000000005E-002     4.2138149728998542E-004
   1.0200000000000001E-002     3.4136802423745394E-004
   1.0300000000000004E-002     2.5303012807853520E-004
   1.0400000000000000E-002     1.5733699547126889E-004
   1.0500000000000002E-002     5.5410902859875932E-005
   1.0599999999999998E-002    -5.1482162234606221E-005
   1.0700000000000001E-002    -1.6194451018236578E-004
   1.0800000000000004E-002    -2.7446268359199166E-004
   1.0900000000000000E-002    -3.8742466131225228E-004
   1.1000000000000003E-002    -4.9914000555872917E-004
   1.1099999999999999E-002    -6.0786283574998379E-004
   1.1200000000000002E-002    -7.1181671228259802E-004
   1.1300000000000004E-002    -8.0921978224068880E-004
   1.1400000000000000E-002    -8.9831469813361764E-004
   1.1500000000000003E-002    -9.7739626653492451E-004
   1.1599999999999999E-002    -1.0448421817272902E-003
   1.1700000000000002E-002    -1.0991421295329928E-003
   1.1800000000000005E-002    -1.1389284627512097E-003
   1.1900000000000001E-002    -1.1630040826275945E-003
   1.2000000000000004E-002    -1.1703700292855501E-003
   1.2100000000000000E-002    -1.1602517915889621E-003
   1.2200000000000003E-002    -1.1321213096380234E-003
   1.2299999999999998E-002    -1.0857169982045889E-003
   1.2400000000000001E-002    -1.0210595792159438E-003
   1.2500000000000004E-002    -9.3846482923254371E-004
   1.2600000000000000E-002    -8.3855126285925508E-004
   1.2700000000000003E-002    -7.2224176255986094E-004
   1.2799999999999999E-002    -5.9076183242723346E-004
   1.2900000000000002E-002    -4.4563159462995827E-004
   1.3000000000000005E-002    -2.8865152853541076E-004
   1.3100000000000001E-002    -1.2188464461360127E-004
   1.3200000000000003E-002     5.2368854085216299E-005
   1.3299999999999999E-002     2.3160109412856400E-004
   1.3400000000000002E-002     4.1313079418614507E-004
   1.3500000000000005E-002     5.9414264978840947E-004
   1.3600000000000001E-002     7.7173020690679550E-004
   1.3700000000000004E-002     9.4294274458661675E-004
   1.3800000000000000E-002     1.1048325104638934E-003
   1.3900000000000003E-002     1.2545073404908180E-003
   1.3999999999999999E-002     1.3891804264858365E-003
   1.4100000000000001E-002     1.5062227612361312E-003
   1.4200000000000004E-002     1.6032136045396328E-003
   1.4300000000000000E-002     1.6779873985797167E-003
   1.4400000000000003E-002     1.7286805668845773E-003
   1.4499999999999999E-002     1.7537733074277639E-003