  -8.0000000000000002E-002     0.0000000000000000
  -7.9579999999999998E-002     0.0000000000000000
  -7.9160000000000008E-002     0.0000000000000000
  -7.8740000000000004E-002     0.0000000000000000
  -7.8320000000000001E-002     0.0000000000000000
  -7.7899999999999997E-002     0.0000000000000000
  -7.7480000000000007E-002     0.0000000000000000
  -7.7060000000000003E-002     0.0000000000000000
  -7.6640000000000000E-002     0.0000000000000000
  -7.6219999999999996E-002     0.0000000000000000
  -7.5800000000000006E-002     0.0000000000000000
  -7.5380000000000003E-002    -6.3036582942669036E-035
  -7.4959999999999999E-002    -9.3076308961598225E-037
  -7.4539999999999995E-002     2.4366767916178773E-033
  -7.4120000000000005E-002     5.4532336677187787E-033
  -7.3700000000000002E-002    -3.1248751621589592E-032
  -7.3279999999999998E-002    -1.4627763456192445E-031
  -7.2860000000000008E-002     6.5604332375933047E-032
  -7.2440000000000004E-002     1.7727295840153498E-030
  -7.2020000000000001E-002     3.7382172407961845E-030
  -7.1599999999999997E-002    -5.6015665109884170E-030
  -7.1180000000000007E-002    -4.0999855254109753E-029
  -7.0760000000000003E-002    -5.9119231222855276E-029
  -7.0340000000000000E-002     1.1227520371350194E-028
  -6.9919999999999996E-002     5.8317352223954864E-028
  -6.9500000000000006E-002     7.0992275882331807E-028
  -6.9080000000000003E-002    -1.2824707899196393E-027
  -6.8659999999999999E-002    -5.9979149940006976E-027
  -6.8239999999999995E-002    -7.1763786411232057E-027
  -6.7820000000000005E-002     9.5633700599161353E-027
  -6.7400000000000002E-002     4.7821267560410486E-026
  -6.6979999999999998E-002     6.2258869194707207E-026
  -6.6560000000000008E-002    -4.4643934401529080E-026
  -6.6140000000000004E-002    -3.0315392765894672E-025
  -6.5720000000000001E-002    -4.5576134138282852E-025
  -6.5299999999999997E-002     6.5169728010791063E-026
  -6.4879999999999993E-002     1.5262690634339308E-024
  -6.4460000000000003E-002     2.7668819024606392E-024
  -6.4040000000000000E-002     9.3965089570110459E-025
  -6.3619999999999996E-002    -5.9133604070394687E-024
  -6.3200000000000006E-002    -1.3760600914490263E-023
  -6.2780000000000002E-002    -1.0391622625599976E-023
  -6.2359999999999999E-002     1.5724603997207605E-023
  -6.1940000000000002E-002     5.5144853883751622E-023
  -6.1520000000000005E-002     6.3906800553345457E-023
  -6.1100000000000002E-002    -1.2884042031462039E-023
  -6.0679999999999998E-002    -1.7125203246580607E-022
  -6.0260000000000001E-002    -2.8304453615050454E-022
  -5.9840000000000004E-002    -1.3575171994023318E-022
  -5.9420000000000001E-002     3.6542391139418117E-022
  -5.8999999999999997E-002     9.4414940142352020E-022
  -5.8580000000000000E-002     9.3723151806998927E-022
  -5.8160000000000003E-002    -2.3735040862503324E-022
  -5.7740000000000000E-002    -2.2826950041576550E-021
  -5.7319999999999996E-002    -3.5923356853678219E-021
  -5.6899999999999999E-002    -2.0071426785362351E-021
  -5.6480000000000002E-002     3.1810428050920316E-021
  -5.6059999999999999E-002     9.3047349278999227E-021
  -5.5640000000000002E-002     1.0648641836421659E-020
  -5.5220000000000005E-002     2.2240883166828481E-021
  -5.4800000000000001E-002    -1.4677514272101010E-020
  -5.4379999999999998E-002    -2.9638361518121173E-020
  -5.3960000000000001E-002    -2.7338534851410612E-020
  -5.3540000000000004E-002     1.2159551375229780E-021
  -5.3120000000000001E-002     4.7050047382558378E-020
  -5.2699999999999997E-002     8.1232612895623151E-020
  -5.2280000000000000E-002     6.8725896300285250E-020
  -5.1860000000000003E-002    -6.3554659219901932E-021
  -5.1440000000000000E-002    -1.1926629272986711E-019
  -5.1019999999999996E-002    -2.0458428408125354E-019
  -5.0599999999999999E-002    -1.8544776932224628E-019
  -5.0180000000000002E-002    -2.2184365352923657E-020
  -4.9759999999999999E-002     2.4491731641536894E-019
  -4.9340000000000002E-002     4.8722934966402826E-019
  -4.8920000000000005E-002     5.3045907565494781E-019
  -4.8500000000000001E-002     2.4233581364724883E-019
  -4.8079999999999998E-002    -3.6600163952847435E-019
  -4.7660000000000001E-002    -1.0753370007933522E-018
  -4.7239999999999997E-002    -1.4847479848536119E-018
  -4.6820000000000001E-002    -1.1619545494768190E-018
  -4.6399999999999997E-002     1.0272330911867011E-019
  -4.5980000000000000E-002     2.0359437418316384E-018
  -4.5560000000000003E-002     3.7774029654608875E-018
  -4.5140000000000000E-002     4.0946655008228499E-018
  -4.4720000000000003E-002     1.9655385078241595E-018
  -4.4299999999999999E-002    -2.6417202662999996E-018
  -4.3880000000000002E-002    -8.1916790232895162E-018
  -4.3459999999999999E-002    -1.1698998851775844E-017
  -4.3040000000000002E-002    -9.8377924278766014E-018
  -4.2619999999999998E-002    -8.5201986981552505E-019
  -4.2200000000000001E-002     1.3532555031110627E-017
  -4.1779999999999998E-002     2.7385754807464078E-017
  -4.1360000000000001E-002     3.2061003978806660E-017
  -4.0939999999999997E-002     2.0044936066081918E-017
  -4.0520000000000000E-002    -1.0024910070769677E-017
  -4.0099999999999997E-002    -4.9591228619349963E-017
  -3.9680000000000000E-002    -8.0417659323168780E-017
  -3.9260000000000003E-002    -8.0508924236789903E-017
  -3.8840000000000000E-002    -3.4881216877981175E-017
  -3.8420000000000003E-002     5.2736767020917011E-017
  -3.7999999999999999E-002     1.5340572616781651E-016
  -3.7580000000000002E-002     2.1756671697986171E-016
  -3.7159999999999999E-002     1.9301231478701444E-016
  -3.6740000000000002E-002     5.2171805278703739E-017
  -3.6319999999999998E-002    -1.8213735437520712E-016
  -3.5900000000000001E-002    -4.2702277862569354E-016
  -3.5479999999999998E-002    -5.5776054153016969E-016
  -3.5060000000000001E-002    -4.5574324621451151E-016
  -3.4639999999999997E-002    -7.2901763496662696E-017
  -3.4220000000000000E-002     5.1445020598191624E-016
  -3.3799999999999997E-002     1.0943038774582140E-015
  -3.3380000000000000E-002     1.3722897671676169E-015
  -3.2960000000000003E-002     1.0869871145022430E-015
  -3.2539999999999999E-002     1.5224071524132629E-016
  -3.2120000000000003E-002    -1.2344867669972223E-015
  -3.1699999999999999E-002    -2.5831804582509315E-015
  -3.1280000000000002E-002    -3.2407785825070457E-015
  -3.0859999999999999E-002    -2.6437370819171887E-015
  -3.0440000000000002E-002    -6.1362644321948564E-016
  -3.0019999999999998E-002     2.4307904588699308E-015
  -2.9600000000000001E-002     5.4716725675849824E-015
  -2.9179999999999998E-002     7.1664506524469481E-015
  -2.8760000000000001E-002     6.3538428800887967E-015
  -2.8339999999999997E-002     2.6245924066185689E-015
  -2.7920000000000000E-002    -3.2887936262098934E-015
  -2.7499999999999997E-002    -9.5335793583603391E-015
  -2.7080000000000000E-002    -1.3670175720293092E-014
  -2.6659999999999996E-002    -1.3603112330765643E-014
  -2.6239999999999999E-002    -8.5743991082228983E-015
  -2.5820000000000003E-002     2.3788172423409551E-016
  -2.5399999999999999E-002     9.9072093628999217E-015
  -2.4980000000000002E-002     1.6846047123497157E-014
  -2.4559999999999998E-002     1.8486938564093438E-014
  -2.4140000000000002E-002     1.4850758524503850E-014
  -2.3719999999999998E-002     9.1170652831046549E-015
  -2.3300000000000001E-002     6.5176335813270600E-015
  -2.2879999999999998E-002     1.1497987229720732E-014
  -2.2460000000000001E-002     2.3981502651678836E-014
  -2.2039999999999997E-002     3.6398885316211190E-014
  -2.1620000000000000E-002     3.3499236237962228E-014
  -2.1199999999999997E-002    -3.5043189577399962E-015
  -2.0780000000000000E-002    -8.8284103552056073E-014
  -2.0359999999999996E-002    -2.1811272136627859E-013
  -1.9939999999999999E-002    -3.6388172142800939E-013
  -1.9519999999999996E-002    -4.6660151127346232E-013
  -1.9099999999999999E-002    -4.4516102712621827E-013
  -1.8680000000000002E-002    -2.1765512581507746E-013
  -1.8259999999999998E-002     2.6573538675798875E-013
  -1.7840000000000002E-002     9.8551522140964304E-013
  -1.7420000000000005E-002     1.8229722480614117E-012
  -1.7000000000000001E-002     2.5512323018121875E-012
  -1.6579999999999998E-002     2.8589325463246141E-012
  -1.6159999999999994E-002     2.4117679576416617E-012
  -1.5740000000000004E-002     9.4712627876079715E-013
  -1.5320000000000000E-002    -1.6145017432739693E-012
  -1.4899999999999997E-002    -5.0676841026360089E-012
  -1.4479999999999993E-002    -8.8614907277804990E-012
  -1.4060000000000003E-002    -1.2110113789711570E-011
  -1.3639999999999999E-002    -1.3694604468867614E-011
  -1.3219999999999996E-002    -1.2458553885352036E-011
  -1.2799999999999992E-002    -7.4789916986101451E-012
  -1.2380000000000002E-002     1.6280604551015204E-012
  -1.1959999999999998E-002     1.4425457197218337E-011
  -1.1539999999999995E-002     2.9463547438032537E-011
  -1.1120000000000005E-002     4.4244993575605908E-011
  -1.0700000000000001E-002     5.5397103373544172E-011
  -1.0279999999999997E-002     5.9076953484638448E-011
  -9.8599999999999938E-003     5.1598717134549351E-011
  -9.4400000000000039E-003     3.0229805672894942E-011
  -9.0200000000000002E-003    -5.9428513866376079E-012
  -8.5999999999999965E-003    -5.5216673657709021E-011
  -8.1799999999999928E-003    -1.1271801832261464E-010
  -7.7600000000000030E-003    -1.7026796875544181E-010
  -7.3399999999999993E-003    -2.1683014879003193E-010
  -6.9199999999999956E-003    -2.3964377393140618E-010
  -6.4999999999999919E-003    -2.2604720638311830E-010
  -6.0800000000000021E-003    -1.6586530695376960E-010
  -5.6599999999999984E-003    -5.4082269304007442E-011
  -5.2399999999999947E-003     1.0662000621734864E-010
  -4.8200000000000048E-003     3.0398063625109372E-010
  -4.4000000000000011E-003     5.1548037623121923E-010
  -3.9799999999999974E-003     7.0932549909070670E-010
  -3.5599999999999937E-003     8.4735750554966659E-010
  -3.1400000000000039E-003     8.8984863151810460E-010
  -2.7200000000000002E-003     8.0177957294754587E-010
  -2.2999999999999965E-003     5.5983016794908369E-010
  -1.8799999999999928E-003     1.5902549951440140E-010
  -1.4600000000000030E-003    -3.8215900528130843E-010
  -1.0399999999999993E-003    -1.0193718425073088E-009
  -6.1999999999999555E-004    -1.6835064339370484E-009
  -1.9999999999999185E-004    -2.2857729198971052E-009
   2.1999999999999797E-004    -2.7265480738324954E-009
   6.4000000000000168E-004    -2.9072259773466738E-009
   1.0600000000000054E-003    -2.7437702623331331E-009
   1.4799999999999952E-003    -2.1803163236222122E-009
   1.8999999999999989E-003    -1.2010500032838106E-009
   2.3200000000000026E-003     1.6129508336745145E-010
   2.7400000000000063E-003     1.8216512681725832E-009
   3.1599999999999961E-003     3.6443907828997625E-009
   3.5799999999999998E-003     5.4509475472584481E-009
   4.0000000000000036E-003     7.0330176343363440E-009
   4.4200000000000073E-003     8.1705324796120451E-009
   4.8399999999999971E-003     8.6531201072021723E-009
   5.2600000000000008E-003     8.3033857112412576E-009
   5.6800000000000045E-003     6.9999904383286396E-009
   6.1000000000000082E-003     4.6982748868428363E-009
   6.5199999999999980E-003     1.4460704208723812E-009
   6.9400000000000017E-003    -2.6075725806500860E-009
   7.3600000000000054E-003    -7.2126117749587151E-009
   7.7799999999999953E-003    -1.2028348793842513E-008
   8.1999999999999990E-003    -1.6644030238562885E-008
   8.6200000000000027E-003    -2.0608573729570566E-008
   9.0400000000000064E-003    -2.3466980183468588E-008
   9.4599999999999962E-003    -2.4799915835709490E-008
   9.8799999999999999E-003    -2.4262241954582358E-008
   1.0300000000000004E-002    -2.1616299099079577E-008
   1.0720000000000007E-002    -1.6756502101903221E-008
   1.1139999999999997E-002    -9.7231614887567665E-009
   1.1560000000000001E-002    -7.0531499222134165E-010
   1.1980000000000005E-002     9.9658521255126329E-009
   1.2400000000000008E-002     2.1830029362131609E-008
   1.2819999999999998E-002     3.4313676721751065E-008
   1.3240000000000002E-002     4.6745628689716417E-008
   1.3660000000000005E-002     5.8370615250945462E-008
   1.4079999999999995E-002     6.8361159608275714E-008
   1.4499999999999999E-002     7.5830722096504565E-008
   1.4920000000000003E-002     7.9852770666072213E-008
   1.5340000000000006E-002     7.9491406916878990E-008
   1.5759999999999996E-002     7.3848778749237690E-008
   1.6180000000000000E-002     6.2132285076363122E-008
   1.6600000000000004E-002     4.3741516298907088E-008
   1.7020000000000007E-002     1.8370618098870742E-008
   1.7439999999999997E-002    -1.3882733033872537E-008
   1.7860000000000001E-002    -5.2413377295890081E-008
   1.8280000000000005E-002    -9.6024111939538493E-008
   1.8700000000000008E-002    -1.4287494287218481E-007
   1.9119999999999998E-002    -1.9047837961738711E-007
   1.9540000000000002E-002    -2.3575006123769837E-007
   1.9960000000000006E-002    -2.7511916797181539E-007
   2.0380000000000009E-002    -3.0469869356122666E-007
   2.0799999999999999E-002    -3.2050943445540844E-007
   2.1220000000000003E-002    -3.1874651449372918E-007
   2.1640000000000006E-002    -2.9607377419267200E-007
   2.2059999999999996E-002    -2.4992772069976066E-007
   2.2480000000000000E-002    -1.7881058541804221E-007
   2.2900000000000004E-002    -8.2552529151793291E-008
   2.3320000000000007E-002     3.7477720550991283E-008
   2.3739999999999997E-002     1.7823208207756925E-007
   2.4160000000000001E-002     3.3492553814940810E-007
   2.4580000000000005E-002     5.0106900162321778E-007
   2.5000000000000008E-002     6.6859224164348962E-007
   2.5419999999999998E-002     8.2804773299933782E-007
   2.5840000000000002E-002     9.6888051567448884E-007
   2.6260000000000006E-002     1.0797431977508900E-006
   2.6680000000000009E-002     1.1488335632148880E-006
   2.7099999999999999E-002     1.1642307263047697E-006
   2.7520000000000003E-002     1.1142130989267336E-006
   2.7940000000000006E-002     9.8754814720724030E-007
   2.8359999999999996E-002     7.7374851842117350E-007
   2.8780000000000000E-002     4.6329882091655729E-007
   2.9200000000000004E-002     4.7860714116555687E-008
   2.9620000000000007E-002    -4.7953623841896693E-007
   3.0039999999999997E-002    -1.1243167581576527E-006
   3.0460000000000001E-002    -1.8902114178359215E-006
   3.0880000000000005E-002    -2.7791603747210093E-006
   3.1300000000000008E-002    -3.7913139215443220E-006
   3.1719999999999998E-002    -4.9251623920686696E-006
   3.2140000000000002E-002    -6.1778279712754986E-006
   3.2560000000000006E-002    -7.5455472899974422E-006
   3.2980000000000009E-002    -9.0243512438202470E-006
   3.3399999999999999E-002    -1.0610933740694116E-005
   3.3820000000000003E-002    -1.2303675139063264E-005
   3.4240000000000007E-002    -1.4103751364743197E-005
   3.4659999999999996E-002    -1.6016239557245972E-005
   3.5080000000000000E-002    -1.8051119673879825E-005
   3.5500000000000004E-002    -2.0224138532566001E-005
   3.5920000000000007E-002    -2.2557459885942788E-005
   3.6339999999999997E-002    -2.5080151324262610E-005
   3.6760000000000001E-002    -2.7828458013368892E-005
   3.7180000000000005E-002    -3.0845872886053626E-005
   3.7600000000000008E-002    -3.4183099186403375E-005
   3.8019999999999998E-002    -3.7897929147436325E-005
   3.8440000000000002E-002    -4.2055127674839291E-005
   3.8860000000000006E-002    -4.6726435913964287E-005
   3.9280000000000009E-002    -5.1990596510485438E-005
   3.9699999999999999E-002    -5.7933539644945005E-005
   4.0120000000000003E-002    -6.4648623932840460E-005
   4.0540000000000007E-002    -7.2236757782585085E-005
   4.0960000000000010E-002    -8.0806731855735653E-005
   4.1380000000000000E-002    -9.0475628132035836E-005
   4.1800000000000004E-002    -1.0136910625664882E-004
   4.2220000000000008E-002    -1.1362161234455745E-004
   4.2639999999999997E-002    -1.2737684013529416E-004
   4.3060000000000001E-002    -1.4278819500406444E-004
   4.3480000000000005E-002    -1.6001927383250440E-004
   4.3900000000000008E-002    -1.7924430060783911E-004
   4.4319999999999998E-002    -2.0064874795279288E-004
   4.4740000000000002E-002    -2.2443002499726591E-004
   4.5159999999999992E-002    -2.5079855257915159E-004
   4.5579999999999996E-002    -2.7997943820453984E-004
   4.5999999999999999E-002    -3.1221369133276148E-004
   4.6420000000000003E-002    -3.4775899524366373E-004
   4.6840000000000007E-002    -3.8689052242168472E-004
   4.7260000000000010E-002    -4.2990258067946124E-004
   4.7680000000000014E-002    -4.7711096240829541E-004
   4.8099999999999990E-002    -5.2885499655233072E-004
   4.8519999999999994E-002    -5.8549787397731352E-004
   4.8939999999999997E-002    -6.4742701707158862E-004
   4.9360000000000001E-002    -7.1505441520480014E-004
   4.9780000000000005E-002    -7.8881791273239729E-004
   5.0200000000000009E-002    -8.6918335980439227E-004
   5.0620000000000012E-002    -9.5664457224608514E-004
   5.1040000000000016E-002    -1.0517239040330466E-003
   5.1459999999999992E-002    -1.1549718968335535E-003
   5.1879999999999996E-002    -1.2669665170978353E-003
   5.2299999999999999E-002    -1.3883163880927375E-003
   5.2720000000000003E-002    -1.5196635617151185E-003
   5.3140000000000007E-002    -1.6616821884202100E-003
   5.3560000000000010E-002    -1.8150787727549830E-003
   5.3980000000000014E-002    -1.9805908861499099E-003
   5.4400000000000018E-002    -2.1589853193062923E-003
   5.4819999999999994E-002    -2.3510638506101852E-003
   5.5239999999999997E-002    -2.5576595022122370E-003
   5.5660000000000001E-002    -2.7796262040908834E-003
   5.6080000000000005E-002    -3.0178359850253581E-003
   5.6500000000000009E-002    -3.2731736576032478E-003
   5.6920000000000012E-002    -3.5465335848886667E-003
   5.7340000000000016E-002    -3.8388243159807071E-003
   5.7759999999999992E-002    -4.1509575461358616E-003
   5.8179999999999996E-002    -4.4838300140424316E-003
   5.8599999999999999E-002    -4.8383169699398381E-003
   5.9020000000000003E-002    -5.2152664937408976E-003
   5.9440000000000007E-002    -5.6155007834436691E-003
   5.9860000000000010E-002    -6.0398169531437921E-003
   6.0280000000000014E-002    -6.4889652703460426E-003
   6.0700000000000018E-002    -6.9636328679257018E-003
   6.1119999999999994E-002    -7.4644315111315968E-003
   6.1539999999999997E-002    -7.9918802948930456E-003
   6.1960000000000001E-002    -8.5464126382053824E-003
   6.2380000000000005E-002    -9.1283774317364383E-003
   6.2800000000000009E-002    -9.7380236281520930E-003
   6.3220000000000012E-002    -1.0375471634654732E-002
   6.3640000000000016E-002    -1.1040688924750143E-002
   6.4059999999999992E-002    -1.1733493220770972E-002
   6.4479999999999996E-002    -1.2453563157763439E-002
   6.4899999999999999E-002    -1.3200419954424411E-002
   6.5320000000000003E-002    -1.3973384971094766E-002
   6.5740000000000007E-002    -1.4771560887496836E-002
   6.6160000000000010E-002    -1.5593833026864550E-002
   6.6580000000000014E-002    -1.6438900376722413E-002
   6.7000000000000018E-002    -1.7305251811537168E-002
   6.7419999999999994E-002    -1.8191094695314106E-002
   6.7839999999999998E-002    -1.9094328348064731E-002
   6.8260000000000001E-002    -2.0012562328338829E-002
   6.8680000000000005E-002    -2.0943148886586334E-002
   6.9100000000000009E-002    -2.1883125970339479E-002
   6.9520000000000012E-002    -2.2829183928832510E-002
   6.9940000000000016E-002    -2.3777667876343681E-002
   7.0359999999999992E-002    -2.4724568051391341E-002
   7.0779999999999996E-002    -2.5665517557591222E-002
   7.1199999999999999E-002    -2.6595749015657880E-002
   7.1620000000000003E-002    -2.7510110778953288E-002
   7.2040000000000007E-002    -2.8403057669889004E-002
   7.2460000000000011E-002    -2.9268684812102767E-002
   7.2880000000000014E-002    -3.0100750429561056E-002
   7.3300000000000018E-002    -3.0892557080252778E-002
   7.3719999999999994E-002    -3.1636970956111267E-002
   7.4139999999999998E-002    -3.2326517720126589E-002
   7.4560000000000001E-002    -3.2953429130041532E-002
   7.4980000000000005E-002    -3.3509603061539592E-002
   7.5400000000000009E-002    -3.3986628506437730E-002
   7.5820000000000012E-002    -3.4375761173957263E-002
   7.6240000000000016E-002    -3.4667921734953956E-002
   7.6659999999999992E-002    -3.4853871348242665E-002
   7.7079999999999996E-002    -3.4924226586971099E-002
   7.7499999999999999E-002    -3.4869422796149255E-002
   7.7920000000000003E-002    -3.4679734519661838E-002
   7.8340000000000007E-002    -3.4345317011084966E-002
   7.8760000000000011E-002    -3.3856436716686297E-002
   7.9180000000000014E-002    -3.3203501954391125E-002
   7.9600000000000018E-002    -3.2376939567645785E-002
   8.0019999999999994E-002    -3.1367275380596783E-002
   8.0439999999999998E-002    -3.0165192615631171E-002
   8.0860000000000001E-002    -2.8761664547892564E-002
   8.1280000000000005E-002    -2.7148182896879678E-002
   8.1700000000000009E-002    -2.5316702070438249E-002
   8.2120000000000012E-002    -2.3259460908583999E-002
   8.2540000000000016E-002    -2.0969230188640487E-002
   8.2959999999999992E-002    -1.8439525782486258E-002
   8.3379999999999996E-002    -1.5664754664244149E-002
   8.3799999999999999E-002    -1.2640318653776288E-002
   8.4220000000000003E-002    -9.3623936790934534E-003
   8.4640000000000007E-002    -5.8279147045189727E-003
   8.5060000000000011E-002    -2.0346628547036867E-003
   8.5480000000000014E-002     2.0184249138498842E-003
   8.5900000000000018E-002     6.3309653462766749E-003
   8.6319999999999994E-002     1.0901096275486473E-002
   8.6739999999999998E-002     1.5725540336019247E-002
   8.7160000000000001E-002     2.0799880786422940E-002
   8.7580000000000005E-002     2.6118411612996138E-002
   8.8000000000000009E-002     3.1673825645424349E-002
   8.8420000000000012E-002     3.7456883982867464E-002
   8.8840000000000016E-002     4.3456629927743004E-002
   8.9259999999999992E-002     4.9660705075336729E-002
   8.9679999999999996E-002     5.6055271995657324E-002
   9.0100000000000000E-002     6.2625074512020554E-002
   9.0520000000000003E-002     6.9353124646165068E-002
   9.0940000000000007E-002     7.6220471034929377E-002
   9.1360000000000011E-002     8.3206215106609208E-002
   9.1780000000000014E-002     9.0287630660611198E-002
   9.2200000000000018E-002     9.7440448195791007E-002
   9.2619999999999994E-002    0.10463917643157752
   9.3039999999999998E-002    0.11185698906013893
   9.3460000000000001E-002    0.11906549907149822
   9.3880000000000005E-002    0.12623474900521758
   9.4300000000000009E-002    0.13333332881169291
   9.4720000000000013E-002    0.14032881317405321
   9.5140000000000016E-002    0.14718821002393009
   9.5559999999999992E-002    0.15387776607944442
   9.5979999999999996E-002    0.16036262685526709
   9.6400000000000000E-002    0.16660674339926118
   9.6820000000000003E-002    0.17257310850578297
   9.7240000000000007E-002    0.17822441801662606
   9.7660000000000011E-002    0.18352381221557065
   9.8080000000000014E-002    0.18843494245034317
   9.8500000000000018E-002    0.19292179249046310
   9.8919999999999994E-002    0.19694838206138868
   9.9339999999999998E-002    0.20047875552143885
   9.9760000000000001E-002    0.20347775176201324
  0.10018000000000001         0.20591151785929213
  0.10060000000000001         0.20774777736319780
  0.10102000000000001         0.20895569843976997
  0.10144000000000002         0.20950540312972485
  0.10185999999999999         0.20936845207302887
  0.10228000000000000         0.20851852204802665
  0.10270000000000000         0.20693189599860515
  0.10312000000000000         0.20458787150056768
  0.10354000000000001         0.20146811961440661
  0.10396000000000001         0.19755705765138176
  0.10438000000000001         0.19284210523811882
  0.10480000000000002         0.18731343616353172
  0.10521999999999999         0.18096404002934391
  0.10564000000000000         0.17379049464738586
  0.10606000000000000         0.16579385003601785
  0.10648000000000001         0.15697900500902051
  0.10690000000000001         0.14735401618900032
  0.10732000000000001         0.13692984307451547
  0.10774000000000002         0.12572061228102321
  0.10815999999999999         0.11374467583314832
  0.10858000000000000         0.10102569061488693
  0.10900000000000000          8.7591815071426618E-002
  0.10942000000000000          7.3474610564567139E-002
  0.10984000000000001          5.8708802678645186E-002
  0.11026000000000001          4.3332255188331233E-002
  0.11068000000000001          2.7386348719460118E-002
  0.11110000000000002          1.0916520877432372E-002
  0.11151999999999999         -6.0273122580780407E-003
  0.11194000000000000         -2.3391871012612798E-002
  0.11236000000000000         -4.1122596286769168E-002
  0.11278000000000001         -5.9162767534735643E-002
  0.11320000000000001         -7.7452065649940935E-002
  0.11362000000000001         -9.5926552724924757E-002
  0.11404000000000002        -0.11451864763868566
  0.11446000000000002        -0.13315906905271777
  0.11488000000000000        -0.15177864580404757
  0.11530000000000000        -0.17030743565388631
  0.11572000000000000        -0.18867410763408210
  0.11614000000000001        -0.20680533725723529
  0.11656000000000001        -0.22462573413024203
  0.11698000000000001        -0.24206052902653236
  0.11740000000000002        -0.25903708504188633
  0.11781999999999999        -0.27548450600652008
  0.11824000000000000        -0.29133218971420044
  0.11866000000000000        -0.30650886866475757
  0.11908000000000001        -0.32094336418629238
  0.11950000000000001        -0.33456673956944860
  0.11992000000000001        -0.34731425637514457
  0.12034000000000002        -0.35912536466351502
  0.12076000000000002        -0.36994236969337052
  0.12118000000000000        -0.37970914296702130
  0.12160000000000000        -0.38837180192479021
  0.12202000000000000        -0.39588038950874538
  0.12244000000000001        -0.40219076615521415
  0.12286000000000001        -0.40726537413650415
  0.12328000000000001        -0.41107175009521085
  0.12370000000000002        -0.41358090839084810
  0.12411999999999999        -0.41476682984634911
  0.12454000000000000        -0.41460852918158148
  0.12496000000000000        -0.41309241305647276
  0.12537999999999999        -0.41021235300516889
  0.12580000000000002        -0.40596870453898798
  0.12622000000000000        -0.40036684192908661
  0.12664000000000003        -0.39341595540100183
  0.12706000000000001        -0.38512979407886361
  0.12747999999999998        -0.37552942542833145
  0.12790000000000001        -0.36464401395360807
  0.12831999999999999        -0.35250937782781600
  0.12874000000000002        -0.33916669469324628
  0.12916000000000000        -0.32466170309821413
  0.12958000000000003        -0.30904387297320568
  0.13000000000000000        -0.29236731910304281
  0.13041999999999998        -0.27469271256591477
  0.13084000000000001        -0.25608708891065440
  0.13125999999999999        -0.23662272252745245
  0.13168000000000002        -0.21637494333097407
  0.13210000000000000        -0.19542017749781260
  0.13252000000000003        -0.17383667090935009
  0.13294000000000000        -0.15170667797734830
  0.13336000000000003        -0.12911739702936711
  0.13378000000000001        -0.10616051781667202
  0.13419999999999999         -8.2929184642696538E-002
  0.13462000000000002         -5.9514716594704434E-002
  0.13503999999999999         -3.6006626485776551E-002
  0.13546000000000002         -1.2494634415791668E-002
  0.13588000000000000          1.0928285337421347E-002
  0.13630000000000003          3.4166916039861495E-002
  0.13672000000000001          5.7128170493544017E-002
  0.13713999999999998          7.9723675900646940E-002
  0.13756000000000002         0.10187079151117870
  0.13797999999999999         0.12348876692909234
  0.13840000000000002         0.14449575057968775
  0.13882000000000000         0.16481053853457517
  0.13924000000000003         0.18435600935866886
  0.13966000000000001         0.20306226601754862
  0.14007999999999998         0.22086649946274844
  0.14050000000000001         0.23771019890148523
  0.14091999999999999         0.25353700036748195
  0.14134000000000002         0.26829338114338380
  0.14176000000000000         0.28193171947425960
  0.14218000000000003         0.29441290409717918
  0.14260000000000000         0.30570629251475828
  0.14301999999999998         0.31578779581104777
  0.14344000000000001         0.32463656848926731
  0.14385999999999999         0.33223488274935009
  0.14428000000000002         0.33857092417644102
  0.14470000000000000         0.34364097359713680
  0.14512000000000003         0.34744958132254561
  0.14554000000000000         0.35000713770083092
  0.14596000000000003         0.35132788077702343
  0.14638000000000001         0.35142969871213103
  0.14679999999999999         0.35033590503457296
  0.14722000000000002         0.34807676006894472
  0.14763999999999999         0.34468917843761032
  0.14806000000000002         0.34021514491397742
  0.14848000000000000         0.33469965420837922
  0.14890000000000003         0.32818990471559073
  0.14932000000000001         0.32073589647639661
  0.14973999999999998         0.31239141766246664
  0.15016000000000002         0.30321449351378194
  0.15057999999999999         0.29326640581174424
  0.15100000000000002         0.28260990695830424
  0.15142000000000000         0.27130846189024904
  0.15184000000000003         0.25942656605781078
  0.15226000000000001         0.24703005237001799
  0.15267999999999998         0.23418590215323931
  0.15310000000000001         0.22096176943686757
  0.15351999999999999         0.20742509861883909
  0.15394000000000002         0.19364245135227851