  -4.0000000000000001E-002     0.0000000000000000
  -3.9899999999999998E-002     0.0000000000000000
  -3.9800000000000002E-002     0.0000000000000000
  -3.9699999999999999E-002    -1.3395876630184489E-009
  -3.9600000000000003E-002    -9.2780902960498679E-009
  -3.9500000000000000E-002    -3.6534565595047752E-008
  -3.9399999999999998E-002    -1.0734260769140747E-007
  -3.9300000000000002E-002    -2.6144243747694418E-007
  -3.9199999999999999E-002    -5.5734324178047245E-007
  -3.9100000000000003E-002    -1.0741528058133554E-006
  -3.9000000000000000E-002    -1.9112994777970016E-006
  -3.8900000000000004E-002    -3.1855490760790417E-006
  -3.8800000000000001E-002    -5.0248927436769009E-006
  -3.8699999999999998E-002    -7.5590410233417060E-006
  -3.8600000000000002E-002    -1.0906600437010638E-005
  -3.8500000000000000E-002    -1.5159182112256531E-005
  -3.8400000000000004E-002    -2.0363109797472134E-005
  -3.8300000000000001E-002    -2.6499641535338014E-005
  -3.8199999999999998E-002    -3.3464890293544158E-005
  -3.8100000000000002E-002    -4.1050996514968574E-005
  -3.7999999999999999E-002    -4.8930010962067172E-005
  -3.7900000000000003E-002    -5.6642438721610233E-005
  -3.7800000000000000E-002    -6.3591993239242584E-005
  -3.7699999999999997E-002    -6.9048255681991577E-005
  -3.7600000000000001E-002    -7.2158589318860322E-005
  -3.7499999999999999E-002    -7.1970418503042310E-005
  -3.7400000000000003E-002    -6.7464214225765318E-005
  -3.7300000000000000E-002    -5.7597466366132721E-005
  -3.7200000000000004E-002    -4.1358682210557163E-005
  -3.7100000000000001E-002    -1.7830403521656990E-005
  -3.6999999999999998E-002     1.3741253496846184E-005
  -3.6900000000000002E-002     5.3872823627898470E-005
  -3.6799999999999999E-002     1.0276946704834700E-004
  -3.6700000000000003E-002     1.6025395598262548E-004
  -3.6600000000000001E-002     2.2570374130737036E-004
  -3.6499999999999998E-002     2.9800037737004459E-004
  -3.6400000000000002E-002     3.7549540866166353E-004
  -3.6299999999999999E-002     4.5599779696203768E-004
  -3.6200000000000003E-002     5.3678656695410609E-004
  -3.6100000000000000E-002     6.1465089675039053E-004
  -3.6000000000000004E-002     6.8596121855080128E-004
  -3.5900000000000001E-002     7.4677012162283063E-004
  -3.5799999999999998E-002     7.9294503666460514E-004
  -3.5700000000000003E-002     8.2032673526555300E-004
  -3.5600000000000000E-002     8.2491507055237889E-004
  -3.5500000000000004E-002     8.0306915333494544E-004
  -3.5400000000000001E-002     7.5172254582867026E-004
  -3.5299999999999998E-002     6.6859839716926217E-004
  -3.5200000000000002E-002     5.5241875816136599E-004
  -3.5099999999999999E-002     4.0309512405656278E-004
  -3.5000000000000003E-002     2.2188966977410018E-004
  -3.4900000000000000E-002     1.1537848877196666E-005
  -3.4799999999999998E-002    -2.2368317877408117E-004
  -3.4700000000000002E-002    -4.7794252168387175E-004
  -3.4599999999999999E-002    -7.4391416274011135E-004
  -3.4500000000000003E-002    -1.0129079455509782E-003
  -3.4400000000000000E-002    -1.2750753667205572E-003
  -3.4299999999999997E-002    -1.5196924796327949E-003
  -3.4200000000000001E-002    -1.7355132149532437E-003
  -3.4099999999999998E-002    -1.9111863803118467E-003
  -3.4000000000000002E-002    -2.0357244648039341E-003
  -3.3900000000000000E-002    -2.0990082994103432E-003
  -3.3799999999999997E-002    -2.0923151168972254E-003
  -3.3700000000000001E-002    -2.0088348537683487E-003
  -3.3599999999999998E-002    -1.8441703869029880E-003
  -3.3500000000000002E-002    -1.5967807266861200E-003
  -3.3399999999999999E-002    -1.2683519162237644E-003
  -3.3300000000000003E-002    -8.6406629998236895E-004
  -3.3200000000000000E-002    -3.9275377639569342E-004
  -3.3099999999999997E-002     1.3310297799762338E-004
  -3.3000000000000002E-002     6.9751235423609614E-004
  -3.2899999999999999E-002     1.2812893837690353E-003
  -3.2800000000000003E-002     1.8625345546752214E-003
  -3.2700000000000000E-002     2.4172782432287931E-003
  -3.2600000000000004E-002     2.9202823061496019E-003
  -3.2500000000000001E-002     3.3459700644016266E-003
  -3.2399999999999998E-002     3.6694707814604044E-003
  -3.2300000000000002E-002     3.8677374832332134E-003
  -3.2199999999999999E-002     3.9206901565194130E-003
  -3.2100000000000004E-002     3.8123701233416796E-003
  -3.2000000000000001E-002     3.5320098977535963E-003
  -3.1899999999999998E-002     3.0750106088817120E-003
  -3.1800000000000002E-002     2.4437531828880310E-003
  -3.1699999999999999E-002     1.6481988131999969E-003
  -3.1600000000000003E-002     7.0623663486912847E-004
  -3.1500000000000000E-002    -3.5625832970254123E-004
  -3.1399999999999997E-002    -1.5056922566145658E-003
  -3.1300000000000001E-002    -2.7013565413653851E-003
  -3.1199999999999999E-002    -3.8963754195719957E-003
  -3.1100000000000003E-002    -5.0389883108437061E-003
  -3.1000000000000000E-002    -6.0741566121578217E-003
  -3.0900000000000000E-002    -6.9454377517104149E-003
  -3.0800000000000001E-002    -7.5970934703946114E-003
  -3.0699999999999998E-002    -7.9763540998101234E-003
  -3.0600000000000002E-002    -8.0357715487480164E-003
  -3.0499999999999999E-002    -7.7355783432722092E-003
  -3.0400000000000000E-002    -7.0459330454468727E-003
  -3.0300000000000001E-002    -5.9489933773875237E-003
  -3.0200000000000001E-002    -4.4406973756849766E-003
  -3.0100000000000002E-002    -2.5321606080979109E-003
  -2.9999999999999999E-002    -2.5060414918698370E-004
  -2.9899999999999999E-002     2.3602510336786509E-003
  -2.9800000000000000E-002     5.2403844892978668E-003
  -2.9700000000000001E-002     8.3143189549446106E-003
  -2.9600000000000001E-002     1.1492614634335041E-002
  -2.9499999999999998E-002     1.4673996716737747E-002
  -2.9400000000000003E-002     1.7748111858963966E-002
  -2.9300000000000000E-002     2.0598815754055977E-002
  -2.9200000000000000E-002     2.3107958957552910E-002
  -2.9100000000000001E-002     2.5159465149044991E-002
  -2.8999999999999998E-002     2.6643745601177216E-002
  -2.8900000000000002E-002     2.7462059631943703E-002
  -2.8799999999999999E-002     2.7530925348401070E-002
  -2.8700000000000000E-002     2.6786155998706818E-002
  -2.8600000000000000E-002     2.5186603888869286E-002
  -2.8500000000000001E-002     2.2717209532856941E-002
  -2.8400000000000002E-002     1.9391365349292755E-002
  -2.8299999999999999E-002     1.5252432785928249E-002
  -2.8200000000000003E-002     1.0374210774898529E-002
  -2.8100000000000000E-002     4.8603741452097893E-003
  -2.8000000000000001E-002    -1.1571923969313502E-003
  -2.7900000000000001E-002    -7.5211641378700733E-003
  -2.7799999999999998E-002    -1.4052663929760456E-002
  -2.7700000000000002E-002    -2.0556118339300156E-002
  -2.7600000000000000E-002    -2.6825031265616417E-002
  -2.7500000000000000E-002    -3.2648406922817230E-002
  -2.7400000000000001E-002    -3.7817809730768204E-002
  -2.7299999999999998E-002    -4.2134609073400497E-002
  -2.7200000000000002E-002    -4.5417379587888718E-002
  -2.7099999999999999E-002    -4.7508981078863144E-002
  -2.7000000000000000E-002    -4.8283282667398453E-002
  -2.6900000000000000E-002    -4.7650970518589020E-002
  -2.6800000000000001E-002    -4.5564606785774231E-002
  -2.6700000000000002E-002    -4.2022112756967545E-002
  -2.6599999999999999E-002    -3.7069123238325119E-002
  -2.6500000000000003E-002    -3.0799644067883492E-002
  -2.6400000000000000E-002    -2.3354971781373024E-002
  -2.6300000000000000E-002    -1.4921039342880249E-002
  -2.6200000000000001E-002    -5.7239113375544548E-003
  -2.6099999999999998E-002     3.9762486703693867E-003
  -2.6000000000000002E-002     1.3892680406570435E-002
  -2.5899999999999999E-002     2.3720901459455490E-002
  -2.5800000000000000E-002     3.3148456364870071E-002
  -2.5700000000000001E-002     4.1865445673465729E-002
  -2.5599999999999998E-002     4.9575395882129669E-002
  -2.5500000000000002E-002     5.6006006896495819E-002
  -2.5399999999999999E-002     6.0919620096683502E-002
  -2.5300000000000000E-002     6.4122766256332397E-002
  -2.5200000000000000E-002     6.5474487841129303E-002
  -2.5100000000000001E-002     6.4893230795860291E-002
  -2.5000000000000001E-002     6.2361728399991989E-002
  -2.4899999999999999E-002     5.7929929345846176E-002
  -2.4800000000000003E-002     5.1715519279241562E-002
  -2.4700000000000000E-002     4.3902091681957245E-002
  -2.4600000000000000E-002     3.4734871238470078E-002
  -2.4500000000000001E-002     2.4514108896255493E-002
  -2.4399999999999998E-002     1.3586260378360748E-002
  -2.4299999999999999E-002     2.3332217242568731E-003
  -2.4199999999999999E-002    -8.8400691747665405E-003
  -2.4100000000000000E-002    -1.9519312307238579E-002
  -2.4000000000000000E-002    -2.9295276850461960E-002
  -2.3900000000000001E-002    -3.7778533995151520E-002
  -2.3800000000000002E-002    -4.4613845646381378E-002
  -2.3699999999999999E-002    -4.9494035542011261E-002
  -2.3599999999999999E-002    -5.2172258496284485E-002
  -2.3500000000000000E-002    -5.2472688257694244E-002
  -2.3400000000000001E-002    -5.0298754125833511E-002
  -2.3300000000000001E-002    -4.5639157295227051E-002
  -2.3199999999999998E-002    -3.8570482283830643E-002
  -2.3099999999999999E-002    -2.9257014393806458E-002
  -2.3000000000000000E-002    -1.7947355285286903E-002
  -2.2900000000000000E-002    -4.9677388742566109E-003
  -2.2800000000000001E-002     9.2874076217412949E-003
  -2.2700000000000001E-002     2.4368118494749069E-002
  -2.2599999999999999E-002     3.9783205837011337E-002
  -2.2499999999999999E-002     5.5017206817865372E-002
  -2.2400000000000000E-002     6.9548167288303375E-002
  -2.2300000000000000E-002     8.2866467535495758E-002
  -2.2200000000000001E-002     9.4493426382541656E-002
  -2.2100000000000002E-002    0.10399952530860901
  -2.1999999999999999E-002    0.11102136969566345
  -2.1899999999999999E-002    0.11527621746063232
  -2.1800000000000000E-002    0.11657468229532242
  -2.1700000000000001E-002    0.11482976377010345
  -2.1600000000000001E-002    0.11006260663270950
  -2.1499999999999998E-002    0.10240475833415985
  -2.1399999999999999E-002     9.2095844447612762E-002
  -2.1299999999999999E-002     7.9477928578853607E-002
  -2.1200000000000000E-002     6.4985424280166626E-002
  -2.1100000000000001E-002     4.9132090061903000E-002
  -2.1000000000000001E-002     3.2494287937879562E-002
  -2.0899999999999998E-002     1.5691943466663361E-002
  -2.0799999999999999E-002    -6.3301663612946868E-004
  -2.0700000000000000E-002    -1.5838291496038437E-002
  -2.0600000000000000E-002    -2.9305033385753632E-002
  -2.0500000000000001E-002    -4.0459550917148590E-002
  -2.0400000000000001E-002    -4.8794932663440704E-002
  -2.0299999999999999E-002    -5.3890347480773926E-002
  -2.0199999999999999E-002    -5.5427212268114090E-002
  -2.0100000000000000E-002    -5.3202837705612183E-002
  -2.0000000000000000E-002    -4.7138568013906479E-002
  -1.9900000000000001E-002    -3.7285063415765762E-002
  -1.9799999999999998E-002    -2.3822246119379997E-002
  -1.9699999999999999E-002    -7.0541612803936005E-003
  -1.9599999999999999E-002     1.2600331567227840E-002
  -1.9500000000000000E-002     3.4621324390172958E-002
  -1.9400000000000001E-002     5.8405857533216476E-002
  -1.9300000000000001E-002     8.3288744091987610E-002
  -1.9199999999999998E-002    0.10856747627258301
  -1.9099999999999999E-002    0.13352628052234650
  -1.9000000000000000E-002    0.15746399760246277
  -1.8900000000000000E-002    0.17971992492675781
  -1.8800000000000001E-002    0.19969965517520905
  -1.8700000000000001E-002    0.21689748764038086
  -1.8599999999999998E-002    0.23091860115528107
  -1.8499999999999999E-002    0.24149376153945923
  -1.8400000000000000E-002    0.24849259853363037
  -1.8300000000000000E-002    0.25193083286285400
  -1.8200000000000001E-002    0.25197204947471619
  -1.8100000000000002E-002    0.24892422556877136
  -1.7999999999999999E-002    0.24323076009750366
  -1.7899999999999999E-002    0.23545679450035095
  -1.7800000000000000E-002    0.22626984119415283
  -1.7700000000000000E-002    0.21641835570335388
  -1.7600000000000001E-002    0.20670367777347565
  -1.7499999999999998E-002    0.19795313477516174
  -1.7399999999999999E-002    0.19099003076553345
  -1.7299999999999999E-002    0.18660390377044678
  -1.7200000000000000E-002    0.18552206456661224
  -1.7100000000000001E-002    0.18838140368461609
  -1.7000000000000001E-002    0.19570609927177429
  -1.6899999999999998E-002    0.20788854360580444
  -1.6799999999999999E-002    0.22517246007919312
  -1.6700000000000000E-002    0.24764521420001984
  -1.6600000000000000E-002    0.27523395419120789
  -1.6500000000000001E-002    0.30770885944366455
  -1.6400000000000001E-002    0.34469020366668701
  -1.6299999999999999E-002    0.38566476106643677
  -1.6199999999999999E-002    0.43000465631484985
  -1.6100000000000000E-002    0.47699186205863953
  -1.6000000000000000E-002    0.52584838867187500
  -1.5900000000000001E-002    0.57576209306716919
  -1.5799999999999998E-002    0.62592667341232300
  -1.5699999999999999E-002    0.67556929588317871
  -1.5599999999999999E-002    0.72398352622985840
  -1.5500000000000000E-002    0.77055972814559937
  -1.5400000000000000E-002    0.81481230258941650
  -1.5300000000000001E-002    0.85640090703964233
  -1.5199999999999998E-002    0.89515036344528198
  -1.5099999999999999E-002    0.93105220794677734
  -1.4999999999999999E-002    0.96428245306015015
  -1.4900000000000000E-002    0.99519145488739014
  -1.4800000000000001E-002     1.0242946147918701
  -1.4700000000000001E-002     1.0522607564926147
  -1.4599999999999998E-002     1.0798881053924561
  -1.4499999999999999E-002     1.1080813407897949
  -1.4400000000000000E-002     1.1378180980682373
  -1.4300000000000000E-002     1.1701169013977051
  -1.4200000000000001E-002     1.2060009241104126
  -1.4099999999999998E-002     1.2464689016342163
  -1.3999999999999999E-002     1.2924479246139526
  -1.3899999999999999E-002     1.3447753190994263
  -1.3800000000000000E-002     1.4041594266891479
  -1.3700000000000000E-002     1.4711642265319824
  -1.3600000000000001E-002     1.5461838245391846
  -1.3499999999999998E-002     1.6294362545013428
  -1.3399999999999999E-002     1.7209545373916626
  -1.3299999999999999E-002     1.8205974102020264
  -1.3200000000000000E-002     1.9280552864074707
  -1.3100000000000001E-002     2.0428571701049805
  -1.3000000000000001E-002     2.1644186973571777
  -1.2899999999999998E-002     2.2920408248901367
  -1.2799999999999999E-002     2.4249675273895264
  -1.2699999999999999E-002     2.5624082088470459
  -1.2600000000000000E-002     2.7035799026489258
  -1.2500000000000001E-002     2.8477494716644287
  -1.2399999999999998E-002     2.9942622184753418
  -1.2299999999999998E-002     3.1425883769989014
  -1.2199999999999999E-002     3.2923369407653809
  -1.2100000000000000E-002     3.4433112144470215
  -1.2000000000000000E-002     3.5954713821411133
  -1.1900000000000001E-002     3.7490200996398926
  -1.1799999999999998E-002     3.9043343067169189
  -1.1699999999999999E-002     4.0620150566101074
  -1.1599999999999999E-002     4.2228417396545410
  -1.1500000000000000E-002     4.3877749443054199
  -1.1400000000000000E-002     4.5579142570495605
  -1.1300000000000001E-002     4.7344713211059570
  -1.1199999999999998E-002     4.9187498092651367
  -1.1099999999999999E-002     5.1120562553405762
  -1.0999999999999999E-002     5.3157248497009277
  -1.0900000000000000E-002     5.5310287475585938
  -1.0800000000000001E-002     5.7591590881347656
  -1.0699999999999998E-002     6.0011663436889648
  -1.0599999999999998E-002     6.2579712867736816
  -1.0499999999999999E-002     6.5302910804748535
  -1.0400000000000000E-002     6.8186531066894531
  -1.0300000000000000E-002     7.1233768463134766
  -1.0200000000000001E-002     7.4445500373840332
  -1.0099999999999998E-002     7.7820615768432617
  -9.9999999999999985E-003     8.1356115341186523
  -9.8999999999999991E-003     8.5047159194946289
  -9.7999999999999997E-003     8.8887729644775391
  -9.7000000000000003E-003     9.2870626449584961
  -9.6000000000000009E-003     9.6987962722778320
  -9.4999999999999980E-003     10.123170852661133
  -9.3999999999999986E-003     10.559428215026855
  -9.2999999999999992E-003     11.006836891174316
  -9.1999999999999998E-003     11.464816093444824
  -9.1000000000000004E-003     11.932977676391602
  -9.0000000000000011E-003     12.411028861999512
  -8.8999999999999982E-003     12.898935317993164
  -8.7999999999999988E-003     13.396933555603027
  -8.6999999999999994E-003     13.905467033386230
  -8.5999999999999965E-003     14.425235748291016
  -8.5000000000000006E-003     14.957161903381348
  -8.3999999999999977E-003     15.502431869506836
  -8.3000000000000018E-003     16.062343597412109
  -8.1999999999999990E-003     16.638456344604492
  -8.0999999999999961E-003     17.232357025146484
  -8.0000000000000002E-003     17.845729827880859
  -7.8999999999999973E-003     18.480310440063477
  -7.8000000000000014E-003     19.137737274169922
  -7.6999999999999985E-003     19.819635391235352
  -7.6000000000000026E-003     20.527500152587891
  -7.4999999999999997E-003     21.262599945068359
  -7.3999999999999969E-003     22.025987625122070
  -7.3000000000000009E-003     22.818559646606445
  -7.1999999999999981E-003     23.640882492065430
  -7.1000000000000021E-003     24.493230819702148
  -6.9999999999999993E-003     25.375661849975586
  -6.8999999999999964E-003     26.288021087646484
  -6.8000000000000005E-003     27.229799270629883
  -6.6999999999999976E-003     28.200351715087891
  -6.6000000000000017E-003     29.198816299438477
  -6.4999999999999988E-003     30.224195480346680
  -6.3999999999999960E-003     31.275510787963867
  -6.3000000000000000E-003     32.351654052734375
  -6.1999999999999972E-003     33.451606750488281
  -6.1000000000000013E-003     34.574405670166016
  -5.9999999999999984E-003     35.719203948974609
  -5.9000000000000025E-003     36.885391235351562
  -5.7999999999999996E-003     38.072570800781250
  -5.6999999999999967E-003     39.280433654785156
  -5.6000000000000008E-003     40.509307861328125
  -5.4999999999999979E-003     41.759422302246094
  -5.4000000000000020E-003     43.031524658203125
  -5.2999999999999992E-003     44.326419830322266
  -5.1999999999999963E-003     45.645301818847656
  -5.1000000000000004E-003     46.989444732666016
  -4.9999999999999975E-003     48.360408782958984
  -4.9000000000000016E-003     49.759803771972656
  -4.7999999999999987E-003     51.189197540283203
  -4.6999999999999958E-003     52.650417327880859
  -4.5999999999999999E-003     54.144737243652344
  -4.4999999999999971E-003     55.673618316650391
  -4.4000000000000011E-003     57.238269805908203
  -4.2999999999999983E-003     58.839569091796875
  -4.2000000000000023E-003     60.478031158447266
  -4.0999999999999995E-003     62.154224395751953
  -3.9999999999999966E-003     63.867675781250000
  -3.9000000000000007E-003     65.618072509765625
  -3.7999999999999978E-003     67.404556274414062
  -3.7000000000000019E-003     69.226135253906250
  -3.5999999999999990E-003     71.080986022949219
  -3.4999999999999962E-003     72.967330932617188
  -3.4000000000000002E-003     74.883056640625000
  -3.2999999999999974E-003     76.825950622558594
  -3.2000000000000015E-003     78.793502807617188
  -3.0999999999999986E-003     80.783393859863281
  -2.9999999999999957E-003     82.792861938476562
  -2.8999999999999998E-003     84.819625854492188
  -2.7999999999999969E-003     86.861038208007812
  -2.7000000000000010E-003     88.915618896484375
  -2.5999999999999981E-003     90.980758666992188
  -2.5000000000000022E-003     93.055023193359375
  -2.3999999999999994E-003     95.137077331542969
  -2.2999999999999965E-003     97.225563049316406
  -2.2000000000000006E-003     99.319976806640625
  -2.0999999999999977E-003     101.41916656494141
  -2.0000000000000018E-003     103.52342224121094
  -1.8999999999999989E-003     105.63258361816406
  -1.7999999999999960E-003     107.74591827392578
  -1.7000000000000001E-003     109.86451721191406
  -1.5999999999999973E-003     111.98751068115234
  -1.5000000000000013E-003     114.11581420898438
  -1.3999999999999985E-003     116.24892425537109
  -1.2999999999999956E-003     118.38646697998047
  -1.1999999999999997E-003     120.52777099609375
  -1.0999999999999968E-003     122.67186737060547
  -1.0000000000000009E-003     124.81785583496094
  -8.9999999999999802E-004     126.96364593505859
  -8.0000000000000210E-004     129.10713195800781
  -6.9999999999999923E-004     131.24562072753906
  -5.9999999999999637E-004     133.37583923339844
  -5.0000000000000044E-004     135.49388122558594
  -3.9999999999999758E-004     137.59622192382812
  -3.0000000000000165E-004     139.67718505859375
  -1.9999999999999879E-004     141.73352050781250
  -9.9999999999995925E-005     143.75926208496094
   0.0000000000000000          145.74949645996094
   1.0000000000000286E-004     147.69763183593750
   1.9999999999999879E-004     149.59875488281250
   3.0000000000000165E-004     151.44703674316406
   4.0000000000000452E-004     153.23808288574219
   5.0000000000000044E-004     154.96545410156250
   6.0000000000000331E-004     156.62409973144531
   6.9999999999999923E-004     158.21005249023438
   8.0000000000000210E-004     159.71708679199219
   8.9999999999999802E-004     161.14205932617188
   1.0000000000000009E-003     162.48147583007812
   1.1000000000000038E-003     163.73094177246094
   1.1999999999999997E-003     164.88664245605469
   1.3000000000000025E-003     165.94592285156250
   1.3999999999999985E-003     166.90507507324219
   1.5000000000000013E-003     167.76139831542969
   1.6000000000000042E-003     168.51216125488281
   1.7000000000000001E-003     169.15327453613281
   1.8000000000000030E-003     169.68244934082031
   1.8999999999999989E-003     170.09567260742188
   2.0000000000000018E-003     170.39062500000000
   2.1000000000000046E-003     170.56204223632812
   2.2000000000000006E-003     170.60548400878906
   2.3000000000000034E-003     170.51545715332031
   2.3999999999999994E-003     170.28839111328125
   2.5000000000000022E-003     169.91754150390625
   2.5999999999999981E-003     169.39596557617188
   2.7000000000000010E-003     168.71687316894531
   2.8000000000000039E-003     167.87191772460938
   2.8999999999999998E-003     166.85447692871094
   3.0000000000000027E-003     165.65652465820312
   3.0999999999999986E-003     164.27110290527344
   3.2000000000000015E-003     162.68812561035156
   3.3000000000000043E-003     160.89891052246094
   3.4000000000000002E-003     158.89457702636719
   3.5000000000000031E-003     156.66744995117188
   3.5999999999999990E-003     154.20852661132812
   3.7000000000000019E-003     151.50941467285156
   3.7999999999999978E-003     148.56137084960938
   3.9000000000000007E-003     145.35844421386719
   4.0000000000000036E-003     141.89172363281250
   4.0999999999999995E-003     138.15489196777344
   4.2000000000000023E-003     134.14291381835938
   4.2999999999999983E-003     129.84837341308594
   4.4000000000000011E-003     125.26651000976562
   4.5000000000000040E-003     120.39093017578125
   4.5999999999999999E-003     115.21705627441406
   4.7000000000000028E-003     109.73960113525391
   4.7999999999999987E-003     103.95582580566406
   4.9000000000000016E-003     97.860099792480469
   5.0000000000000044E-003     91.447624206542969
   5.1000000000000004E-003     84.714073181152344
   5.2000000000000032E-003     77.658416748046875
   5.2999999999999992E-003     70.273246765136719
   5.4000000000000020E-003     62.553844451904297
   5.4999999999999979E-003     54.495223999023438
   5.6000000000000008E-003     46.091873168945312
   5.7000000000000037E-003     37.343441009521484
   5.7999999999999996E-003     28.239795684814453
   5.9000000000000025E-003     18.773620605468750
   5.9999999999999984E-003     8.9402379989624023
   6.1000000000000013E-003    -1.2657668590545654
   6.2000000000000041E-003    -11.852106094360352
   6.3000000000000000E-003    -22.821657180786133
   6.4000000000000029E-003    -34.185588836669922
   6.4999999999999988E-003    -45.945613861083984
   6.6000000000000017E-003    -58.114196777343750
   6.7000000000000046E-003    -70.692520141601562
   6.8000000000000005E-003    -83.688377380371094
   6.9000000000000034E-003    -97.105422973632812
   6.9999999999999993E-003    -110.94744110107422
   7.1000000000000021E-003    -125.21185302734375
   7.1999999999999981E-003    -139.91123962402344
   7.3000000000000009E-003    -155.04281616210938
   7.4000000000000038E-003    -170.60665893554688
   7.4999999999999997E-003    -186.60746765136719
   7.6000000000000026E-003    -203.03808593750000
   7.6999999999999985E-003    -219.90492248535156
   7.8000000000000014E-003    -237.20048522949219
   7.9000000000000042E-003    -254.92918395996094
   8.0000000000000002E-003    -273.07925415039062
   8.1000000000000030E-003    -291.65447998046875
   8.1999999999999990E-003    -310.64562988281250
   8.3000000000000018E-003    -330.05120849609375
   8.4000000000000047E-003    -349.86447143554688
   8.5000000000000006E-003    -370.07986450195312
   8.6000000000000035E-003    -390.69287109375000
   8.6999999999999994E-003    -411.69671630859375
   8.8000000000000023E-003    -433.08856201171875
   8.8999999999999982E-003    -454.85891723632812
   9.0000000000000011E-003    -477.00128173828125
   9.1000000000000039E-003    -499.51052856445312
   9.1999999999999998E-003    -522.37768554687500
   9.3000000000000027E-003    -545.59637451171875
   9.3999999999999986E-003    -569.15997314453125
   9.5000000000000015E-003    -593.05993652343750
   9.6000000000000044E-003    -617.28906250000000
   9.7000000000000003E-003    -641.83764648437500
   9.8000000000000032E-003    -666.69647216796875
   9.8999999999999991E-003    -691.85461425781250
   1.0000000000000002E-002    -717.29766845703125
   1.0100000000000005E-002    -743.01873779296875
   1.0200000000000001E-002    -769.00054931640625
   1.0300000000000004E-002    -795.23132324218750
   1.0400000000000000E-002    -821.69500732421875
   1.0500000000000002E-002    -848.37481689453125
   1.0599999999999998E-002    -875.25305175781250
   1.0700000000000001E-002    -902.31500244140625
   1.0800000000000004E-002    -929.53723144531250
   1.0900000000000000E-002    -956.90301513671875
   1.1000000000000003E-002    -984.38665771484375
   1.1099999999999999E-002    -1011.9655151367188
   1.1200000000000002E-002    -1039.6188964843750
   1.1300000000000004E-002    -1067.3177490234375
   1.1400000000000000E-002    -1095.0426025390625
   1.1500000000000003E-002    -1122.7639160156250
   1.1599999999999999E-002    -1150.4543457031250
   1.1700000000000002E-002    -1178.0895996093750
   1.1800000000000005E-002    -1205.6387939453125
   1.1900000000000001E-002    -1233.0749511718750
   1.2000000000000004E-002    -1260.3690185546875
   1.2100000000000000E-002    -1287.4941406250000
   1.2200000000000003E-002    -1314.4190673828125
   1.2299999999999998E-002    -1341.1118164062500
   1.2400000000000001E-002    -1367.5439453125000
   1.2500000000000004E-002    -1393.6855468750000
   1.2600000000000000E-002    -1419.5058593750000
   1.2700000000000003E-002    -1444.9749755859375
   1.2799999999999999E-002    -1470.0554199218750
   1.2900000000000002E-002    -1494.7209472656250
   1.3000000000000005E-002    -1518.9309082031250
   1.3100000000000001E-002    -1542.6611328125000
   1.3200000000000003E-002    -1565.8742675781250
   1.3299999999999999E-002    -1588.5322265625000
   1.3400000000000002E-002    -1610.6066894531250
   1.3500000000000005E-002    -1632.0583496093750
   1.3600000000000001E-002    -1652.8502197265625
   1.3700000000000004E-002    -1672.9432373046875
   1.3800000000000000E-002    -1692.3033447265625
   1.3900000000000003E-002    -1710.8896484375000
   1.3999999999999999E-002    -1728.6629638671875
   1.4100000000000001E-002    -1745.5850830078125
   1.4200000000000004E-002    -1761.6157226562500
   1.4300000000000000E-002    -1776.7135009765625
   1.4400000000000003E-002    -1790.8372802734375
   1.4499999999999999E-002    -1803.9471435546875
   1.4600000000000002E-002    -1816.0026855468750
   1.4700000000000005E-002    -1826.9633789062500
   1.4800000000000001E-002    -1836.7878417968750
   1.4900000000000004E-002    -1845.4349365234375
   1.4999999999999999E-002    -1852.8660888671875
   1.5100000000000002E-002    -1859.0406494140625
   1.5200000000000005E-002    -1863.9195556640625
   1.5300000000000001E-002    -1867.4658203125000
   1.5400000000000004E-002    -1869.6406250000000
   1.5500000000000000E-002    -1870.4058837890625
   1.5600000000000003E-002    -1869.7252197265625
   1.5699999999999999E-002    -1867.5634765625000
   1.5800000000000002E-002    -1863.8864746093750
   1.5900000000000004E-002    -1858.6589355468750
   1.6000000000000000E-002    -1851.8466796875000
   1.6100000000000003E-002    -1843.4193115234375
   1.6199999999999999E-002    -1833.3431396484375
   1.6300000000000002E-002    -1821.5903320312500
   1.6400000000000005E-002    -1808.1297607421875
   1.6500000000000001E-002    -1792.9339599609375
   1.6600000000000004E-002    -1775.9710693359375
   1.6700000000000000E-002    -1757.2155761718750
   1.6800000000000002E-002    -1736.6434326171875
   1.6900000000000005E-002    -1714.2261962890625
   1.7000000000000001E-002    -1689.9442138671875
   1.7100000000000004E-002    -1663.7761230468750
   1.7200000000000000E-002    -1635.6920166015625
   1.7300000000000003E-002    -1605.6735839843750
   1.7399999999999999E-002    -1573.7104492187500
   1.7500000000000002E-002    -1539.7752685546875
   1.7600000000000005E-002    -1503.8609619140625
   1.7700000000000000E-002    -1465.9483642578125
   1.7800000000000003E-002    -1426.0231933593750
   1.7899999999999999E-002    -1384.0718994140625