  -8.0000000000000002E-002     0.0000000000000000
  -7.9579999999999998E-002     0.0000000000000000
  -7.9160000000000008E-002     0.0000000000000000
  -7.8740000000000004E-002     0.0000000000000000
  -7.8320000000000001E-002     0.0000000000000000
  -7.7899999999999997E-002     0.0000000000000000
  -7.7480000000000007E-002     0.0000000000000000
  -7.7060000000000003E-002     0.0000000000000000
  -7.6640000000000000E-002     0.0000000000000000
  -7.6219999999999996E-002     0.0000000000000000
  -7.5800000000000006E-002     0.0000000000000000
  -7.5380000000000003E-002     0.0000000000000000
  -7.4959999999999999E-002     0.0000000000000000
  -7.4539999999999995E-002     0.0000000000000000
  -7.4120000000000005E-002     0.0000000000000000
  -7.3700000000000002E-002     0.0000000000000000
  -7.3279999999999998E-002     0.0000000000000000
  -7.2860000000000008E-002     0.0000000000000000
  -7.2440000000000004E-002     0.0000000000000000
  -7.2020000000000001E-002     0.0000000000000000
  -7.1599999999999997E-002     0.0000000000000000
  -7.1180000000000007E-002     0.0000000000000000
  -7.0760000000000003E-002     0.0000000000000000
  -7.0340000000000000E-002     0.0000000000000000
  -6.9919999999999996E-002     0.0000000000000000
  -6.9500000000000006E-002     0.0000000000000000
  -6.9080000000000003E-002     0.0000000000000000
  -6.8659999999999999E-002     0.0000000000000000
  -6.8239999999999995E-002     0.0000000000000000
  -6.7820000000000005E-002     0.0000000000000000
  -6.7400000000000002E-002     0.0000000000000000
  -6.6979999999999998E-002     0.0000000000000000
  -6.6560000000000008E-002     0.0000000000000000
  -6.6140000000000004E-002     0.0000000000000000
  -6.5720000000000001E-002     0.0000000000000000
  -6.5299999999999997E-002     0.0000000000000000
  -6.4879999999999993E-002     0.0000000000000000
  -6.4460000000000003E-002     0.0000000000000000
  -6.4040000000000000E-002     0.0000000000000000
  -6.3619999999999996E-002     0.0000000000000000
  -6.3200000000000006E-002     0.0000000000000000
  -6.2780000000000002E-002     0.0000000000000000
  -6.2359999999999999E-002     0.0000000000000000
  -6.1940000000000002E-002     0.0000000000000000
  -6.1520000000000005E-002     0.0000000000000000
  -6.1100000000000002E-002     0.0000000000000000
  -6.0679999999999998E-002     0.0000000000000000
  -6.0260000000000001E-002     0.0000000000000000
  -5.9840000000000004E-002     0.0000000000000000
  -5.9420000000000001E-002     0.0000000000000000
  -5.8999999999999997E-002     0.0000000000000000
  -5.8580000000000000E-002     0.0000000000000000
  -5.8160000000000003E-002     0.0000000000000000
  -5.7740000000000000E-002     0.0000000000000000
  -5.7319999999999996E-002     0.0000000000000000
  -5.6899999999999999E-002     0.0000000000000000
  -5.6480000000000002E-002     0.0000000000000000
  -5.6059999999999999E-002     0.0000000000000000
  -5.5640000000000002E-002     0.0000000000000000
  -5.5220000000000005E-002     0.0000000000000000
  -5.4800000000000001E-002     0.0000000000000000
  -5.4379999999999998E-002     0.0000000000000000
  -5.3960000000000001E-002     0.0000000000000000
  -5.3540000000000004E-002     0.0000000000000000
  -5.3120000000000001E-002     0.0000000000000000
  -5.2699999999999997E-002     0.0000000000000000
  -5.2280000000000000E-002     0.0000000000000000
  -5.1860000000000003E-002     0.0000000000000000
  -5.1440000000000000E-002     0.0000000000000000
  -5.1019999999999996E-002     0.0000000000000000
  -5.0599999999999999E-002     0.0000000000000000
  -5.0180000000000002E-002     0.0000000000000000
  -4.9759999999999999E-002     0.0000000000000000
  -4.9340000000000002E-002     0.0000000000000000
  -4.8920000000000005E-002     0.0000000000000000
  -4.8500000000000001E-002     0.0000000000000000
  -4.8079999999999998E-002     0.0000000000000000
  -4.7660000000000001E-002     0.0000000000000000
  -4.7239999999999997E-002     0.0000000000000000
  -4.6820000000000001E-002     0.0000000000000000
  -4.6399999999999997E-002     0.0000000000000000
  -4.5980000000000000E-002     0.0000000000000000
  -4.5560000000000003E-002     0.0000000000000000
  -4.5140000000000000E-002     0.0000000000000000
  -4.4720000000000003E-002     0.0000000000000000
  -4.4299999999999999E-002     0.0000000000000000
  -4.3880000000000002E-002     0.0000000000000000
  -4.3459999999999999E-002     0.0000000000000000
  -4.3040000000000002E-002     0.0000000000000000
  -4.2619999999999998E-002     0.0000000000000000
  -4.2200000000000001E-002     0.0000000000000000
  -4.1779999999999998E-002     0.0000000000000000
  -4.1360000000000001E-002     0.0000000000000000
  -4.0939999999999997E-002     0.0000000000000000
  -4.0520000000000000E-002     0.0000000000000000
  -4.0099999999999997E-002     0.0000000000000000
  -3.9680000000000000E-002     0.0000000000000000
  -3.9260000000000003E-002     0.0000000000000000
  -3.8840000000000000E-002     0.0000000000000000
  -3.8420000000000003E-002     0.0000000000000000
  -3.7999999999999999E-002     0.0000000000000000
  -3.7580000000000002E-002     0.0000000000000000
  -3.7159999999999999E-002     0.0000000000000000
  -3.6740000000000002E-002     0.0000000000000000
  -3.6319999999999998E-002     0.0000000000000000
  -3.5900000000000001E-002     0.0000000000000000
  -3.5479999999999998E-002     0.0000000000000000
  -3.5060000000000001E-002     0.0000000000000000
  -3.4639999999999997E-002     0.0000000000000000
  -3.4220000000000000E-002     0.0000000000000000
  -3.3799999999999997E-002     0.0000000000000000
  -3.3380000000000000E-002     0.0000000000000000
  -3.2960000000000003E-002     0.0000000000000000
  -3.2539999999999999E-002     0.0000000000000000
  -3.2120000000000003E-002     0.0000000000000000
  -3.1699999999999999E-002     0.0000000000000000
  -3.1280000000000002E-002     0.0000000000000000
  -3.0859999999999999E-002     0.0000000000000000
  -3.0440000000000002E-002     0.0000000000000000
  -3.0019999999999998E-002     0.0000000000000000
  -2.9600000000000001E-002     0.0000000000000000
  -2.9179999999999998E-002     1.0547405959084957E-046
  -2.8760000000000001E-002     4.0127460968176181E-046
  -2.8339999999999997E-002     4.0127460968176181E-046
  -2.7920000000000000E-002     4.0127460968176181E-046
  -2.7499999999999997E-002     1.4651528047718433E-046
  -2.7080000000000000E-002    -1.0121421424323345E-045
  -2.6659999999999996E-002    -1.8656814883027504E-045
  -2.6239999999999999E-002    -8.5556995014756879E-046
  -2.5820000000000003E-002    -1.3197251271330060E-045
  -2.5399999999999999E-002    -2.2372904325468739E-045
  -2.4980000000000002E-002     2.6584230533539439E-046
  -2.4559999999999998E-002     3.1895464751161411E-045
  -2.4140000000000002E-002     6.1648440237300333E-045
  -2.3719999999999998E-002     8.3435069584446884E-045
  -2.3300000000000001E-002     7.2219653241187121E-045
  -2.2879999999999998E-002    -2.6092894898347602E-045
  -2.2460000000000001E-002    -1.8811366576774147E-044
  -2.2039999999999997E-002    -2.8600198393879441E-044
  -2.1620000000000000E-002    -2.0542759712835610E-044
  -2.1199999999999997E-002     1.6745236079121305E-044
  -2.0780000000000000E-002     8.1047086839366743E-044
  -2.0359999999999996E-002     1.3950839600466389E-043
  -1.9939999999999999E-002     1.7460362121628926E-043
  -1.9519999999999996E-002     1.4854153281279993E-043
  -1.9099999999999999E-002    -2.2340974819838757E-045
  -1.8680000000000002E-002    -2.9841801771612540E-043
  -1.8259999999999998E-002    -6.5156419547577791E-043
  -1.7840000000000002E-002    -8.4701906853841521E-043
  -1.7420000000000005E-002    -6.4545841923990509E-043
  -1.7000000000000001E-002     1.4478418153838998E-043
  -1.6579999999999998E-002     1.4671794913605984E-042
  -1.6159999999999994E-002     2.8702717750230214E-042
  -1.5740000000000004E-002     3.5382830360375732E-042
  -1.5320000000000000E-002     2.4931028964689515E-042
  -1.4899999999999997E-002    -9.4257972901332601E-043
  -1.4479999999999993E-002    -6.4694186606733632E-042
  -1.4060000000000003E-002    -1.2152448083719598E-041
  -1.3639999999999999E-002    -1.4572034409441242E-041
  -1.3219999999999996E-002    -9.8409333366189408E-042
  -1.2799999999999992E-002     4.4240100748918323E-042
  -1.2380000000000002E-002     2.6471252008838693E-041
  -1.1959999999999998E-002     4.8551222121749234E-041
  -1.1539999999999995E-002     5.7430166100387385E-041
  -1.1120000000000005E-002     3.8573864767790006E-041
  -1.0700000000000001E-002    -1.6172922109372695E-041
  -1.0279999999999997E-002    -9.9466427106258416E-041
  -9.8599999999999938E-003    -1.8232999216686757E-040
  -9.4400000000000039E-003    -2.1671201013924679E-040
  -9.0200000000000002E-003    -1.5072096664708427E-040
  -8.5999999999999965E-003     4.4221995239279892E-041
  -8.1799999999999928E-003     3.4211424246710048E-040
  -7.7600000000000030E-003     6.4256954359157886E-040
  -7.3399999999999993E-003     7.8059638529034694E-040
  -6.9199999999999956E-003     5.7837332876947556E-040
  -6.4999999999999919E-003    -6.4279858283710103E-041
  -6.0800000000000021E-003    -1.0686006855638031E-039
  -5.6599999999999984E-003    -2.1137355118088879E-039
  -5.2399999999999947E-003    -2.6680101962363216E-039
  -4.8200000000000048E-003    -2.1512090874315099E-039
  -4.4000000000000011E-003    -2.1332202449923269E-040
  -3.9799999999999974E-003     2.9541345117421848E-039
  -3.5599999999999937E-003     6.4197555735237867E-039
  -3.1400000000000039E-003     8.5892601713008439E-039
  -2.7200000000000002E-003     7.6613995542620630E-039
  -2.2999999999999965E-003     2.4246481078048816E-039
  -1.8799999999999928E-003    -6.8346890410244971E-039
  -1.4600000000000030E-003    -1.7710148378270232E-038
  -1.0399999999999993E-003    -2.5784469393244138E-038
  -6.1999999999999555E-004    -2.5767104905219777E-038
  -1.9999999999999185E-004    -1.3593162546726571E-038
   2.1999999999999797E-004     1.1075993011160532E-038
   6.4000000000000168E-004     4.2948300478251013E-038
   1.0600000000000054E-003     7.0941153725320987E-038
   1.4799999999999952E-003     8.0588678847322041E-038
   1.8999999999999989E-003     5.9004439247214050E-038
   2.3200000000000026E-003     1.2383137336237115E-039
   2.7400000000000063E-003    -8.4189098482213750E-038
   3.1599999999999961E-003    -1.7325682191843953E-037
   3.5799999999999998E-003    -2.3008290901741894E-037
   4.0000000000000036E-003    -2.1682134769857518E-037
   4.4200000000000073E-003    -1.0810871366431205E-037
   4.8399999999999971E-003     9.3945472090910436E-038
   5.2600000000000008E-003     3.4967969696997650E-037
   5.6800000000000045E-003     5.8205928387572516E-037
   6.1000000000000082E-003     6.9052831820269268E-037
   6.5199999999999980E-003     5.7846178393885424E-037
   6.9400000000000017E-003     1.8983409495373665E-037
   7.3600000000000054E-003    -4.5349920496882965E-037
   7.7799999999999953E-003    -1.2256892088580941E-036
   8.1999999999999990E-003    -1.8950345845810597E-036
   8.6200000000000027E-003    -2.1579472339868488E-036
   9.0400000000000064E-003    -1.7148546712787978E-036
   9.4599999999999962E-003    -3.8356069741273025E-037
   9.8799999999999999E-003     1.7704346363091458E-036
   1.0300000000000004E-002     4.3265696846060566E-036
   1.0720000000000007E-002     6.4814149465384222E-036
   1.1139999999999997E-002     7.1605945585896846E-036
   1.1560000000000001E-002     5.3088565903603830E-036
   1.1980000000000005E-002     3.4121548297434775E-037
   1.2400000000000008E-002    -7.3469507934654450E-036
   1.2819999999999998E-002    -1.6004727934092588E-035
   1.3240000000000002E-002    -2.2534847604100309E-035
   1.3660000000000005E-002    -2.3104602228190396E-035
   1.4079999999999995E-002    -1.4418508557803747E-035
   1.4499999999999999E-002     4.5652520703871414E-036
   1.4920000000000003E-002     3.1020638256872142E-035
   1.5340000000000006E-002     5.7531490858499531E-035
   1.5759999999999996E-002     7.3043932382309649E-035
   1.6180000000000000E-002     6.5893010488236198E-035
   1.6600000000000004E-002     2.8540595622072263E-035
   1.7020000000000007E-002    -3.7296689166106276E-035
   1.7439999999999997E-002    -1.1723812670674937E-034
   1.7860000000000001E-002    -1.8481847575110497E-034
   1.8280000000000005E-002    -2.0750986187370565E-034
   1.8700000000000008E-002    -1.5780780780990514E-034
   1.9119999999999998E-002    -2.6593610234683471E-035
   1.9540000000000002E-002     1.6610843036808465E-034
   1.9960000000000006E-002     3.6854474357013958E-034
   2.0380000000000009E-002     5.0680585115210332E-034
   2.0799999999999999E-002     5.0663835559959170E-034
   2.1220000000000003E-002     3.2230785817281829E-034
   2.1640000000000006E-002    -3.7296162528433694E-035
   2.2059999999999996E-002    -4.9678303429947940E-034
   2.2480000000000000E-002    -9.2509772339452447E-034
   2.2900000000000004E-002    -1.1700044087477718E-033
   2.3320000000000007E-002    -1.1073055098199246E-033
   2.3739999999999997E-002    -6.8785255432030904E-034
   2.4160000000000001E-002     3.6481964642875225E-035
   2.4580000000000005E-002     9.2004359679396780E-034
   2.5000000000000008E-002     1.7622421002331056E-033
   2.5419999999999998E-002     2.3612101624916898E-033
   2.5840000000000002E-002     2.5570751055431280E-033
   2.6260000000000006E-002     2.2449100214379238E-033
   2.6680000000000009E-002     1.3572672844893340E-033
   2.7099999999999999E-002    -1.5717595867623172E-034
   2.7520000000000003E-002    -2.3145481628963487E-033
   2.7940000000000006E-002    -5.0001862901328319E-033
   2.8359999999999996E-002    -7.8033560360384001E-033
   2.8780000000000000E-002    -9.8575511681134255E-033
   2.9200000000000004E-002    -9.8249746862088360E-033
   2.9620000000000007E-002    -6.1767798360789202E-033
   3.0039999999999997E-002     2.1560949042327829E-033
   3.0460000000000001E-002     1.4861882124581617E-032
   3.0880000000000005E-002     2.9386467391315561E-032
   3.1300000000000008E-002     4.0645212949428296E-032
   3.1719999999999998E-002     4.1831719140969848E-032
   3.2140000000000002E-002     2.6581493000572639E-032
   3.2560000000000006E-002    -7.8023211165486865E-033
   3.2980000000000009E-002    -5.7050836548500610E-032
   3.3399999999999999E-002    -1.0811288421205485E-031
   3.3820000000000003E-002    -1.4045308705110635E-031
   3.4240000000000007E-002    -1.3142007497926699E-031
   3.4659999999999996E-002    -6.5176825835354215E-032
   3.5080000000000000E-002     5.7216069888618337E-032
   3.5500000000000004E-002     2.1060364921178755E-031
   3.5920000000000007E-002     3.4593083923699153E-031
   3.6339999999999997E-002     4.0091827138787451E-031
   3.6760000000000001E-002     3.2088301577112874E-031
   3.7180000000000005E-002     8.4698753561822420E-032
   3.7600000000000008E-002    -2.7338831622814200E-031
   3.8019999999999998E-002    -6.5712620368908995E-031
   3.8440000000000002E-002    -9.2533118881260156E-031
   3.8860000000000006E-002    -9.3394184479790459E-031
   3.9280000000000009E-002    -5.9385904801901027E-031
   3.9699999999999999E-002     7.4706261206966364E-032
   4.0120000000000003E-002     9.1570686548368592E-031
   4.0540000000000007E-002     1.6588682670496090E-030
   4.0960000000000010E-002     1.9953654532737377E-030
   4.1380000000000000E-002     1.6918095748140340E-030
   4.1800000000000004E-002     7.0512821850851959E-031
   4.2220000000000008E-002    -7.5078841523635794E-031
   4.2639999999999997E-002    -2.2291101867594536E-030
   4.3060000000000001E-002    -3.1791883276604161E-030
   4.3480000000000005E-002    -3.1521157365659266E-030
   4.3900000000000008E-002    -2.0111417145971308E-030
   4.4319999999999998E-002    -5.2723863183192359E-032
   4.4740000000000002E-002     2.0410380781782123E-030
   4.5159999999999992E-002     3.4404722670386456E-030
   4.5579999999999996E-002     3.5327574457632929E-030
   4.5999999999999999E-002     2.2665460805888284E-030
   4.6420000000000003E-002     2.9441594582563189E-031
   4.6840000000000007E-002    -1.2253053377390605E-030
   4.7260000000000010E-002    -1.1750653606239477E-030
   4.7680000000000014E-002     8.0269770123628102E-031
   4.8099999999999990E-002     3.7520919357183249E-030
   4.8519999999999994E-002     5.4042833254743794E-030
   4.8939999999999997E-002     2.9855765179634670E-030
   4.9360000000000001E-002    -5.2411100865511566E-030
   4.9780000000000005E-002    -1.8211540737468792E-029
   5.0200000000000009E-002    -3.0951785927463282E-029
   5.0620000000000012E-002    -3.5091368347831396E-029
   5.1040000000000016E-002    -2.1592947334050901E-029
   5.1459999999999992E-002     1.4557021707281502E-029
   5.1879999999999996E-002     6.9089230518404363E-029
   5.2299999999999999E-002     1.2501963385790534E-028
   5.2720000000000003E-002     1.5376903998507981E-028
   5.3140000000000007E-002     1.2274322526492837E-028
   5.3560000000000010E-002     9.1704221769876016E-030
   5.3980000000000014E-002    -1.8304908519567530E-028
   5.4400000000000018E-002    -4.0975986059493750E-028
   5.4819999999999994E-002    -5.8418480269947166E-028
   5.5239999999999997E-002    -5.9269397698666091E-028
   5.5660000000000001E-002    -3.3110636898345245E-028
   5.6080000000000005E-002     2.4373416351339404E-028
   5.6500000000000009E-002     1.0613947714481868E-027
   5.6920000000000012E-002     1.9058985247806232E-027
   5.7340000000000016E-002     2.4279189873405170E-027
   5.7759999999999992E-002     2.2181384738506579E-027
   5.8179999999999996E-002     9.4270246611988882E-028
   5.8599999999999999E-002    -1.4819264853567313E-027
   5.9020000000000003E-002    -4.7230269542808025E-027
   5.9440000000000007E-002    -7.9419878399041286E-027
   5.9860000000000010E-002    -9.8514957206507000E-027
   6.0280000000000014E-002    -8.9694548715231025E-027
   6.0700000000000018E-002    -4.0725887313344097E-027
   6.1119999999999994E-002     5.2159706497216684E-027
   6.1539999999999997E-002     1.7847195073821466E-026
   6.1960000000000001E-002     3.0980063026918922E-026
   6.2380000000000005E-002     4.0058272357824172E-026
   6.2800000000000009E-002     3.9520199962745194E-026
   6.3220000000000012E-002     2.4215473019463700E-026
   6.3640000000000016E-002    -8.5929850571523078E-027
   6.4059999999999992E-002    -5.7009666618396314E-026
   6.4479999999999996E-002    -1.1268926528205406E-025
   6.4899999999999999E-002    -1.6022099243669254E-025
   6.5320000000000003E-002    -1.7853455302143619E-025
   6.5740000000000007E-002    -1.4492527536284272E-025
   6.6160000000000010E-002    -4.1769889932392854E-026
   6.6580000000000014E-002     1.3481706943376648E-025
   6.7000000000000018E-002     3.6615569476846688E-025
   6.7419999999999994E-002     6.0477914974590386E-025
   6.7839999999999998E-002     7.7425604061747728E-025
   6.8260000000000001E-002     7.7841867523502623E-025
   6.8680000000000005E-002     5.2214934103077362E-025
   6.9100000000000009E-002    -5.6683577339306207E-026
   6.9520000000000012E-002    -9.4840466466496637E-025
   6.9940000000000016E-002    -2.0346734535446070E-024
   7.0359999999999992E-002    -3.0666599081636056E-024
   7.0779999999999996E-002    -3.6736429055065954E-024
   7.1199999999999999E-002    -3.4159591571316256E-024
   7.1620000000000003E-002    -1.8895079191904341E-024
   7.2040000000000007E-002     1.1237387787168693E-024
   7.2460000000000011E-002     5.4825498831819269E-024
   7.2880000000000014E-002     1.0533803938033162E-023
   7.3300000000000018E-002     1.5040210090557340E-023
   7.3719999999999994E-002     1.7254596039608734E-023
   7.4139999999999998E-002     1.5195777990698218E-023
   7.4560000000000001E-002     7.1465809751800912E-024
   7.4980000000000005E-002    -7.6640740867695533E-024
   7.5400000000000009E-002    -2.8310241810696183E-023
   7.5820000000000012E-002    -5.1545560800866227E-023
   7.6240000000000016E-002    -7.1565766164600717E-023
   7.6659999999999992E-002    -8.0430538261941871E-023
   7.7079999999999996E-002    -6.9357152895622779E-023
   7.7499999999999999E-002    -3.0943621004228157E-023
   7.7920000000000003E-002     3.7870288442931335E-023
   7.8340000000000007E-002     1.3261211153436176E-022
   7.8760000000000011E-002     2.3868571323446376E-022
   7.9180000000000014E-002     3.3044687010067045E-022
   7.9600000000000018E-002     3.7305388639333942E-022
   8.0019999999999994E-002     3.2794340014492464E-022
   8.0439999999999998E-002     1.6215267531323171E-022
   8.0860000000000001E-002    -1.3928240751638458E-022
   8.1280000000000005E-002    -5.5987599917775482E-022
   8.1700000000000009E-002    -1.0404892607590468E-021
   8.2120000000000012E-002    -1.4746337076633882E-021
   8.2540000000000016E-002    -1.7147717565700882E-021
   8.2959999999999992E-002    -1.5931968589246294E-021
   8.3379999999999996E-002    -9.5875910784847054E-022
   8.3799999999999999E-002     2.7304599191916935E-022
   8.4220000000000003E-002     2.0639081026203302E-021
   8.4640000000000007E-002     4.2028346067717618E-021
   8.5060000000000011E-002     6.2790311862548477E-021
   8.5480000000000014E-002     7.6955665817870798E-021
   8.5900000000000018E-002     7.7394038695113663E-021
   8.6319999999999994E-002     5.7155948655298107E-021
   8.6739999999999998E-002     1.1402619032673746E-021
   8.7160000000000001E-002    -6.0309015611974631E-021
   8.7580000000000005E-002    -1.5181662404645452E-020
   8.8000000000000009E-002    -2.4882384339886117E-020
   8.8420000000000012E-002    -3.2875723895385218E-020
   8.8840000000000016E-002    -3.6267617100609841E-020
   8.9259999999999992E-002    -3.1968029851995786E-020
   8.9679999999999996E-002    -1.7382957366982937E-020
   9.0100000000000000E-002     8.7030608989986954E-021
   9.0520000000000003E-002     4.5188576400605767E-020
   9.0940000000000007E-002     8.7868160384828228E-020
   9.1360000000000011E-002     1.2905669270324555E-019
   9.1780000000000014E-002     1.5789694368840007E-019
   9.2200000000000018E-002     1.6157367566915729E-019
   9.2619999999999994E-002     1.2753536290319530E-019
   9.3039999999999998E-002     4.6625703382495763E-020
   9.3460000000000001E-002    -8.3228029480957809E-020
   9.3880000000000005E-002    -2.5340383208697957E-019
   9.4300000000000009E-002    -4.4192798534234591E-019
   9.4720000000000013E-002    -6.1279480493532250E-019
   9.5140000000000016E-002    -7.1824273812106728E-019
   9.5559999999999992E-002    -7.0469734769639733E-019
   9.5979999999999996E-002    -5.2253741408520533E-019
   9.6400000000000000E-002    -1.3904409783726302E-019
   9.6820000000000003E-002     4.4707973930692917E-019
   9.7240000000000007E-002     1.1922239488836733E-018
   9.7660000000000011E-002     1.9988247374105106E-018
   9.8080000000000014E-002     2.7145235437528837E-018
   9.8500000000000018E-002     3.1429706651920210E-018
   9.8919999999999994E-002     3.0685272413540364E-018
   9.9339999999999998E-002     2.2949833914295174E-018
   9.9760000000000001E-002     6.9547184838776151E-019
  0.10018000000000001         -1.7327049463008106E-018
  0.10060000000000001         -4.8180003101159653E-018
  0.10102000000000001         -8.1816073775105580E-018
  0.10144000000000002         -1.1234801845542530E-017
  0.10185999999999999         -1.3218607408016242E-017
  0.10228000000000000         -1.3293423588617424E-017
  0.10270000000000000         -1.0678909737909576E-017
  0.10312000000000000         -4.8343090829071957E-018
  0.10354000000000001          4.3421415024264914E-018
  0.10396000000000001          1.6327489905561006E-017
  0.10438000000000001          2.9843671287071101E-017
  0.10480000000000002          4.2827575681323759E-017
  0.10521999999999999          5.2543114039862212E-017
  0.10564000000000000          5.5863238737684063E-017
  0.10606000000000000          4.9727218409205092E-017
  0.10648000000000001          3.1746468710929506E-017
  0.10690000000000001          8.9546014040820991E-019
  0.10732000000000001         -4.1812555968261179E-017
  0.10774000000000002         -9.2796351566956537E-017
  0.10815999999999999         -1.4567000210620513E-016
  0.10858000000000000         -1.9143907210286201E-016
  0.10900000000000000         -2.1923630734110962E-016
  0.10942000000000000         -2.1763917897827455E-016
  0.10984000000000001         -1.7652173154770722E-016
  0.11026000000000001         -8.9282720625009944E-017
  0.11068000000000001          4.4823213485667226E-017
  0.11110000000000002          2.1862573268101404E-016
  0.11151999999999999          4.1569186715346121E-016
  0.11194000000000000          6.1014275051875581E-016
  0.11236000000000000          7.6802041673109504E-016
  0.11278000000000001          8.5044200338822238E-016
  0.11320000000000001          8.1854724711132780E-016
  0.11362000000000001          6.3994826821771383E-016
  0.11404000000000002          2.9605941858641601E-016
  0.11446000000000002         -2.1063522637687573E-016
  0.11488000000000000         -8.5057394755584979E-016
  0.11530000000000000         -1.5636892624164562E-015
  0.11572000000000000         -2.2598373220279355E-015
  0.11614000000000001         -2.8240865894774940E-015
  0.11656000000000001         -3.1273805949859392E-015
  0.11698000000000001         -3.0423908767319251E-015
  0.11740000000000002         -2.4635140560712259E-015
  0.11781999999999999         -1.3290872071953165E-015
  0.11824000000000000          3.5695237397274610E-016
  0.11866000000000000          2.5073414717211138E-015
  0.11908000000000001          4.9413384711504000E-015
  0.11950000000000001          7.3855530630143319E-015
  0.11992000000000001          9.4884221594813075E-015
  0.12034000000000002          1.0849625694647323E-014
  0.12076000000000002          1.1063964737195427E-014
  0.12118000000000000          9.7770006037111764E-015
  0.12160000000000000          6.7475849321117670E-015
  0.12202000000000000          1.9102316597228929E-015
  0.12244000000000001         -4.5711389517433776E-015
  0.12286000000000001         -1.2267366118105941E-014
  0.12328000000000001         -2.0474995125508070E-014
  0.12370000000000002         -2.8241207265997692E-014
  0.12411999999999999         -3.4427080205582945E-014
  0.12454000000000000         -3.7809485175275834E-014
  0.12496000000000000         -3.7217001672789794E-014
  0.12537999999999999         -3.1690172225971197E-014
  0.12580000000000002         -2.0651265638423280E-014
  0.12622000000000000         -4.0649127843526689E-015
  0.12664000000000003          1.7431903044979813E-014
  0.12706000000000001          4.2452045356689810E-014
  0.12747999999999998          6.8852525127257626E-014
  0.12790000000000001          9.3815857840327446E-014
  0.12831999999999999          1.1402656452077064E-013
  0.12874000000000002          1.2594135258204998E-013
  0.12916000000000000          1.2614144169046313E-013
  0.12958000000000003          1.1174394559958897E-013
  0.13000000000000000          8.0839275301713318E-014
  0.13041999999999998          3.2913068877323349E-014
  0.13084000000000001         -3.0795098535061852E-014
  0.13125999999999999         -1.0704492798409968E-013
  0.13168000000000002         -1.9050691393153687E-013
  0.13210000000000000         -2.7387096923162478E-013
  0.13252000000000003         -3.4817869046077742E-013
  0.13294000000000000         -4.0338851553973871E-013
  0.13336000000000003         -4.2916308249354753E-013
  0.13378000000000001         -4.1584612029002377E-013
  0.13419999999999999         -3.5557197486993948E-013
  0.13462000000000002         -2.4342909849948093E-013
  0.13503999999999999         -7.8580359389990892E-014
  0.13546000000000002          1.3477236467145502E-013
  0.13588000000000000          3.8669829781105249E-013
  0.13630000000000003          6.6124017440196540E-013
  0.13672000000000001          9.3661555111623072E-013
  0.13713999999999998          1.1859998194341291E-012
  0.13756000000000002          1.3789419269963145E-012
  0.13797999999999999          1.4834137303988715E-012
  0.13840000000000002          1.4684476923404371E-012
  0.13882000000000000          1.3072435698425879E-012
  0.13924000000000003          9.8057433018421878E-013
  0.13966000000000001          4.8024499317584602E-013
  0.14007999999999998         -1.8769063669059059E-013
  0.14050000000000001         -1.0002937944649094E-012
  0.14091999999999999         -1.9160441522804343E-012
  0.14134000000000002         -2.8744393882248530E-012
  0.14176000000000000         -3.7972052075383229E-012
  0.14218000000000003         -4.5913495624171224E-012
  0.14260000000000000         -5.1541997010340782E-012
  0.14301999999999998         -5.3803885454696487E-012
  0.14344000000000001         -5.1706053260368948E-012
  0.14385999999999999         -4.4417052694287941E-012
  0.14428000000000002         -3.1375988641179673E-012
  0.14470000000000000         -1.2401275539430937E-012
  0.14512000000000003          1.2210149354826954E-012
  0.14554000000000000          4.1603633038587084E-012
  0.14596000000000003          7.4318551627709483E-012
  0.14638000000000001          1.0828141056999847E-011
  0.14679999999999999          1.4084944908982669E-011
  0.14722000000000002          1.6891097612586974E-011
  0.14763999999999999          1.8904601906267035E-011
  0.14806000000000002          1.9774547268724784E-011
  0.14848000000000000          1.9168297946410235E-011
  0.14890000000000003          1.6802731531874878E-011
  0.14932000000000001          1.2477851729912841E-011
  0.14973999999999998          6.1105239975156430E-012
  0.15016000000000002         -2.2343425422809696E-012
  0.15057999999999999         -1.2318071975809227E-011
  0.15100000000000002         -2.3711050478908791E-011
  0.15142000000000000         -3.5787068871858997E-011
  0.15184000000000003         -4.7731830332348565E-011
  0.15226000000000001         -5.8567628275127327E-011
  0.15267999999999998         -6.7195495356323341E-011
  0.15310000000000001         -7.2454803745125426E-011