  -4.0000000000000001E-002     0.0000000000000000
  -3.9899999999999998E-002     0.0000000000000000
  -3.9800000000000002E-002     0.0000000000000000
  -3.9699999999999999E-002    -1.6882934973219606E-017
  -3.9600000000000003E-002    -1.7129057601401084E-016
  -3.9500000000000000E-002     2.1984774027303255E-015
  -3.9399999999999998E-002    -7.0338997331620064E-018
  -3.9300000000000002E-002     2.0213734860745868E-014
  -3.9199999999999999E-002     2.9380076388245413E-014
  -3.9100000000000003E-002     1.1482454527131369E-013
  -3.9000000000000000E-002     1.3578751296115799E-013
  -3.8900000000000004E-002     2.5327916847173171E-013
  -3.8800000000000001E-002    -1.2703943291488082E-014
  -3.8699999999999998E-002     5.6014204776258514E-013
  -3.8600000000000002E-002     2.7853430282706593E-013
  -3.8500000000000000E-002     3.3023483578774326E-014
  -3.8400000000000004E-002    -3.7349141249372331E-013
  -3.8300000000000001E-002    -4.4354243314195102E-014
  -3.8199999999999998E-002    -7.5211354071819114E-013
  -3.8100000000000002E-002     3.5639229740112854E-013
  -3.7999999999999999E-002    -5.8197557016581580E-012
  -3.7900000000000003E-002    -5.9193231913279298E-013
  -3.7800000000000000E-002     3.8189009246569761E-012
  -3.7699999999999997E-002    -2.0135483991962078E-012
  -3.7600000000000001E-002    -5.3747640019197185E-012
  -3.7499999999999999E-002     3.5857525716026517E-012
  -3.7400000000000003E-002     7.1356213039025507E-013
  -3.7300000000000000E-002     3.3519502277978841E-012
  -3.7200000000000004E-002     3.7083647784486029E-012
  -3.7100000000000001E-002     1.1131468143077416E-011
  -3.6999999999999998E-002     1.1326005237843884E-011
  -3.6900000000000002E-002     3.2988100098774176E-012
  -3.6799999999999999E-002     2.0486818838594267E-011
  -3.6700000000000003E-002     2.8963886844479703E-011
  -3.6600000000000001E-002    -1.5653268611859339E-011
  -3.6499999999999998E-002     5.4516898807810410E-012
  -3.6400000000000002E-002     3.7843877337406795E-011
  -3.6299999999999999E-002     6.3637454680853800E-012
  -3.6200000000000003E-002     2.0884538889931470E-011
  -3.6100000000000000E-002     3.0029621150839958E-011
  -3.6000000000000004E-002    -5.0902884338177579E-012
  -3.5900000000000001E-002    -1.4194894391861279E-011
  -3.5799999999999998E-002     1.7095680773793198E-011
  -3.5700000000000003E-002     3.7310762118769603E-011
  -3.5600000000000000E-002    -2.6662285660533636E-012
  -3.5500000000000004E-002    -5.5336128040872623E-011
  -3.5400000000000001E-002    -4.9963637394068172E-011
  -3.5299999999999998E-002    -3.0387869304204784E-011
  -3.5200000000000002E-002    -1.2898485231283008E-011
  -3.5099999999999999E-002    -4.7949245268741336E-011
  -3.5000000000000003E-002     2.4513169272211144E-011
  -3.4900000000000000E-002    -3.1772307007571499E-011
  -3.4799999999999998E-002    -9.3013083346527026E-011
  -3.4700000000000002E-002    -8.6252213704618441E-011
  -3.4599999999999999E-002    -2.2110263273034114E-011
  -3.4500000000000003E-002     1.0540520713198109E-011
  -3.4400000000000000E-002    -4.9588293540847594E-012
  -3.4299999999999997E-002    -4.5675043608417454E-011
  -3.4200000000000001E-002     1.1224074447646615E-010
  -3.4099999999999998E-002     1.0259521010524963E-010
  -3.4000000000000002E-002     1.2870995935720941E-010
  -3.3900000000000000E-002     1.5129185404472167E-010
  -3.3799999999999997E-002     2.8533558849019869E-010
  -3.3700000000000001E-002     2.1245583070594876E-010
  -3.3599999999999998E-002     2.9096336451317484E-010
  -3.3500000000000002E-002     2.5461818764505040E-010
  -3.3399999999999999E-002     3.4059899345351141E-010
  -3.3300000000000003E-002     4.0093445230482416E-010
  -3.3200000000000000E-002     2.5301999384552687E-010
  -3.3099999999999997E-002     3.7231209781829477E-010
  -3.3000000000000002E-002     8.5738631472320748E-011
  -3.2899999999999999E-002     1.2965688245270002E-010
  -3.2800000000000003E-002     3.3158462087179430E-010
  -3.2700000000000000E-002     7.2525607741624754E-010
  -3.2600000000000004E-002     4.8511822337005128E-010
  -3.2500000000000001E-002     4.3070935706879254E-010
  -3.2399999999999998E-002    -1.1312085990144993E-010
  -3.2300000000000002E-002    -1.1376605907331694E-010
  -3.2199999999999999E-002    -8.1743778412857182E-010
  -3.2100000000000004E-002     1.6393493507127488E-010
  -3.2000000000000001E-002    -5.9085319970009209E-010
  -3.1899999999999998E-002    -4.5787251767848147E-010
  -3.1800000000000002E-002    -5.5730892123406761E-010
  -3.1699999999999999E-002    -5.1441129134133234E-010
  -3.1600000000000003E-002    -6.8507299832987201E-010
  -3.1500000000000000E-002    -5.7791144092433910E-010
  -3.1399999999999997E-002    -7.8985828988464846E-010
  -3.1300000000000001E-002    -2.4446708546399520E-010
  -3.1199999999999999E-002    -3.4419775363225824E-010
  -3.1100000000000003E-002    -1.4066471598628283E-010
  -3.1000000000000000E-002    -1.7271242769290041E-010
  -3.0900000000000000E-002    -1.2136791571748518E-010
  -3.0800000000000001E-002     4.7713921702552398E-010
  -3.0699999999999998E-002     4.6611242643379569E-010
  -3.0600000000000002E-002     8.6014195765926615E-010
  -3.0499999999999999E-002     7.7841855183891084E-010
  -3.0400000000000000E-002     5.9821797515624553E-010
  -3.0300000000000001E-002     1.4485832533495113E-009
  -3.0200000000000001E-002     8.4655893406448968E-010
  -3.0100000000000002E-002     3.1090768848329731E-010
  -2.9999999999999999E-002     6.8328914748505554E-010
  -2.9899999999999999E-002     8.3627033076183466E-010
  -2.9800000000000000E-002     1.5341025672022113E-010
  -2.9700000000000001E-002    -4.1908690406877724E-010
  -2.9600000000000001E-002    -6.9676142633312566E-010
  -2.9499999999999998E-002    -1.1427949697662143E-009
  -2.9400000000000003E-002     1.0093192254201355E-010
  -2.9300000000000000E-002    -1.8499817233674776E-009
  -2.9200000000000000E-002    -2.0643189380109561E-009
  -2.9100000000000001E-002    -3.4951752603262776E-009
  -2.8999999999999998E-002    -4.8590411694249269E-009
  -2.8900000000000002E-002    -6.2617426799249642E-009
  -2.8799999999999999E-002    -4.7347179510381920E-009
  -2.8700000000000000E-002    -4.9476152064187318E-009
  -2.8600000000000000E-002    -5.7324966995508930E-009
  -2.8500000000000001E-002    -5.9936287044592973E-009
  -2.8400000000000002E-002    -6.2437344183763344E-009
  -2.8299999999999999E-002    -2.7810160840857634E-009
  -2.8200000000000003E-002    -4.4713508451366124E-009
  -2.8100000000000000E-002    -5.1634065911798643E-009
  -2.8000000000000001E-002    -1.9809502926904088E-009
  -2.7900000000000001E-002    -1.8450616590115487E-009
  -2.7799999999999998E-002    -1.1534622146314177E-009
  -2.7700000000000002E-002     3.1857383397948524E-010
  -2.7600000000000000E-002     3.6376774925628297E-009
  -2.7500000000000000E-002     5.2781263804035916E-009
  -2.7400000000000001E-002     5.0974349186105883E-009
  -2.7299999999999998E-002     5.5032054468995284E-009
  -2.7200000000000002E-002     6.4008438549478797E-009
  -2.7099999999999999E-002     3.5382989871379777E-009
  -2.7000000000000000E-002     6.5166538831817888E-009
  -2.6900000000000000E-002     8.4935294353272184E-009
  -2.6800000000000001E-002     1.0529920047019914E-008
  -2.6700000000000002E-002     1.2070640487138462E-008
  -2.6599999999999999E-002     6.7359526845223172E-009
  -2.6500000000000003E-002     8.6751601457990546E-009
  -2.6400000000000000E-002     1.2017350670134874E-008
  -2.6300000000000000E-002     1.2621415024227645E-008
  -2.6200000000000001E-002     1.0516465032139877E-008
  -2.6099999999999998E-002     6.9647958511609431E-009
  -2.6000000000000002E-002     1.9411383611611654E-009
  -2.5899999999999999E-002     5.0499533443826294E-009
  -2.5800000000000000E-002    -4.9710728866614318E-009
  -2.5700000000000001E-002    -1.5550499776750826E-009
  -2.5599999999999998E-002    -7.0209251745723122E-009
  -2.5500000000000002E-002    -1.6014030990163519E-008
  -2.5399999999999999E-002    -1.9101575432500795E-008
  -2.5300000000000000E-002    -1.9847291810037859E-008
  -2.5200000000000000E-002    -2.9036892001954584E-008
  -2.5100000000000001E-002    -3.8034663418784476E-008
  -2.5000000000000001E-002    -3.0705063380764841E-008
  -2.4899999999999999E-002    -3.5014419808021557E-008
  -2.4800000000000003E-002    -4.1962159968988999E-008
  -2.4700000000000000E-002    -4.7079630860480393E-008
  -2.4600000000000000E-002    -4.7311043971376421E-008
  -2.4500000000000001E-002    -4.2766657770698657E-008
  -2.4399999999999998E-002    -4.8597623703017234E-008
  -2.4299999999999999E-002    -4.2785483600482621E-008
  -2.4199999999999999E-002    -4.1118497051684244E-008
  -2.4100000000000000E-002    -3.8146598768662443E-008
  -2.4000000000000000E-002    -1.9537147011305933E-008
  -2.3900000000000001E-002    -1.8150632996594140E-008
  -2.3800000000000002E-002     7.4633232927112658E-009
  -2.3699999999999999E-002     1.6917415024408911E-008
  -2.3599999999999999E-002     3.2757458967580533E-008
  -2.3500000000000000E-002     4.6357971683619326E-008
  -2.3400000000000001E-002     6.7511564338929020E-008
  -2.3300000000000001E-002     5.7204765369078814E-008
  -2.3199999999999998E-002     6.2375548282034288E-008
  -2.3099999999999999E-002     7.2815041107787692E-008
  -2.3000000000000000E-002     1.0518951398807985E-007
  -2.2900000000000000E-002     1.1596917204315105E-007
  -2.2800000000000001E-002     1.1634024588147440E-007
  -2.2700000000000001E-002     1.0184552934333624E-007
  -2.2599999999999999E-002     8.8317847257712856E-008
  -2.2499999999999999E-002     1.0864913235764107E-007
  -2.2400000000000000E-002     1.0135002526112658E-007
  -2.2300000000000000E-002     9.5695583013366559E-008
  -2.2200000000000001E-002     6.6936038933818054E-008
  -2.2100000000000002E-002     1.7728895684854251E-008
  -2.1999999999999999E-002     1.3420281774756404E-008
  -2.1899999999999999E-002    -3.1947255507702721E-008
  -2.1800000000000000E-002    -8.7935056569676817E-008
  -2.1700000000000001E-002    -1.1909710906365945E-007
  -2.1600000000000001E-002    -1.0630377289544413E-007
  -2.1499999999999998E-002    -1.9312767562951194E-007
  -2.1399999999999999E-002    -1.8454782946264459E-007
  -2.1299999999999999E-002    -2.1631885260831041E-007
  -2.1200000000000000E-002    -2.3847621832828736E-007
  -2.1100000000000001E-002    -2.8943605911990744E-007
  -2.1000000000000001E-002    -2.5639792511356063E-007
  -2.0899999999999998E-002    -2.5229672928617219E-007
  -2.0799999999999999E-002    -2.5028177219610370E-007
  -2.0700000000000000E-002    -2.0582416482284316E-007
  -2.0600000000000000E-002    -1.3894455719309917E-007
  -2.0500000000000001E-002    -1.6542367120564450E-007
  -2.0400000000000001E-002    -3.6123253721598303E-008
  -2.0299999999999999E-002     4.3867821375442873E-008
  -2.0199999999999999E-002     1.2736211374431150E-007
  -2.0100000000000000E-002     1.4620601973547309E-007
  -2.0000000000000000E-002     3.2613681355542212E-007
  -1.9900000000000001E-002     3.9689481923232961E-007
  -1.9799999999999998E-002     4.1814789142335940E-007
  -1.9699999999999999E-002     5.3377800668386044E-007
  -1.9599999999999999E-002     6.4529143628533348E-007
  -1.9500000000000000E-002     7.0955519504423137E-007
  -1.9400000000000001E-002     7.5103389463038184E-007
  -1.9300000000000001E-002     8.4016681967113982E-007
  -1.9199999999999998E-002     7.1977717652771389E-007
  -1.9099999999999999E-002     7.4667434546427103E-007
  -1.9000000000000000E-002     8.2337874118820764E-007
  -1.8900000000000000E-002     7.0569620902460883E-007
  -1.8800000000000001E-002     7.2503405590396142E-007
  -1.8700000000000001E-002     6.6866164161183406E-007
  -1.8599999999999998E-002     5.7137856401823228E-007
  -1.8499999999999999E-002     4.9738673624233343E-007
  -1.8400000000000000E-002     3.2473607802785409E-007
  -1.8300000000000000E-002     3.5556206512410427E-007
  -1.8200000000000001E-002     1.6119965096095257E-007
  -1.8100000000000002E-002    -1.8422882419599773E-007
  -1.7999999999999999E-002    -2.2186476655861043E-007
  -1.7899999999999999E-002    -4.0003163803703501E-007
  -1.7800000000000000E-002    -5.1044878546235850E-007
  -1.7700000000000000E-002    -6.9037258754178765E-007
  -1.7600000000000001E-002    -8.2315972349533695E-007
  -1.7499999999999998E-002    -9.9948204024258303E-007
  -1.7399999999999999E-002    -1.0706230568757746E-006
  -1.7299999999999999E-002    -1.1790566531999502E-006
  -1.7200000000000000E-002    -1.3675980881089345E-006
  -1.7100000000000001E-002    -1.4336784488477861E-006
  -1.7000000000000001E-002    -1.4526808627124410E-006
  -1.6899999999999998E-002    -1.6879035911188112E-006
  -1.6799999999999999E-002    -1.8150578853237676E-006
  -1.6700000000000000E-002    -2.2594922484131530E-006
  -1.6600000000000000E-002    -2.1308494524419075E-006
  -1.6500000000000001E-002    -2.6734094262792496E-006
  -1.6400000000000001E-002    -2.3463890101993456E-006
  -1.6299999999999999E-002    -2.5995682335633319E-006
  -1.6199999999999999E-002    -2.8099887003918411E-006
  -1.6100000000000000E-002    -2.8273668704059673E-006
  -1.6000000000000000E-002    -2.5820202154136496E-006
  -1.5900000000000001E-002    -2.9700290724576917E-006
  -1.5799999999999998E-002    -2.7594578568823636E-006
  -1.5699999999999999E-002    -2.4993069018819369E-006
  -1.5599999999999999E-002    -2.2434992388298269E-006
  -1.5500000000000000E-002    -1.7683942132862285E-006
  -1.5400000000000000E-002    -1.2335336805335828E-006
  -1.5300000000000001E-002    -9.5342994654856739E-007
  -1.5199999999999998E-002    -2.6430035404700902E-007
  -1.5099999999999999E-002     2.1349919165913889E-007
  -1.4999999999999999E-002     1.1950002090088674E-006
  -1.4900000000000000E-002     1.9784329197136685E-006
  -1.4800000000000001E-002     3.1912902613839833E-006
  -1.4700000000000001E-002     3.5464770462567685E-006
  -1.4599999999999998E-002     4.7463072405662388E-006
  -1.4499999999999999E-002     6.1598475440405309E-006
  -1.4400000000000000E-002     6.3671409407106694E-006
  -1.4300000000000000E-002     7.1527397267345805E-006
  -1.4200000000000001E-002     7.0802193476993125E-006
  -1.4099999999999998E-002     7.7259810495888814E-006
  -1.3999999999999999E-002     7.7363119999063201E-006
  -1.3899999999999999E-002     7.6021892709832173E-006
  -1.3800000000000000E-002     7.2250522862304933E-006
  -1.3700000000000000E-002     5.4231059039011598E-006
  -1.3600000000000001E-002     5.0181984079245012E-006
  -1.3499999999999998E-002     4.1240336940973066E-006
  -1.3399999999999999E-002     2.0853226487815846E-006
  -1.3299999999999999E-002    -1.2715286175080109E-006
  -1.3200000000000000E-002    -2.3400043573928997E-006
  -1.3100000000000001E-002    -5.5704381338728126E-006
  -1.3000000000000001E-002    -8.1485432019690052E-006
  -1.2899999999999998E-002    -8.8121023509302177E-006
  -1.2799999999999999E-002    -1.2156253433204256E-005
  -1.2699999999999999E-002    -1.6040094124036841E-005
  -1.2600000000000000E-002    -1.7664537153905258E-005
  -1.2500000000000001E-002    -2.0781744751730002E-005
  -1.2399999999999998E-002    -1.9561735825845972E-005
  -1.2299999999999998E-002    -2.2419879314838909E-005
  -1.2199999999999999E-002    -2.2111551515990868E-005
  -1.2100000000000000E-002    -2.0095607396797277E-005
  -1.2000000000000000E-002    -2.0606008547474630E-005
  -1.1900000000000001E-002    -1.8866929167415947E-005
  -1.1799999999999998E-002    -1.6341229638783261E-005
  -1.1699999999999999E-002    -1.5645382518414408E-005
  -1.1599999999999999E-002    -1.1402930795156863E-005
  -1.1500000000000000E-002    -8.6330774138332345E-006
  -1.1400000000000000E-002    -4.2233396015944891E-006
  -1.1300000000000001E-002     2.2767083009966882E-006
  -1.1199999999999998E-002     8.1307071013725363E-006
  -1.1099999999999999E-002     1.0663925422704779E-005
  -1.0999999999999999E-002     1.8069058569381014E-005
  -1.0900000000000000E-002     2.1688041670131497E-005
  -1.0800000000000001E-002     2.3520109607488848E-005
  -1.0699999999999998E-002     2.9735845600953326E-005
  -1.0599999999999998E-002     3.4509284887462854E-005
  -1.0499999999999999E-002     3.8713187677785754E-005
  -1.0400000000000000E-002     4.0284961869474500E-005
  -1.0300000000000000E-002     4.2588915675878525E-005
  -1.0200000000000001E-002     4.2567648051772267E-005
  -1.0099999999999998E-002     4.2841835238505155E-005
  -9.9999999999999985E-003     4.5357468479778618E-005
  -9.8999999999999991E-003     4.0092210838338360E-005
  -9.7999999999999997E-003     3.8679594581481069E-005
  -9.7000000000000003E-003     2.8262948035262525E-005
  -9.6000000000000009E-003     2.7967376809101552E-005
  -9.4999999999999980E-003     2.4732718884479254E-005
  -9.3999999999999986E-003     1.3068164662399795E-005
  -9.2999999999999992E-003     8.8623928604647517E-006
  -9.1999999999999998E-003     1.1161629345224355E-006
  -9.1000000000000004E-003    -1.1138726222270634E-005
  -9.0000000000000011E-003    -1.2662174412980676E-005
  -8.8999999999999982E-003    -1.9039727703784592E-005
  -8.7999999999999988E-003    -2.7460257115308195E-005
  -8.6999999999999994E-003    -2.8301679776632227E-005
  -8.5999999999999965E-003    -3.7754965887870640E-005
  -8.5000000000000006E-003    -5.1340564823476598E-005
  -8.3999999999999977E-003    -5.1376631745370105E-005
  -8.3000000000000018E-003    -5.1710841944441199E-005
  -8.1999999999999990E-003    -5.0044018280459568E-005
  -8.0999999999999961E-003    -5.6150707678170875E-005
  -8.0000000000000002E-003    -4.9088357627624646E-005
  -7.8999999999999973E-003    -4.9769554607337341E-005
  -7.8000000000000014E-003    -3.9965358155313879E-005
  -7.6999999999999985E-003    -4.5335211325436831E-005
  -7.6000000000000026E-003    -4.1431263525737450E-005
  -7.4999999999999997E-003    -4.7365567297674716E-005
  -7.3999999999999969E-003    -3.0710398277733475E-005
  -7.3000000000000009E-003    -2.8555927201523446E-005
  -7.1999999999999981E-003    -2.2414451450458728E-005
  -7.1000000000000021E-003    -1.9575889382394962E-005
  -6.9999999999999993E-003    -9.9385333669488318E-006
  -6.8999999999999964E-003     2.2614644876739476E-006
  -6.8000000000000005E-003     7.4267113632231485E-006
  -6.6999999999999976E-003     1.9270140910521150E-005
  -6.6000000000000017E-003     2.7008582037524320E-005
  -6.4999999999999988E-003     5.3105057304492220E-005
  -6.3999999999999960E-003     6.4467523770872504E-005
  -6.3000000000000000E-003     7.2285482019651681E-005
  -6.1999999999999972E-003     9.2381080321501940E-005
  -6.1000000000000013E-003     1.1882844410138205E-004
  -5.9999999999999984E-003     1.2605763913597912E-004
  -5.9000000000000025E-003     1.3206637231633067E-004
  -5.7999999999999996E-003     1.4231161912903190E-004
  -5.6999999999999967E-003     1.7029448645189404E-004
  -5.6000000000000008E-003     1.5178107423707843E-004
  -5.4999999999999979E-003     1.6319697897415608E-004
  -5.4000000000000020E-003     1.2813469220418483E-004
  -5.2999999999999992E-003     1.2254263856448233E-004
  -5.1999999999999963E-003     1.2446851178538054E-004
  -5.1000000000000004E-003     1.2242543743923306E-004
  -4.9999999999999975E-003     7.4980642239097506E-005
  -4.9000000000000016E-003     7.0844143920112401E-005
  -4.7999999999999987E-003     9.6895520982798189E-005
  -4.6999999999999958E-003     4.6485842176480219E-005
  -4.5999999999999999E-003     7.8338656749110669E-005
  -4.4999999999999971E-003     7.0564834459219128E-005
  -4.4000000000000011E-003     7.4965370004065335E-005
  -4.2999999999999983E-003     5.4665855714119971E-005
  -4.2000000000000023E-003    -2.3497714209952392E-005
  -4.0999999999999995E-003     1.4075827493797988E-005
  -3.9999999999999966E-003    -1.0410507456981577E-005
  -3.9000000000000007E-003    -1.9879042156389914E-005
  -3.7999999999999978E-003    -6.1530125094577670E-005
  -3.7000000000000019E-003    -1.7984788428293541E-005
  -3.5999999999999990E-003    -2.2372536477632821E-005
  -3.4999999999999962E-003    -7.2373077273368835E-005
  -3.4000000000000002E-003    -6.7642504291143268E-005
  -3.2999999999999974E-003    -1.2451045040506870E-004
  -3.2000000000000015E-003    -9.6703639428596944E-005
  -3.0999999999999986E-003    -9.0736808488145471E-005
  -2.9999999999999957E-003    -1.3491931895259768E-004
  -2.8999999999999998E-003    -1.1074297071900219E-004
  -2.7999999999999969E-003    -2.0596286049112678E-004
  -2.7000000000000010E-003    -1.9360358419362456E-004
  -2.5999999999999981E-003    -1.5098253788892180E-004
  -2.5000000000000022E-003    -1.2982760381419212E-004
  -2.3999999999999994E-003    -2.3139780387282372E-004
  -2.2999999999999965E-003    -2.1590113465208560E-004
  -2.2000000000000006E-003    -2.5229671155102551E-004
  -2.0999999999999977E-003    -2.0131425117142498E-004
  -2.0000000000000018E-003    -2.4181671324186027E-004
  -1.8999999999999989E-003    -2.0425247203093022E-004
  -1.7999999999999960E-003    -1.8066429765895009E-004
  -1.7000000000000001E-003    -2.8948194812983274E-004
  -1.5999999999999973E-003    -1.9928232359234244E-004
  -1.5000000000000013E-003    -3.0767789576202631E-004
  -1.3999999999999985E-003    -1.9805660122074187E-004
  -1.2999999999999956E-003    -2.5626816204749048E-004
  -1.1999999999999997E-003    -1.6934023005887866E-004
  -1.0999999999999968E-003    -1.2620381312444806E-004
  -1.0000000000000009E-003    -3.9236667362274602E-005
  -8.9999999999999802E-004    -1.3166985809220932E-005
  -8.0000000000000210E-004     7.7210483141243458E-005
  -6.9999999999999923E-004     8.2923725130967796E-005
  -5.9999999999999637E-004     1.8882709264289588E-004
  -5.0000000000000044E-004     3.0737376073375344E-004
  -3.9999999999999758E-004     3.9340616785921156E-004
  -3.0000000000000165E-004     2.6577888638712466E-004
  -1.9999999999999879E-004     3.4542792127467692E-004
  -9.9999999999995925E-005     3.7989538395777345E-004
   0.0000000000000000          3.7177142803557217E-004
   1.0000000000000286E-004     4.8269846593029797E-004
   1.9999999999999879E-004     5.9224449796602130E-004
   3.0000000000000165E-004     4.8158757272176445E-004
   4.0000000000000452E-004     3.7581252399832010E-004
   5.0000000000000044E-004     3.7718997919000685E-004
   6.0000000000000331E-004     5.0068803830072284E-004
   6.9999999999999923E-004     4.5607888023369014E-004
   8.0000000000000210E-004     4.8896652879193425E-004
   8.9999999999999802E-004     3.8447917904704809E-004
   1.0000000000000009E-003     3.5251938970759511E-004
   1.1000000000000038E-003     3.3275963505730033E-004
   1.1999999999999997E-003     3.3897388493642211E-004
   1.3000000000000025E-003     2.5375155382789671E-004
   1.3999999999999985E-003     1.7147822654806077E-004
   1.5000000000000013E-003     4.4744014303432778E-005
   1.6000000000000042E-003    -3.5466742701828480E-005
   1.7000000000000001E-003    -1.1861437087645754E-004
   1.8000000000000030E-003    -2.2468745009973645E-004
   1.8999999999999989E-003    -2.8362794546410441E-004
   2.0000000000000018E-003    -4.9331341870129108E-004
   2.1000000000000046E-003    -5.6695652892813087E-004
   2.2000000000000006E-003    -5.1090447232127190E-004
   2.3000000000000034E-003    -7.0416228845715523E-004
   2.3999999999999994E-003    -7.0518412394449115E-004
   2.5000000000000022E-003    -8.1811653217300773E-004
   2.5999999999999981E-003    -8.8576471898704767E-004
   2.7000000000000010E-003    -5.9910939307883382E-004
   2.8000000000000039E-003    -9.3131430912762880E-004
   2.8999999999999998E-003    -1.0953198652714491E-003
   3.0000000000000027E-003    -1.0453037684783340E-003
   3.0999999999999986E-003    -8.7701220763847232E-004
   3.2000000000000015E-003    -9.2244736151769757E-004
   3.3000000000000043E-003    -6.9712765980511904E-004
   3.4000000000000002E-003    -7.5912271859124303E-004
   3.5000000000000031E-003    -6.9386657560244203E-004
   3.5999999999999990E-003    -5.3131842287257314E-004
   3.7000000000000019E-003    -5.0859071779996157E-004
   3.7999999999999978E-003     4.2352276068413630E-006
   3.9000000000000007E-003    -3.2835931051522493E-004
   4.0000000000000036E-003     7.6104074651084375E-006
   4.0999999999999995E-003     1.4085152361076325E-004
   4.2000000000000023E-003     3.0181414331309497E-004
   4.2999999999999983E-003     6.4128020312637091E-004
   4.4000000000000011E-003     6.4549979288130999E-004
   4.5000000000000040E-003     1.0994428303092718E-003
   4.5999999999999999E-003     1.0690181516110897E-003
   4.7000000000000028E-003     1.3664723373949528E-003
   4.7999999999999987E-003     1.3559157960116863E-003
   4.9000000000000016E-003     1.5007420442998409E-003
   5.0000000000000044E-003     1.5514210099354386E-003
   5.1000000000000004E-003     1.5791837358847260E-003
   5.2000000000000032E-003     1.2793075293302536E-003
   5.2999999999999992E-003     1.1913212947547436E-003
   5.4000000000000020E-003     1.4926465228199959E-003
   5.4999999999999979E-003     1.2275495100766420E-003
   5.6000000000000008E-003     1.0875284206122160E-003
   5.7000000000000037E-003     1.1003238614648581E-003
   5.7999999999999996E-003     6.6129752667620778E-004
   5.9000000000000025E-003     4.6201964141801000E-004
   5.9999999999999984E-003     2.9536869988078251E-005
   6.1000000000000013E-003    -1.6870342369657010E-004
   6.2000000000000041E-003    -2.3070524912327528E-004
   6.3000000000000000E-003    -1.0058549232780933E-003
   6.4000000000000029E-003    -7.9037435352802277E-004
   6.4999999999999988E-003    -1.3385543134063482E-003
   6.6000000000000017E-003    -1.4237976865842938E-003
   6.7000000000000046E-003    -1.7412449233233929E-003
   6.8000000000000005E-003    -2.1195048466324806E-003
   6.9000000000000034E-003    -2.0738106686621904E-003
   6.9999999999999993E-003    -2.2402741014957428E-003
   7.1000000000000021E-003    -2.3370597045868635E-003
   7.1999999999999981E-003    -2.2560011129826307E-003
   7.3000000000000009E-003    -2.2325955796986818E-003
   7.4000000000000038E-003    -1.7318767495453358E-003
   7.4999999999999997E-003    -1.5190123813226819E-003
   7.6000000000000026E-003    -1.3405466452240944E-003
   7.6999999999999985E-003    -1.2282491661608219E-003
   7.8000000000000014E-003    -4.5122989104129374E-004
   7.9000000000000042E-003    -4.2587018106132746E-004
   8.0000000000000002E-003     4.1963320109061897E-004
   8.1000000000000030E-003     1.0190380271524191E-003
   8.1999999999999990E-003     5.6312815286219120E-004
   8.3000000000000018E-003     1.6387368086725473E-003
   8.4000000000000047E-003     1.9496596651151776E-003
   8.5000000000000006E-003     1.8832571804523468E-003
   8.6000000000000035E-003     2.4125857744365931E-003
   8.6999999999999994E-003     2.7458702679723501E-003
   8.8000000000000023E-003     2.9187391046434641E-003
   8.8999999999999982E-003     3.4525545779615641E-003
   9.0000000000000011E-003     3.9365082047879696E-003
   9.1000000000000039E-003     4.1155284270644188E-003
   9.1999999999999998E-003     3.9548063650727272E-003
   9.3000000000000027E-003     4.4491565786302090E-003
   9.3999999999999986E-003     4.5749857090413570E-003
   9.5000000000000015E-003     4.5799855142831802E-003
   9.6000000000000044E-003     3.8780965842306614E-003
   9.7000000000000003E-003     3.9145271293818951E-003
   9.8000000000000032E-003     4.0042200125753880E-003
   9.8999999999999991E-003     3.7315681111067533E-003
   1.0000000000000002E-002     3.3564667683094740E-003
   1.0100000000000005E-002     2.8859365265816450E-003
   1.0200000000000001E-002     2.8602262027561665E-003
   1.0300000000000004E-002     2.1278685890138149E-003
   1.0400000000000000E-002     1.8806158332154155E-003
   1.0500000000000002E-002     1.3926193350926042E-003
   1.0599999999999998E-002     4.6624272363260388E-004
   1.0700000000000001E-002    -1.9961035286542028E-004
   1.0800000000000004E-002    -9.0627925237640738E-004
   1.0900000000000000E-002    -1.7255770508199930E-003
   1.1000000000000003E-002    -2.5942542124539614E-003
   1.1099999999999999E-002    -2.9882718808948994E-003
   1.1200000000000002E-002    -3.6291121505200863E-003
   1.1300000000000004E-002    -4.4653457589447498E-003
   1.1400000000000000E-002    -5.2474974654614925E-003
   1.1500000000000003E-002    -5.4583544842898846E-003
   1.1599999999999999E-002    -6.0209436342120171E-003
   1.1700000000000002E-002    -6.5720509737730026E-003
   1.1800000000000005E-002    -7.0497300475835800E-003
   1.1900000000000001E-002    -7.3019112460315228E-003
   1.2000000000000004E-002    -7.5164865702390671E-003
   1.2100000000000000E-002    -7.8094122000038624E-003
   1.2200000000000003E-002    -7.7497153542935848E-003
   1.2299999999999998E-002    -8.1452848389744759E-003
   1.2400000000000001E-002    -7.7647347934544086E-003
   1.2500000000000004E-002    -7.9162325710058212E-003
   1.2600000000000000E-002    -7.6120328158140182E-003
   1.2700000000000003E-002    -6.9935638457536697E-003
   1.2799999999999999E-002    -6.9450885057449341E-003
   1.2900000000000002E-002    -5.8507309295237064E-003
   1.3000000000000005E-002    -4.8903035931289196E-003
   1.3100000000000001E-002    -3.7578584160655737E-003
   1.3200000000000003E-002    -2.9135586228221655E-003
   1.3299999999999999E-002    -1.5330150490626693E-003
   1.3400000000000002E-002     5.0881055358331650E-005
   1.3500000000000005E-002     1.2926938943564892E-003
   1.3600000000000001E-002     2.7075852267444134E-003
   1.3700000000000004E-002     4.1308458894491196E-003
   1.3800000000000000E-002     6.2324567697942257E-003
   1.3900000000000003E-002     6.9584161974489689E-003
   1.3999999999999999E-002     8.3809979259967804E-003
   1.4100000000000001E-002     9.2403953894972801E-003
   1.4200000000000004E-002     1.0323871858417988E-002
   1.4300000000000000E-002     1.1568751186132431E-002
   1.4400000000000003E-002     1.1950876563787460E-002