  -4.0000000000000001E-002     0.0000000000000000
  -3.9899999999999998E-002     0.0000000000000000
  -3.9800000000000002E-002     0.0000000000000000
  -3.9699999999999999E-002     0.0000000000000000
  -3.9600000000000003E-002     0.0000000000000000
  -3.9500000000000000E-002     0.0000000000000000
  -3.9399999999999998E-002     0.0000000000000000
  -3.9300000000000002E-002     0.0000000000000000
  -3.9199999999999999E-002     0.0000000000000000
  -3.9100000000000003E-002     0.0000000000000000
  -3.9000000000000000E-002     8.2351087761901552E-040
  -3.8900000000000004E-002     6.2864056784630273E-039
  -3.8800000000000001E-002     5.1291155959907835E-038
  -3.8699999999999998E-002    -5.3264569835014559E-037
  -3.8600000000000002E-002    -1.7703150118320378E-036
  -3.8500000000000000E-002    -1.9139262127802025E-035
  -3.8400000000000004E-002    -4.2815837744422666E-035
  -3.8300000000000001E-002    -8.8582872294785989E-035
  -3.8199999999999998E-002     1.1701662390061932E-033
  -3.8100000000000002E-002     4.9946428950427635E-034
  -3.7999999999999999E-002    -5.8974179646994724E-034
  -3.7900000000000003E-002     8.8817091151308512E-033
  -3.7800000000000000E-002    -2.6017295812618370E-032
  -3.7699999999999997E-002     1.4564159891221942E-031
  -3.7600000000000001E-002     2.6529739056674312E-031
  -3.7499999999999999E-002     9.6408573552746593E-031
  -3.7400000000000003E-002     1.3674677186788056E-030
  -3.7300000000000000E-002     1.9816976533393988E-030
  -3.7200000000000004E-002    -2.6596565910518559E-031
  -3.7100000000000001E-002    -2.2063558767194008E-030
  -3.6999999999999998E-002     8.7940097839253244E-030
  -3.6900000000000002E-002     1.3126747296423446E-029
  -3.6799999999999999E-002     4.3576157125547437E-029
  -3.6700000000000003E-002     1.5221943612504230E-028
  -3.6600000000000001E-002     1.1577439723508595E-029
  -3.6499999999999998E-002     2.4999550194078975E-029
  -3.6400000000000002E-002     1.3746889516278844E-028
  -3.6299999999999999E-002     9.7905942707106520E-029
  -3.6200000000000003E-002     5.6703523126965517E-028
  -3.6100000000000000E-002     1.3724269228340773E-027
  -3.6000000000000004E-002    -4.2567245483411816E-028
  -3.5900000000000001E-002     3.0814053367732118E-028
  -3.5799999999999998E-002     1.4263841613420190E-027
  -3.5700000000000003E-002    -1.8911048939468370E-027
  -3.5600000000000000E-002    -3.4078471401176942E-027
  -3.5500000000000004E-002    -4.0833065939112634E-027
  -3.5400000000000001E-002    -1.3418876828175223E-026
  -3.5299999999999998E-002    -6.1511910567094492E-027
  -3.5200000000000002E-002    -1.6381379246486601E-026
  -3.5099999999999999E-002     1.1514387876672861E-026
  -3.5000000000000003E-002     1.2502787450084034E-026
  -3.4900000000000000E-002     8.9975702993959770E-027
  -3.4799999999999998E-002     2.8674354347685134E-026
  -3.4700000000000002E-002     1.2524750755169826E-025
  -3.4599999999999999E-002     1.9096066866249829E-026
  -3.4500000000000003E-002     1.8654783006249853E-025
  -3.4400000000000000E-002     1.3686318855823821E-025
  -3.4299999999999997E-002    -1.6651963775506857E-025
  -3.4200000000000001E-002     1.0665212084123090E-024
  -3.4099999999999998E-002    -7.9600897109844570E-025
  -3.4000000000000002E-002     4.1989266395974423E-025
  -3.3900000000000000E-002     4.2223597527870325E-025
  -3.3799999999999997E-002     1.0604789036568653E-025
  -3.3700000000000001E-002     3.0445015758326113E-024
  -3.3599999999999998E-002     4.5852244293131853E-024
  -3.3500000000000002E-002     2.1093359633313687E-024
  -3.3399999999999999E-002     3.2289015595173226E-024
  -3.3300000000000003E-002     4.8605112472558988E-025
  -3.3200000000000000E-002    -5.8256421356724141E-025
  -3.3099999999999997E-002    -9.4176210683374598E-024
  -3.3000000000000002E-002    -1.7279978407343633E-024
  -3.2899999999999999E-002    -2.8455392198375201E-024
  -3.2800000000000003E-002    -1.3598092405664870E-023
  -3.2700000000000000E-002     3.0987819114295113E-024
  -3.2600000000000004E-002     7.8162783958104035E-024
  -3.2500000000000001E-002     3.7066412457455039E-024
  -3.2399999999999998E-002    -1.3187654387565619E-023
  -3.2300000000000002E-002     1.4918462545274832E-023
  -3.2199999999999999E-002     3.1465168708805663E-023
  -3.2100000000000004E-002     1.8159148897855252E-023
  -3.2000000000000001E-002    -3.4849262085346210E-023
  -3.1899999999999998E-002    -8.5898761046928371E-023
  -3.1800000000000002E-002     7.4055535478860144E-023
  -3.1699999999999999E-002     2.4608945078701904E-023
  -3.1600000000000003E-002    -5.1178247372201472E-023
  -3.1500000000000000E-002    -7.8126449024809555E-023
  -3.1399999999999997E-002     2.5022415478120824E-022
  -3.1300000000000001E-002     1.8026410744321695E-022
  -3.1199999999999999E-002     6.5121040754556077E-022
  -3.1100000000000003E-002     1.4652493042369775E-022
  -3.1000000000000000E-002     3.8680046371746344E-022
  -3.0900000000000000E-002     2.6992386698542598E-022
  -3.0800000000000001E-002     8.9934262942386772E-022
  -3.0699999999999998E-002    -2.6706667589558789E-022
  -3.0600000000000002E-002     8.6448876039083502E-022
  -3.0499999999999999E-002    -5.8082503165102328E-022
  -3.0400000000000000E-002    -6.0573475992655509E-022
  -3.0300000000000001E-002    -1.1791772904386091E-022
  -3.0200000000000001E-002    -1.3481269867992945E-021
  -3.0100000000000002E-002    -1.4159251008730988E-021
  -2.9999999999999999E-002    -8.9891672026569528E-022
  -2.9899999999999999E-002    -1.5736152908702561E-021
  -2.9800000000000000E-002    -6.2060178653199898E-021
  -2.9700000000000001E-002     2.4419678288659913E-021
  -2.9600000000000001E-002    -2.5123464394894056E-021
  -2.9499999999999998E-002    -5.1721208595014825E-021
  -2.9400000000000003E-002    -1.5189595742338849E-021
  -2.9300000000000000E-002     5.7345002784609722E-021
  -2.9200000000000000E-002     2.8083940979943858E-021
  -2.9100000000000001E-002    -5.3625650591543955E-021
  -2.8999999999999998E-002     2.1646842051792153E-021
  -2.8900000000000002E-002    -5.0666448300846011E-021
  -2.8799999999999999E-002    -4.8455238619333348E-021
  -2.8700000000000000E-002     7.1363375605007231E-021
  -2.8600000000000000E-002     9.2582896879368701E-022
  -2.8500000000000001E-002     9.3280059078353884E-021
  -2.8400000000000002E-002    -9.0006427180689921E-021
  -2.8299999999999999E-002     8.5436165439042079E-021
  -2.8200000000000003E-002     1.8784724027040869E-020
  -2.8100000000000000E-002    -1.6361272038419638E-021
  -2.8000000000000001E-002    -1.4652840545064855E-020
  -2.7900000000000001E-002     3.6179888022569220E-020
  -2.7799999999999998E-002     8.2127830729742103E-021
  -2.7700000000000002E-002     2.4006057690124638E-020
  -2.7600000000000000E-002     2.5283090462174400E-021
  -2.7500000000000000E-002     1.3791260851256986E-020
  -2.7400000000000001E-002    -9.2070501302951148E-021
  -2.7299999999999998E-002     3.5319390772141059E-020
  -2.7200000000000002E-002    -8.4191416136895327E-022
  -2.7099999999999999E-002    -4.9705609356912479E-020
  -2.7000000000000000E-002     3.5106310985051960E-020
  -2.6900000000000000E-002     4.6999562299953408E-021
  -2.6800000000000001E-002    -1.0927075278871102E-020
  -2.6700000000000002E-002    -2.5567454800372244E-019
  -2.6599999999999999E-002    -1.9444131408735402E-019
  -2.6500000000000003E-002     6.7336786398895536E-020
  -2.6400000000000000E-002    -4.7580013030357767E-019
  -2.6300000000000000E-002     8.3932667740498918E-021
  -2.6200000000000001E-002    -1.8930903966502608E-020
  -2.6099999999999998E-002    -1.9173457232792737E-019
  -2.6000000000000002E-002    -1.2777409808257748E-019
  -2.5899999999999999E-002    -3.8937932428315199E-019
  -2.5800000000000000E-002    -1.8685300471703690E-019
  -2.5700000000000001E-002    -1.0469283801080993E-019
  -2.5599999999999998E-002     1.6899155157851159E-019
  -2.5500000000000002E-002     4.3942156545321801E-021
  -2.5399999999999999E-002     2.4553982774114617E-019
  -2.5300000000000000E-002     1.4552357487685269E-020
  -2.5200000000000000E-002    -1.8565944771660823E-019
  -2.5100000000000001E-002    -3.2266692353741474E-019
  -2.5000000000000001E-002    -5.9467379084447872E-019
  -2.4899999999999999E-002    -4.7711881129635205E-019
  -2.4800000000000003E-002    -1.8937743069957802E-019
  -2.4700000000000000E-002    -5.5797959358253185E-019
  -2.4600000000000000E-002    -3.7952928339826468E-018
  -2.4500000000000001E-002    -1.1661466130729170E-018
  -2.4399999999999998E-002     9.9954509647680080E-019
  -2.4299999999999999E-002    -2.1556339687828972E-019
  -2.4199999999999999E-002     1.9688784292064738E-019
  -2.4100000000000000E-002     2.9255891408849525E-018
  -2.4000000000000000E-002     2.9846481822600135E-018
  -2.3900000000000001E-002     6.7610036466964479E-019
  -2.3800000000000002E-002     1.3271144868602701E-019
  -2.3699999999999999E-002    -4.8054726490905695E-021
  -2.3599999999999999E-002     1.1485334562898254E-018
  -2.3500000000000000E-002    -3.1706499793526422E-019
  -2.3400000000000001E-002     1.0640956451819942E-017
  -2.3300000000000001E-002     2.5572605033661152E-018
  -2.3199999999999998E-002     4.0265645199402892E-019
  -2.3099999999999999E-002     4.6235553987768938E-018
  -2.3000000000000000E-002    -9.0171678221538468E-018
  -2.2900000000000000E-002     5.9724611575436550E-018
  -2.2800000000000001E-002    -3.2625450925163379E-018
  -2.2700000000000001E-002    -8.9460228448487734E-018
  -2.2599999999999999E-002     6.2614336026117581E-019
  -2.2499999999999999E-002     6.7617879173147247E-018
  -2.2400000000000000E-002    -4.7804111767934868E-018
  -2.2300000000000000E-002    -9.1583940224962503E-018
  -2.2200000000000001E-002    -2.2673927180029847E-017
  -2.2100000000000002E-002    -6.0032534728338243E-019
  -2.1999999999999999E-002    -2.1801810807880488E-017
  -2.1899999999999999E-002    -2.4973859859841687E-017
  -2.1800000000000000E-002    -2.9724990083721716E-017
  -2.1700000000000001E-002    -7.3159883398134126E-017
  -2.1600000000000001E-002     3.7056045352956659E-018
  -2.1499999999999998E-002     2.4571959269981773E-017
  -2.1399999999999999E-002    -9.1520073609867284E-018
  -2.1299999999999999E-002    -4.6965313403678533E-018
  -2.1200000000000000E-002    -2.1608718728769785E-017
  -2.1100000000000001E-002     3.5996875320168235E-017
  -2.1000000000000001E-002     3.3070373178682177E-017
  -2.0899999999999998E-002    -1.7823755312686394E-017
  -2.0799999999999999E-002     6.0938415579116250E-017
  -2.0700000000000000E-002     1.0592702209042171E-016
  -2.0600000000000000E-002     3.0921771537575687E-017
  -2.0500000000000001E-002     4.2298816991352480E-017
  -2.0400000000000001E-002     7.3640025347774206E-017
  -2.0299999999999999E-002    -1.2485943930630680E-017
  -2.0199999999999999E-002     2.6639146486478343E-017
  -2.0100000000000000E-002     8.5310848959182882E-017
  -2.0000000000000000E-002     1.3052437580520886E-016
  -1.9900000000000001E-002     1.3480722584943282E-016
  -1.9799999999999998E-002     4.7417910238920597E-017
  -1.9699999999999999E-002     7.7815679402056193E-017
  -1.9599999999999999E-002     1.3673441109289357E-016
  -1.9500000000000000E-002     1.8157482654309893E-016
  -1.9400000000000001E-002     1.1678477348180507E-016
  -1.9300000000000001E-002    -2.7133365395782851E-017
  -1.9199999999999998E-002    -2.1060120965996041E-017
  -1.9099999999999999E-002     4.6500762154223852E-017
  -1.9000000000000000E-002    -1.6702665186220210E-016
  -1.8900000000000000E-002    -1.7144388897746387E-016
  -1.8800000000000001E-002    -1.8918729031108564E-017
  -1.8700000000000001E-002    -3.1026634878190260E-017
  -1.8599999999999998E-002    -9.7036802504056992E-017
  -1.8499999999999999E-002    -8.8882283971941834E-017
  -1.8400000000000000E-002    -3.4086773672462425E-016
  -1.8300000000000000E-002    -1.6696366702163986E-016
  -1.8200000000000001E-002    -2.6944996848842070E-016
  -1.8100000000000002E-002    -8.1629142168092241E-016
  -1.7999999999999999E-002    -1.2083059988458563E-016
  -1.7899999999999999E-002    -2.7095956648888508E-016
  -1.7800000000000000E-002    -6.7788057356673497E-016
  -1.7700000000000000E-002    -4.2421734045144390E-016
  -1.7600000000000001E-002    -9.6631869139199213E-016
  -1.7499999999999998E-002    -5.7023639731654707E-016
  -1.7399999999999999E-002    -7.8104246321828992E-016
  -1.7299999999999999E-002    -1.3678609333756588E-016
  -1.7200000000000000E-002    -3.6017950558687106E-016
  -1.7100000000000001E-002     7.6811852715331241E-017
  -1.7000000000000001E-002     1.4379992318752551E-016
  -1.6899999999999998E-002    -5.9070378381664477E-016
  -1.6799999999999999E-002    -3.3818915384761013E-016
  -1.6700000000000000E-002     3.1673063292010650E-016
  -1.6600000000000000E-002     4.3178568571427948E-016
  -1.6500000000000001E-002     7.9299378046669288E-016
  -1.6400000000000001E-002     8.5484963198935904E-016
  -1.6299999999999999E-002     4.4772239885863233E-016
  -1.6199999999999999E-002     1.8399467791241830E-015
  -1.6100000000000000E-002     1.0503070903099395E-015
  -1.6000000000000000E-002     9.9055315104588492E-016
  -1.5900000000000001E-002    -6.2570323813675166E-016
  -1.5799999999999998E-002     9.8443095572180845E-018
  -1.5699999999999999E-002    -1.2242600232260687E-015
  -1.5599999999999999E-002    -3.1210747944838925E-015
  -1.5500000000000000E-002    -2.6387622699769139E-016
  -1.5400000000000000E-002     6.7386542563851277E-016
  -1.5300000000000001E-002     4.6954292049196877E-017
  -1.5199999999999998E-002    -1.8655676199544943E-015
  -1.5099999999999999E-002    -2.9051148904401318E-017
  -1.4999999999999999E-002     1.5952287962670486E-015
  -1.4900000000000000E-002     1.8141777075281022E-015
  -1.4800000000000001E-002     3.8917873203335018E-015
  -1.4700000000000001E-002     5.5143106945346361E-015
  -1.4599999999999998E-002     3.0515236486354210E-015
  -1.4499999999999999E-002     6.1007128744682091E-015
  -1.4400000000000000E-002     4.4350861111636716E-015
  -1.4300000000000000E-002     2.4770303284237698E-015
  -1.4200000000000001E-002     5.8007827430101976E-015
  -1.4099999999999998E-002     3.9746830467494911E-015
  -1.3999999999999999E-002     6.3081836422610197E-016
  -1.3899999999999999E-002     3.8852173092781238E-015
  -1.3800000000000000E-002    -1.6916781880396296E-016
  -1.3700000000000000E-002     2.3010935384660527E-015
  -1.3600000000000001E-002    -1.2481624724344174E-016
  -1.3499999999999998E-002    -2.1643157169346124E-015
  -1.3399999999999999E-002    -6.7131155777507001E-015
  -1.3299999999999999E-002    -1.1409675254017617E-014
  -1.3200000000000000E-002    -1.2011288875134456E-014
  -1.3100000000000001E-002    -1.3653118247785884E-014
  -1.3000000000000001E-002    -1.4876183848677206E-014
  -1.2899999999999998E-002    -1.4797812972265449E-014
  -1.2799999999999999E-002     5.1903053456168156E-015
  -1.2699999999999999E-002    -1.1265439942660313E-014
  -1.2600000000000000E-002    -1.3733793900847120E-014
  -1.2500000000000001E-002    -7.4960865761712105E-015
  -1.2399999999999998E-002    -8.9063117300548951E-015
  -1.2299999999999998E-002    -4.3701398599329481E-015
  -1.2199999999999999E-002    -9.2044173525445208E-015
  -1.2100000000000000E-002    -9.9385247143038251E-015
  -1.2000000000000000E-002    -5.2062964806280296E-015
  -1.1900000000000001E-002    -1.3936009676235165E-015
  -1.1799999999999998E-002     7.5273975725829393E-016
  -1.1699999999999999E-002     4.4555156988184980E-015
  -1.1599999999999999E-002    -2.4652044779306789E-015
  -1.1500000000000000E-002     6.2264011288959593E-015
  -1.1400000000000000E-002     1.1755251143970216E-014
  -1.1300000000000001E-002    -1.3531174514259709E-015
  -1.1199999999999998E-002    -1.1420799337713908E-016
  -1.1099999999999999E-002     1.1526555636343343E-015
  -1.0999999999999999E-002    -4.3762891603113367E-016
  -1.0900000000000000E-002    -9.8536240609016848E-015
  -1.0800000000000001E-002     2.9405767321052110E-015
  -1.0699999999999998E-002    -2.1481010975742213E-016
  -1.0599999999999998E-002    -1.0839860943806599E-014
  -1.0499999999999999E-002     1.7671180816379584E-014
  -1.0400000000000000E-002    -9.7404917993675587E-015
  -1.0300000000000000E-002     1.7320763286100480E-014
  -1.0200000000000001E-002    -1.2712664342713013E-015
  -1.0099999999999998E-002     3.0175660554283487E-014
  -9.9999999999999985E-003    -1.0601468602999559E-014
  -9.8999999999999991E-003     1.3655307827954537E-014
  -9.7999999999999997E-003     1.6950721696499388E-014
  -9.7000000000000003E-003     1.9158221694183866E-014
  -9.6000000000000009E-003     4.0598030816849703E-015
  -9.4999999999999980E-003     3.1540261125496266E-014
  -9.3999999999999986E-003     2.8724262822899665E-014
  -9.2999999999999992E-003     7.7953397588977763E-014
  -9.1999999999999998E-003     8.0349924847303300E-014
  -9.1000000000000004E-003     1.0225973307064276E-013
  -9.0000000000000011E-003     4.9551010674166521E-014
  -8.8999999999999982E-003     9.0444971932897300E-014
  -8.7999999999999988E-003     6.2067863869363915E-014
  -8.6999999999999994E-003     5.3867941194902375E-014
  -8.5999999999999965E-003     4.4647906248876379E-014
  -8.5000000000000006E-003     6.2746858185377171E-015
  -8.3999999999999977E-003    -2.6624950955436190E-014
  -8.3000000000000018E-003     2.1914406765210104E-015
  -8.1999999999999990E-003    -8.4240584343267533E-014
  -8.0999999999999961E-003    -7.6945076016039088E-014
  -8.0000000000000002E-003    -1.6097373271590359E-013
  -7.8999999999999973E-003    -8.4068297841796008E-014
  -7.8000000000000014E-003    -1.8372673174504861E-013
  -7.6999999999999985E-003    -2.7423863960956973E-013
  -7.6000000000000026E-003    -2.1062161346604991E-013
  -7.4999999999999997E-003    -1.5940451270155670E-013
  -7.3999999999999969E-003    -2.2505994734956652E-013
  -7.3000000000000009E-003    -2.0250093919413348E-013
  -7.1999999999999981E-003    -1.7726049577823644E-013
  -7.1000000000000021E-003    -1.8641552602775835E-013
  -6.9999999999999993E-003    -3.2191970985619156E-013
  -6.8999999999999964E-003    -2.9183697559248545E-013
  -6.8000000000000005E-003    -2.4728878883842342E-013
  -6.6999999999999976E-003    -2.3229424568789458E-013
  -6.6000000000000017E-003    -1.7088953407733143E-013
  -6.4999999999999988E-003    -1.7246960966593033E-013
  -6.3999999999999960E-003    -9.9618968944174130E-014
  -6.3000000000000000E-003     3.4860183045336973E-015
  -6.1999999999999972E-003    -5.5508603356152486E-014
  -6.1000000000000013E-003     3.4060579877370767E-013
  -5.9999999999999984E-003     2.0220970893807672E-013
  -5.9000000000000025E-003     3.3003821572376302E-013
  -5.7999999999999996E-003     4.8204458003367479E-013
  -5.6999999999999967E-003     5.4124424126583692E-013
  -5.6000000000000008E-003     7.8423351796905183E-013
  -5.4999999999999979E-003     9.6765412523069916E-013
  -5.4000000000000020E-003     8.1460673709982112E-013
  -5.2999999999999992E-003     1.0844766924755778E-012
  -5.1999999999999963E-003     1.0301771371720725E-012
  -5.1000000000000004E-003     1.1938834252808728E-012
  -4.9999999999999975E-003     1.1729958367470705E-012
  -4.9000000000000016E-003     1.0498825116569965E-012
  -4.7999999999999987E-003     9.8335673371502397E-013
  -4.6999999999999958E-003     8.7345527945842383E-013
  -4.5999999999999999E-003     9.0067162712356708E-013
  -4.4999999999999971E-003     5.3509773651969073E-013
  -4.4000000000000011E-003     3.9406975946287837E-013
  -4.2999999999999983E-003     2.4379573338416394E-013
  -4.2000000000000023E-003    -5.1954273538488624E-014
  -4.0999999999999995E-003    -5.4391994380731390E-013
  -3.9999999999999966E-003    -1.1563427082181277E-012
  -3.9000000000000007E-003    -1.5822154784267406E-012
  -3.7999999999999978E-003    -1.5031783326749371E-012
  -3.7000000000000019E-003    -1.8408844327383322E-012
  -3.5999999999999990E-003    -2.2013844740154109E-012
  -3.4999999999999962E-003    -2.5243177773776049E-012
  -3.4000000000000002E-003    -2.9936862450813395E-012
  -3.2999999999999974E-003    -2.8138442097203065E-012
  -3.2000000000000015E-003    -3.2855898991074328E-012
  -3.0999999999999986E-003    -3.4362322015590863E-012
  -2.9999999999999957E-003    -3.8433418773908823E-012
  -2.8999999999999998E-003    -3.5346363422977811E-012
  -2.7999999999999969E-003    -2.7099455492118896E-012
  -2.7000000000000010E-003    -2.2490839485939107E-012
  -2.5999999999999981E-003    -2.1997492802988683E-012
  -2.5000000000000022E-003    -2.0165351593409708E-012
  -2.3999999999999994E-003    -1.3834580182836564E-012
  -2.2999999999999965E-003    -9.3180197173643731E-014
  -2.2000000000000006E-003     4.0053667305604834E-013
  -2.0999999999999977E-003     1.2078588997044282E-012
  -2.0000000000000018E-003     2.3475292890151600E-012
  -1.8999999999999989E-003     3.3838797649371477E-012
  -1.7999999999999960E-003     5.1447253575365171E-012
  -1.7000000000000001E-003     4.5111904663219793E-012
  -1.5999999999999973E-003     5.4433770858841601E-012
  -1.5000000000000013E-003     7.2574754365895000E-012
  -1.3999999999999985E-003     6.1163630583893625E-012
  -1.2999999999999956E-003     6.9529481998287235E-012
  -1.1999999999999997E-003     7.3675380032889315E-012
  -1.0999999999999968E-003     7.9743199890569549E-012
  -1.0000000000000009E-003     7.8846382547959060E-012
  -8.9999999999999802E-004     6.9300385742432358E-012
  -8.0000000000000210E-004     5.8560842806920643E-012
  -6.9999999999999923E-004     4.8287220576204160E-012
  -5.9999999999999637E-004     4.0562969649826641E-012
  -5.0000000000000044E-004     3.3713914906335907E-012
  -3.9999999999999758E-004     1.9832284686022161E-012
  -3.0000000000000165E-004    -1.1378998871630630E-012
  -1.9999999999999879E-004    -2.7628799855600183E-012
  -9.9999999999995925E-005    -3.9266844983898430E-012
   0.0000000000000000         -6.3410184221457389E-012
   1.0000000000000286E-004    -8.0740370986265297E-012
   1.9999999999999879E-004    -9.4673218917207258E-012
   3.0000000000000165E-004    -1.1348919200238061E-011
   4.0000000000000452E-004    -1.0738692921008486E-011
   5.0000000000000044E-004    -1.1012863364301406E-011
   6.0000000000000331E-004    -1.0933693186943039E-011
   6.9999999999999923E-004    -1.2003687106798555E-011
   8.0000000000000210E-004    -9.5523216073201134E-012
   8.9999999999999802E-004    -9.4475625239676120E-012
   1.0000000000000009E-003    -8.2820122287996512E-012
   1.1000000000000038E-003    -5.4398018208001719E-012
   1.1999999999999997E-003    -2.0519547432734653E-012
   1.3000000000000025E-003    -9.6270083918548188E-013
   1.3999999999999985E-003     9.3242698718382089E-013
   1.5000000000000013E-003     4.3693581738835086E-012
   1.6000000000000042E-003     4.6481976254120205E-012
   1.7000000000000001E-003     1.0023307704665196E-011
   1.8000000000000030E-003     1.1933439479638874E-011
   1.8999999999999989E-003     1.3980048889361552E-011
   2.0000000000000018E-003     1.3629874139053921E-011
   2.1000000000000046E-003     1.4994927174938333E-011
   2.2000000000000006E-003     1.3468295055607538E-011
   2.3000000000000034E-003     1.2240946971331379E-011
   2.3999999999999994E-003     7.7142355003889662E-012
   2.5000000000000022E-003     3.2090140007073886E-012
   2.5999999999999981E-003     1.2045311579764184E-012
   2.7000000000000010E-003    -4.9558551706851972E-012
   2.8000000000000039E-003    -1.3202191076477909E-011
   2.8999999999999998E-003    -1.7384954587029711E-011
   3.0000000000000027E-003    -2.0992787369555899E-011
   3.0999999999999986E-003    -3.0562503916531369E-011
   3.2000000000000015E-003    -3.5524250208140984E-011
   3.3000000000000043E-003    -3.7393241281158396E-011
   3.4000000000000002E-003    -4.3629853202498126E-011
   3.5000000000000031E-003    -4.1271916439988843E-011
   3.5999999999999990E-003    -3.7448849576904308E-011
   3.7000000000000019E-003    -4.2999458160775106E-011
   3.7999999999999978E-003    -3.4716809288459771E-011
   3.9000000000000007E-003    -2.8968358961600771E-011
   4.0000000000000036E-003    -1.2230226380249842E-011
   4.0999999999999995E-003    -8.8582014987070856E-012
   4.2000000000000023E-003     1.0972645535234360E-011
   4.2999999999999983E-003     2.7087674117631799E-011
   4.4000000000000011E-003     4.6996993102732532E-011
   4.5000000000000040E-003     6.7433676698147593E-011
   4.5999999999999999E-003     8.7057937248058437E-011
   4.7000000000000028E-003     1.0654749998950663E-010
   4.7999999999999987E-003     1.2408742089409230E-010
   4.9000000000000016E-003     1.3800119380569242E-010
   5.0000000000000044E-003     1.5373149975239642E-010
   5.1000000000000004E-003     1.6060594520972415E-010
   5.2000000000000032E-003     1.5715796719550923E-010
   5.2999999999999992E-003     1.5896971239381941E-010
   5.4000000000000020E-003     1.4907880485637293E-010
   5.4999999999999979E-003     1.3036571822055976E-010
   5.6000000000000008E-003     9.9155392230265704E-011
   5.7000000000000037E-003     7.1222659714376135E-011
   5.7999999999999996E-003     3.5469509274133060E-011
   5.9000000000000025E-003    -2.5058786642939701E-011
   5.9999999999999984E-003    -6.3820525253444060E-011
   6.1000000000000013E-003    -1.2388480519209821E-010
   6.2000000000000041E-003    -1.8724244377210653E-010
   6.3000000000000000E-003    -2.3444565733221623E-010
   6.4000000000000029E-003    -2.9332447581964516E-010
   6.4999999999999988E-003    -3.3445646252516781E-010
   6.6000000000000017E-003    -3.7942102237842334E-010
   6.7000000000000046E-003    -4.0437692083727939E-010
   6.8000000000000005E-003    -4.2576647762970765E-010
   6.9000000000000034E-003    -4.3244247072138364E-010
   6.9999999999999993E-003    -4.2228603946981025E-010
   7.1000000000000021E-003    -3.9087846848140373E-010
   7.1999999999999981E-003    -3.5323627356476095E-010
   7.3000000000000009E-003    -2.9122773637091370E-010
   7.4000000000000038E-003    -2.1499814428782571E-010
   7.4999999999999997E-003    -1.2390537207362939E-010
   7.6000000000000026E-003    -1.3323567076006793E-011
   7.6999999999999985E-003     1.1247302394989944E-010
   7.8000000000000014E-003     2.1413890105570488E-010
   7.9000000000000042E-003     3.4870356602212382E-010
   8.0000000000000002E-003     4.7916515200085996E-010
   8.1000000000000030E-003     6.0935007040185951E-010
   8.1999999999999990E-003     7.0090294679303611E-010
   8.3000000000000018E-003     7.8993789287551408E-010
   8.4000000000000047E-003     8.7983281771286670E-010
   8.5000000000000006E-003     9.1020396775221002E-010
   8.6000000000000035E-003     9.1774343680128823E-010
   8.6999999999999994E-003     9.0936513874595448E-010
   8.8000000000000023E-003     8.3942158779493070E-010
   8.8999999999999982E-003     7.2681494156512372E-010
   9.0000000000000011E-003     5.8011684345160575E-010
   9.1000000000000039E-003     4.3575651420546535E-010
   9.1999999999999998E-003     2.3554649897228330E-010
   9.3000000000000027E-003     5.4716526448617131E-012
   9.3999999999999986E-003    -2.5774951617485442E-010
   9.5000000000000015E-003    -5.1054238614511860E-010
   9.6000000000000044E-003    -7.8051182184069035E-010
   9.7000000000000003E-003    -1.0263301319923812E-009
   9.8000000000000032E-003    -1.2541030436352685E-009
   9.8999999999999991E-003    -1.4629539801802594E-009
   1.0000000000000002E-002    -1.6520471657344160E-009
   1.0100000000000005E-002    -1.7740801050436517E-009
   1.0200000000000001E-002    -1.8043907479281529E-009
   1.0300000000000004E-002    -1.7769654636623500E-009
   1.0400000000000000E-002    -1.7110435290845771E-009
   1.0500000000000002E-002    -1.5364596261946417E-009
   1.0599999999999998E-002    -1.3271095333777794E-009
   1.0700000000000001E-002    -9.7733077186745732E-010
   1.0800000000000004E-002    -5.8141336189976300E-010
   1.0900000000000000E-002    -1.3027974532509035E-010
   1.1000000000000003E-002     3.6579830831051652E-010
   1.1099999999999999E-002     8.5087825674179385E-010
   1.1200000000000002E-002     1.4479404342182534E-009
   1.1300000000000004E-002     1.9678894069841135E-009
   1.1400000000000000E-002     2.4805255627313727E-009
   1.1500000000000003E-002     2.9505098364523974E-009
   1.1599999999999999E-002     3.3023610512827872E-009
   1.1700000000000002E-002     3.6137901560095997E-009
   1.1800000000000005E-002     3.7755425452701274E-009
   1.1900000000000001E-002     3.8327891971334793E-009
   1.2000000000000004E-002     3.7117193762981060E-009
   1.2100000000000000E-002     3.4499292311807039E-009
   1.2200000000000003E-002     3.0287556906927193E-009
   1.2299999999999998E-002     2.4387198926945075E-009
   1.2400000000000001E-002     1.6847528927499411E-009
   1.2500000000000004E-002     7.9416467846371575E-010
   1.2600000000000000E-002    -2.4297930334427065E-010
   1.2700000000000003E-002    -1.3271671539527574E-009
   1.2799999999999999E-002    -2.4787010222127037E-009
   1.2900000000000002E-002    -3.6658265312183858E-009
   1.3000000000000005E-002    -4.8325419221839638E-009
   1.3100000000000001E-002    -5.9576823474571938E-009
   1.3200000000000003E-002    -6.8889667304006252E-009
   1.3299999999999999E-002    -7.6350072930608803E-009
   1.3400000000000002E-002    -8.2850792892941172E-009
   1.3500000000000005E-002    -8.5733518062625080E-009
   1.3600000000000001E-002    -8.5774010116779209E-009
   1.3700000000000004E-002    -8.3293834052255988E-009
   1.3800000000000000E-002    -7.6325576969793474E-009
   1.3900000000000003E-002    -6.6203944548703930E-009
   1.3999999999999999E-002    -5.3050546178212699E-009
   1.4100000000000001E-002    -3.5696416933461705E-009
   1.4200000000000004E-002    -1.6229425581215651E-009
   1.4300000000000000E-002     5.7424476285206083E-010
   1.4400000000000003E-002     3.0001869877338549E-009
   1.4499999999999999E-002     5.5303965851294379E-009