  -8.0000000000000002E-002     0.0000000000000000
  -7.9579999999999998E-002     0.0000000000000000
  -7.9160000000000008E-002     0.0000000000000000
  -7.8740000000000004E-002     0.0000000000000000
  -7.8320000000000001E-002     0.0000000000000000
  -7.7899999999999997E-002     0.0000000000000000
  -7.7480000000000007E-002     0.0000000000000000
  -7.7060000000000003E-002     0.0000000000000000
  -7.6640000000000000E-002    -1.4907411375830629E-027
  -7.6219999999999996E-002    -1.6525993098406968E-026
  -7.5800000000000006E-002    -7.9565257707554472E-026
  -7.5380000000000003E-002    -1.8415864122335488E-025
  -7.4959999999999999E-002     6.8953414083254846E-027
  -7.4539999999999995E-002     1.5015320091867205E-024
  -7.4120000000000005E-002     5.1008094236856507E-024
  -7.3700000000000002E-002     7.4678151052793104E-024
  -7.3279999999999998E-002    -3.9549649773177436E-024
  -7.2860000000000008E-002    -4.5713831557710276E-023
  -7.2440000000000004E-002    -1.0688170326281279E-022
  -7.2020000000000001E-002    -9.9912390814252879E-023
  -7.1599999999999997E-002     1.3758515140791028E-022
  -7.1180000000000007E-002     6.8376386131449379E-022
  -7.0760000000000003E-002     1.2103080460159897E-021
  -7.0340000000000000E-002     7.7536214706390969E-022
  -6.9919999999999996E-002    -1.7315130451184535E-021
  -6.9500000000000006E-002    -6.1760857781257836E-021
  -6.9080000000000003E-002    -9.4682876750860417E-021
  -6.8659999999999999E-002    -5.4904946786860644E-021
  -6.8239999999999995E-002     1.1224707003845234E-020
  -6.7820000000000005E-002     3.8190236500526570E-020
  -6.7400000000000002E-002     5.8410276951429930E-020
  -6.6979999999999998E-002     4.2307874242117723E-020
  -6.6560000000000008E-002    -3.5775558770750407E-020
  -6.6140000000000004E-002    -1.6908546987745366E-019
  -6.5720000000000001E-002    -2.9331489559662588E-019
  -6.5299999999999997E-002    -2.8921725033940781E-019
  -6.4879999999999993E-002    -3.3443422226210695E-020
  -6.4460000000000003E-002     5.0411516866533718E-019
  -6.4040000000000000E-002     1.1550199990621540E-018
  -6.3619999999999996E-002     1.5134066394360956E-018
  -6.3200000000000006E-002     1.0463233030958604E-018
  -6.2780000000000002E-002    -6.1085277256602940E-019
  -6.2359999999999999E-002    -3.2490838181225663E-018
  -6.1940000000000002E-002    -5.7857921373939407E-018
  -6.1520000000000005E-002    -6.3685801984210972E-018
  -6.1100000000000002E-002    -3.0997044587310251E-018
  -6.0679999999999998E-002     4.6986223140689987E-018
  -6.0260000000000001E-002     1.5191378755684585E-017
  -5.9840000000000004E-002     2.3563138763223142E-017
  -5.9420000000000001E-002     2.3183231137510918E-017
  -5.8999999999999997E-002     8.6069442134834303E-018
  -5.8580000000000000E-002    -2.0430918163241679E-017
  -5.8160000000000003E-002    -5.5910880193555362E-017
  -5.7740000000000000E-002    -8.1584209103562927E-017
  -5.7319999999999996E-002    -7.7704431460872998E-017
  -5.6899999999999999E-002    -3.0015528270676296E-017
  -5.6480000000000002E-002     5.9921596516071152E-017
  -5.6059999999999999E-002     1.6791303330777032E-016
  -5.5640000000000002E-002     2.4882213048396669E-016
  -5.5220000000000005E-002     2.4943157864595334E-016
  -5.4800000000000001E-002     1.3066349538233968E-016
  -5.4379999999999998E-002    -1.0780356461276704E-016
  -5.3960000000000001E-002    -4.1106624358700928E-016
  -5.3540000000000004E-002    -6.7113039715258827E-016
  -5.3120000000000001E-002    -7.5334344119100977E-016
  -5.2699999999999997E-002    -5.4421707417128035E-016
  -5.2280000000000000E-002    -7.9213272005298830E-018
  -5.1860000000000003E-002     7.6863761284522914E-016
  -5.1440000000000000E-002     1.5638170428801004E-015
  -5.1019999999999996E-002     2.0579820454596578E-015
  -5.0599999999999999E-002     1.9216651481718066E-015
  -5.0180000000000002E-002     9.4058678817540254E-016
  -4.9759999999999999E-002    -8.5423885112762318E-016
  -4.9340000000000002E-002    -3.0955791462885320E-015
  -4.8920000000000005E-002    -5.0757869800089190E-015
  -4.8500000000000001E-002    -5.8671487358163371E-015
  -4.8079999999999998E-002    -4.5792177728579025E-015
  -4.7660000000000001E-002    -7.2449941415701293E-016
  -4.7239999999999997E-002     5.3883961954451357E-015
  -4.6820000000000001E-002     1.2366786752906799E-014
  -4.6399999999999997E-002     1.7715766015274570E-014
  -4.5980000000000000E-002     1.8242093126527822E-014
  -4.5560000000000003E-002     1.0953533496446169E-014
  -4.5140000000000000E-002    -5.6254548829437747E-015
  -4.4720000000000003E-002    -3.0007549667654102E-014
  -4.4299999999999999E-002    -5.6659004202648191E-014
  -4.3880000000000002E-002    -7.5895254808377772E-014
  -4.3459999999999999E-002    -7.5318435685512704E-014
  -4.3040000000000002E-002    -4.3060795491354546E-014
  -4.2619999999999998E-002     2.7449577708889973E-014
  -4.2200000000000001E-002     1.3218557382284458E-013
  -4.1779999999999998E-002     2.5232696974620966E-013
  -4.1360000000000001E-002     3.5318337245884784E-013
  -4.0939999999999997E-002     3.8804967737445331E-013
  -4.0520000000000000E-002     3.0791316658551710E-013
  -4.0099999999999997E-002     7.6373225494214416E-014
  -3.9680000000000000E-002    -3.1279709490043494E-013
  -3.9260000000000003E-002    -8.1982993136139192E-013
  -3.8840000000000000E-002    -1.3503360408789024E-012
  -3.8420000000000003E-002    -1.7591101685147722E-012
  -3.7999999999999999E-002    -1.8698025192305249E-012
  -3.7580000000000002E-002    -1.5105864454925344E-012
  -3.7159999999999999E-002    -5.6170019305245070E-013
  -3.6740000000000002E-002     9.9352970220293963E-013
  -3.6319999999999998E-002     3.0257769296800856E-012
  -3.5900000000000001E-002     5.2376306858425641E-012
  -3.5479999999999998E-002     7.1734688438930155E-012
  -3.5060000000000001E-002     8.2680476897169607E-012
  -3.4639999999999997E-002     7.9339532302903471E-012
  -3.4220000000000000E-002     5.6802106058457933E-012
  -3.3799999999999997E-002     1.2465956805064766E-012
  -3.3380000000000000E-002    -5.2681141929597279E-012
  -3.2960000000000003E-002    -1.3309455319375465E-011
  -3.2539999999999999E-002    -2.1828071550239951E-011
  -3.2120000000000003E-002    -2.9320369842296778E-011
  -3.1699999999999999E-002    -3.3963850357575817E-011
  -3.1280000000000002E-002    -3.3850415340758603E-011
  -3.0859999999999999E-002    -2.7305817753633292E-011
  -3.0440000000000002E-002    -1.3265623693432684E-011
  -3.0019999999999998E-002     8.3404244076073925E-012
  -2.9600000000000001E-002     3.6260203107421907E-011
  -2.9179999999999998E-002     6.7722032061837525E-011
  -2.8760000000000001E-002     9.8443591130252754E-011
  -2.8339999999999997E-002     1.2290783845163498E-010
  -2.7920000000000000E-002     1.3493624296494151E-010
  -2.7499999999999997E-002     1.2854363201826803E-010
  -2.7080000000000000E-002     9.9002448010036414E-011
  -2.6659999999999996E-002     4.3985880143682792E-011
  -2.6239999999999999E-002    -3.5389184053583662E-011
  -2.5820000000000003E-002    -1.3382438811657592E-010
  -2.5399999999999999E-002    -2.4160428098780680E-010
  -2.4980000000000002E-002    -3.4501447736376694E-010
  -2.4559999999999998E-002    -4.2748349537402374E-010
  -2.4140000000000002E-002    -4.7140930888559132E-010
  -2.3719999999999998E-002    -4.6051384180130447E-010
  -2.3300000000000001E-002    -3.8246080137773940E-010
  -2.2879999999999998E-002    -2.3139550366343397E-010
  -2.2460000000000001E-002    -1.0033366473252266E-011
  -2.2039999999999997E-002     2.6905406125365876E-010
  -2.1620000000000000E-002     5.8323315795716930E-010
  -2.1199999999999997E-002     9.0084601384709270E-010
  -2.0780000000000000E-002     1.1835163057935270E-009
  -2.0359999999999996E-002     1.3896007426412795E-009
  -1.9939999999999999E-002     1.4785257043573076E-009
  -1.9519999999999996E-002     1.4156316351778589E-009
  -1.9099999999999999E-002     1.1770574871650573E-009
  -1.8680000000000002E-002     7.5414334536844057E-010
  -1.8259999999999998E-002     1.5681662728362098E-010
  -1.7840000000000002E-002    -5.8453685119802859E-010
  -1.7420000000000005E-002    -1.4191290140026490E-009
  -1.7000000000000001E-002    -2.2780154545505676E-009
  -1.6579999999999998E-002    -3.0785838412838042E-009
  -1.6159999999999994E-002    -3.7310754871317114E-009
  -1.5740000000000004E-002    -4.1466527285698208E-009
  -1.5320000000000000E-002    -4.2462632554781277E-009
  -1.4899999999999997E-002    -3.9693713060958495E-009
  -1.4479999999999993E-002    -3.2815509893346959E-009
  -1.4060000000000003E-002    -2.1800324845024668E-009
  -1.3639999999999999E-002    -6.9653227733647491E-010
  -1.3219999999999996E-002     1.1029461672775893E-009
  -1.2799999999999992E-002     3.1212165537803414E-009
  -1.2380000000000002E-002     5.2353969605572650E-009
  -1.1959999999999998E-002     7.3039755753965873E-009
  -1.1539999999999995E-002     9.1745584608619768E-009
  -1.1120000000000005E-002     1.0691521023635986E-008
  -1.0700000000000001E-002     1.1703084485879102E-008
  -1.0279999999999997E-002     1.2067751515480949E-008
  -9.8599999999999938E-003     1.1660435619523168E-008
  -9.4400000000000039E-003     1.0378892131681572E-008
  -9.0200000000000002E-003     8.1510874316536173E-009
  -8.5999999999999965E-003     4.9439146153790805E-009
  -8.1799999999999928E-003     7.7320776975441447E-010
  -7.7600000000000030E-003    -4.2855905728194254E-009
  -7.3399999999999993E-003    -1.0087391458290277E-008
  -6.9199999999999956E-003    -1.6409724852618588E-008
  -6.4999999999999919E-003    -2.2949170960915260E-008
  -6.0800000000000021E-003    -2.9323688063136587E-008
  -5.6599999999999984E-003    -3.5082069076902652E-008
  -5.2399999999999947E-003    -3.9721115373494707E-008
  -4.8200000000000048E-003    -4.2710276131273727E-008
  -4.4000000000000011E-003    -4.3522838778905379E-008
  -3.9799999999999974E-003    -4.1672244475883229E-008
  -3.5599999999999937E-003    -3.6751762242448650E-008
  -3.1400000000000039E-003    -2.8475596402125077E-008
  -2.7200000000000002E-003    -1.6719233419815761E-008
  -2.2999999999999965E-003    -1.5565320809926643E-009
  -1.8799999999999928E-003     1.6709153603896329E-008
  -1.4600000000000030E-003     3.7522907567489745E-008
  -1.0399999999999993E-003     6.0068529001021077E-008
  -6.1999999999999555E-004     8.3274493762821828E-008
  -1.9999999999999185E-004     1.0583854176377551E-007
   2.1999999999999797E-004     1.2627287661462559E-007
   6.4000000000000168E-004     1.4297013999329853E-007
   1.0600000000000054E-003     1.5428794791955305E-007
   1.4799999999999952E-003     1.5864746547488129E-007
   1.8999999999999989E-003     1.5463955732476172E-007
   2.3200000000000026E-003     1.4113087043772492E-007
   2.7400000000000063E-003     1.1736177271912804E-007
   3.1599999999999961E-003     8.3029503347665739E-008
   3.5799999999999998E-003     3.8351457105012081E-008
   4.0000000000000036E-003    -1.5893720719025517E-008
   4.4200000000000073E-003    -7.8346942433703151E-008
   4.8399999999999971E-003    -1.4706884658186791E-007
   5.2600000000000008E-003    -2.1955598862320745E-007
   5.6800000000000045E-003    -2.9277016059497753E-007
   6.1000000000000082E-003    -3.6317896277619155E-007
   6.5199999999999980E-003    -4.2680789784323241E-007
   6.9400000000000017E-003    -4.7930575847539358E-007
   7.3600000000000054E-003    -5.1602613828549432E-007
   7.7799999999999953E-003    -5.3212726307288661E-007
   8.1999999999999990E-003    -5.2269084069804166E-007
   8.6200000000000027E-003    -4.8285646411289796E-007
   9.0400000000000064E-003    -4.0796543135386232E-007
   9.4599999999999962E-003    -2.9370551313279812E-007
   9.8799999999999999E-003    -1.3624575237373673E-007
   1.0300000000000004E-002     6.7649800232732059E-008
   1.0720000000000007E-002     3.2054434488887311E-007
   1.1139999999999997E-002     6.2429633488278805E-007
   1.1560000000000001E-002     9.8007712086349096E-007
   1.1980000000000005E-002     1.3884360291882195E-006
   1.2400000000000008E-002     1.8494150324293296E-006
   1.2819999999999998E-002     2.3627109311287081E-006
   1.3240000000000002E-002     2.9278869381052860E-006
   1.3660000000000005E-002     3.5446284511547867E-006
   1.4079999999999995E-002     4.2130397352410088E-006
   1.4499999999999999E-002     4.9339761270375312E-006
   1.4920000000000003E-002     5.7093927628115843E-006
   1.5340000000000006E-002     6.5427061933587049E-006
   1.5759999999999996E-002     7.4391579395439483E-006
   1.6180000000000000E-002     8.4061741740487093E-006
   1.6600000000000004E-002     9.4536856175510911E-006
   1.7020000000000007E-002     1.0594379445468536E-005
   1.7439999999999997E-002     1.1843873616978151E-005
   1.7860000000000001E-002     1.3220789684274434E-005
   1.8280000000000005E-002     1.4746775943380877E-005
   1.8700000000000008E-002     1.6446498656851723E-005
   1.9119999999999998E-002     1.8347596852882126E-005
   1.9540000000000002E-002     2.0480580562592623E-005
   1.9960000000000006E-002     2.2878734905049288E-005
   2.0380000000000009E-002     2.5578092615306850E-005
   2.0799999999999999E-002     2.8617431685420463E-005
   2.1220000000000003E-002     3.2038330868989962E-005
   2.1640000000000006E-002     3.5885298017271599E-005
   2.2059999999999996E-002     4.0205901850092962E-005
   2.2480000000000000E-002     4.5050903258074799E-005
   2.2900000000000004E-002     5.0474384498982964E-005
   2.3320000000000007E-002     5.6533943381366700E-005
   2.3739999999999997E-002     6.3290960543168969E-005
   2.4160000000000001E-002     7.0810972097590840E-005
   2.4580000000000005E-002     7.9164076380911771E-005
   2.5000000000000008E-002     8.8425436750604874E-005
   2.5419999999999998E-002     9.8675880630641732E-005
   2.5840000000000002E-002     1.1000265728974890E-004
   2.6260000000000006E-002     1.2250038066067030E-004
   2.6680000000000009E-002     1.3627207528782816E-004
   2.7099999999999999E-002     1.5142987534506823E-004
   2.7520000000000003E-002     1.6809572521969972E-004
   2.7940000000000006E-002     1.8640238256615124E-004
   2.8359999999999996E-002     2.0649431786504171E-004
   2.8780000000000000E-002     2.2852860633335351E-004
   2.9200000000000004E-002     2.5267518597824946E-004
   2.9620000000000007E-002     2.7911669609035879E-004
   3.0039999999999997E-002     3.0804916327776177E-004
   3.0460000000000001E-002     3.3968279753885452E-004
   3.0880000000000005E-002     3.7424183813058992E-004
   3.1300000000000008E-002     4.1196413623947317E-004
   3.1719999999999998E-002     4.5310079499150363E-004
   3.2140000000000002E-002     4.9791551507283663E-004
   3.2560000000000006E-002     5.4668431954726633E-004
   3.2980000000000009E-002     5.9969495816440536E-004
   3.3399999999999999E-002     6.5724578594040920E-004
   3.3820000000000003E-002     7.1964457741548942E-004
   3.4240000000000007E-002     7.8720776060044900E-004
   3.4659999999999996E-002     8.6026021755018550E-004
   3.5080000000000000E-002     9.3913482629447848E-004
   3.5500000000000004E-002     1.0241718327498018E-003
   3.5920000000000007E-002     1.1157166483598227E-003
   3.6339999999999997E-002     1.2141178627752074E-003
   3.6760000000000001E-002     1.3197272881915385E-003
   3.7180000000000005E-002     1.4328986794626191E-003
   3.7600000000000008E-002     1.5539860943906897E-003
   3.8019999999999998E-002     1.6833423568845018E-003
   3.8440000000000002E-002     1.8213178878125980E-003
   3.8860000000000006E-002     1.9682576806799548E-003
   3.9280000000000009E-002     2.1244969291166955E-003
   3.9699999999999999E-002     2.2903603423764254E-003
   4.0120000000000003E-002     2.4661620109839642E-003
   4.0540000000000007E-002     2.6522009536133363E-003
   4.0960000000000010E-002     2.8487542648034251E-003
   4.1380000000000000E-002     3.0560728811386698E-003
   4.1800000000000004E-002     3.2743784346929762E-003
   4.2220000000000008E-002     3.5038587193850800E-003
   4.2639999999999997E-002     3.7446639006320031E-003
   4.3060000000000001E-002     3.9968999464756677E-003
   4.3480000000000005E-002     4.2606158091551011E-003
   4.3900000000000008E-002     4.5357973653041223E-003
   4.4319999999999998E-002     4.8223617257276445E-003
   4.4740000000000002E-002     5.1201552655244040E-003
   4.5159999999999992E-002     5.4289446970749791E-003
   4.5579999999999996E-002     5.7484026279546498E-003
   4.5999999999999999E-002     6.0780986561756803E-003
   4.6420000000000003E-002     6.4174920763776372E-003
   4.6840000000000007E-002     6.7659275969850731E-003
   4.7260000000000010E-002     7.1226384680617774E-003
   4.7680000000000014E-002     7.4867252021918376E-003
   4.8099999999999990E-002     7.8571406584110465E-003
   4.8519999999999994E-002     8.2326912665628502E-003
   4.8939999999999997E-002     8.6120175084695907E-003
   4.9360000000000001E-002     8.9935874412520982E-003
   4.9780000000000005E-002     9.3757125716914941E-003
   5.0200000000000009E-002     9.7565425940312218E-003
   5.0620000000000012E-002     1.0134054458714261E-002
   5.1040000000000016E-002     1.0506059452869521E-002
   5.1459999999999992E-002     1.0870171033327342E-002
   5.1879999999999996E-002     1.1223798597364934E-002
   5.2299999999999999E-002     1.1564166570961210E-002
   5.2720000000000003E-002     1.1888330630326576E-002
   5.3140000000000007E-002     1.2193172884994849E-002
   5.3560000000000010E-002     1.2475381282339455E-002
   5.3980000000000014E-002     1.2731469408635340E-002
   5.4400000000000018E-002     1.2957781485155848E-002
   5.4819999999999994E-002     1.3150471195972641E-002
   5.5239999999999997E-002     1.3305526349754690E-002
   5.5660000000000001E-002     1.3418837825321687E-002
   5.6080000000000005E-002     1.3486207553566571E-002
   5.6500000000000009E-002     1.3503284670777544E-002
   5.6920000000000012E-002     1.3465570364536628E-002
   5.7340000000000016E-002     1.3368481857963821E-002
   5.7759999999999992E-002     1.3207388612521220E-002
   5.8179999999999996E-002     1.2977672630386012E-002
   5.8599999999999999E-002     1.2674742667474009E-002
   5.9020000000000003E-002     1.2293984574564428E-002
   5.9440000000000007E-002     1.1830783569168680E-002
   5.9860000000000010E-002     1.1280605053413745E-002
   6.0280000000000014E-002     1.0639068449943511E-002
   6.0700000000000018E-002     9.9020200687210264E-003
   6.1119999999999994E-002     9.0655203212883697E-003
   6.1539999999999997E-002     8.1258212626451141E-003
   6.1960000000000001E-002     7.0793742866167436E-003
   6.2380000000000005E-002     5.9229338685654210E-003
   6.2800000000000009E-002     4.6536843325678907E-003
   6.3220000000000012E-002     3.2692571711390901E-003
   6.3640000000000016E-002     1.7677447068600164E-003
   6.4059999999999992E-002     1.4769549467112696E-004
   6.4479999999999996E-002    -1.5918121855914727E-003
   6.4899999999999999E-002    -3.4510275311716303E-003
   6.5320000000000003E-002    -5.4294346412800303E-003
   6.5740000000000007E-002    -7.5258177439579080E-003
   6.6160000000000010E-002    -9.7383497748236292E-003
   6.6580000000000014E-002    -1.2064553241710532E-002
   6.7000000000000018E-002    -1.4501197119867262E-002
   6.7419999999999994E-002    -1.7044106047675815E-002
   6.7839999999999998E-002    -1.9688109668326979E-002
   6.8260000000000001E-002    -2.2427131839168075E-002
   6.8680000000000005E-002    -2.5254220522833590E-002
   6.9100000000000009E-002    -2.8161538333386308E-002
   6.9520000000000012E-002    -3.1140313243630688E-002
   6.9940000000000016E-002    -3.4180809066654320E-002
   7.0359999999999992E-002    -3.7272293645924708E-002
   7.0779999999999996E-002    -4.0403108517290474E-002
   7.1199999999999999E-002    -4.3560768421345000E-002
   7.1620000000000003E-002    -4.6731926053498275E-002
   7.2040000000000007E-002    -4.9902331572317563E-002
   7.2460000000000011E-002    -5.3056839644001666E-002
   7.2880000000000014E-002    -5.6179453181946802E-002
   7.3300000000000018E-002    -5.9253418237882841E-002
   7.3719999999999994E-002    -6.2261331968826474E-002
   7.4139999999999998E-002    -6.5185212621413816E-002
   7.4560000000000001E-002    -6.8006612147756038E-002
   7.4980000000000005E-002    -7.0706640371289015E-002
   7.5400000000000009E-002    -7.3265992444772957E-002
   7.5820000000000012E-002    -7.5665085681111660E-002
   7.6240000000000016E-002    -7.7884185256694827E-002
   7.6659999999999992E-002    -7.9903545894159378E-002
   7.7079999999999996E-002    -8.1703529256062141E-002
   7.7499999999999999E-002    -8.3264712412185693E-002
   7.7920000000000003E-002    -8.4568013097741382E-002
   7.8340000000000007E-002    -8.5594798512534181E-002
   7.8760000000000011E-002    -8.6327014898699053E-002
   7.9180000000000014E-002    -8.6747343308708633E-002
   7.9600000000000018E-002    -8.6839443349332676E-002
   8.0019999999999994E-002    -8.6588103608434538E-002
   8.0439999999999998E-002    -8.5979232049687868E-002
   8.0860000000000001E-002    -8.4999933465126035E-002
   8.1280000000000005E-002    -8.3638613493351277E-002
   8.1700000000000009E-002    -8.1885243362139440E-002
   8.2120000000000012E-002    -7.9731625566301159E-002
   8.2540000000000016E-002    -7.7171494482282110E-002
   8.2959999999999992E-002    -7.4200566609692473E-002
   8.3379999999999996E-002    -7.0816604645411729E-002
   8.3799999999999999E-002    -6.7019458836195048E-002
   8.4220000000000003E-002    -6.2811164032344935E-002
   8.4640000000000007E-002    -5.8196027453774266E-002
   8.5060000000000011E-002    -5.3180750567708317E-002
   8.5480000000000014E-002    -4.7774347665008744E-002
   8.5900000000000018E-002    -4.1987998043898453E-002
   8.6319999999999994E-002    -3.5835309792791641E-002
   8.6739999999999998E-002    -2.9332580948810836E-002
   8.7160000000000001E-002    -2.2498724330986430E-002
   8.7580000000000005E-002    -1.5354982105361927E-002
   8.8000000000000009E-002    -7.9248196630094352E-003
   8.8420000000000012E-002    -2.3399779480345884E-004
   8.8840000000000016E-002     7.6894309823807155E-003
   8.9259999999999992E-002     1.5815228240554733E-002
   8.9679999999999996E-002     2.4111413630625717E-002
   9.0100000000000000E-002     3.2544722953764461E-002
   9.0520000000000003E-002     4.1080377159670778E-002
   9.0940000000000007E-002     4.9681731645172048E-002
   9.1360000000000011E-002     5.8310221909579657E-002
   9.1780000000000014E-002     6.6925931488153470E-002
   9.2200000000000018E-002     7.5488444633851445E-002
   9.2619999999999994E-002     8.3957158524825479E-002
   9.3039999999999998E-002     9.2291122607300005E-002
   9.3460000000000001E-002    0.10044889743375457
   9.3880000000000005E-002    0.10838868378435655
   9.4300000000000009E-002    0.11606881389148721
   9.4720000000000013E-002    0.12344853361615092
   9.5140000000000016E-002    0.13048851761755914
   9.5559999999999992E-002    0.13715051213422533
   9.5979999999999996E-002    0.14339690453925910
   9.6400000000000000E-002    0.14919101246663793
   9.6820000000000003E-002    0.15449776759936662
   9.7240000000000007E-002    0.15928463880379776
   9.7660000000000011E-002    0.16352198140379770
   9.8080000000000014E-002    0.16718277657664862
   9.8500000000000018E-002    0.17024237727489558
   9.8919999999999994E-002    0.17267858733681254
   9.9339999999999998E-002    0.17447210745881314
   9.9760000000000001E-002    0.17560701557638989
  0.10018000000000001         0.17607089073740678
  0.10060000000000001         0.17585476804117664
  0.10102000000000001         0.17495303267463019
  0.10144000000000002         0.17336338918865660
  0.10185999999999999         0.17108699774311872
  0.10228000000000000         0.16812867064219716
  0.10270000000000000         0.16449710847396365
  0.10312000000000000         0.16020491029632866
  0.10354000000000001         0.15526841190475860
  0.10396000000000001         0.14970735674109481
  0.10438000000000001         0.14354460785250031
  0.10480000000000002         0.13680619600907762
  0.10521999999999999         0.12952112465025770
  0.10564000000000000         0.12172128843004226
  0.10606000000000000         0.11344148193679948
  0.10648000000000001         0.10471896412898739
  0.10690000000000001          9.5593047855617980E-002
  0.10732000000000001          8.6105171340560685E-002
  0.10774000000000002          7.6298906108940467E-002
  0.10815999999999999          6.6219727111930873E-002
  0.10858000000000000          5.5914761240950482E-002
  0.10900000000000000          4.5432207240246998E-002
  0.10942000000000000          3.4820814300599842E-002
  0.10984000000000001          2.4129416912128943E-002
  0.11026000000000001          1.3406584796050437E-002
  0.11068000000000001          2.7006340057978695E-003
  0.11110000000000002         -7.9404094346322077E-003
  0.11151999999999999         -1.8468843013326700E-002
  0.11194000000000000         -2.8837673751690600E-002
  0.11236000000000000         -3.9001345620398337E-002
  0.11278000000000001         -4.8915953725651412E-002
  0.11320000000000001         -5.8539211728742463E-002
  0.11362000000000001         -6.7830442550147266E-002
  0.11404000000000002         -7.6750845894320505E-002
  0.11446000000000002         -8.5264225668191695E-002
  0.11488000000000000         -9.3337555439362924E-002
  0.11530000000000000        -0.10094109524906959
  0.11572000000000000        -0.10804797639539666
  0.11614000000000001        -0.11463385029112508
  0.11656000000000001        -0.12067712897612944
  0.11698000000000001        -0.12615940001550668
  0.11740000000000002        -0.13106585097925150
  0.11781999999999999        -0.13538489801841344
  0.11824000000000000        -0.13910780250888022
  0.11866000000000000        -0.14222871803764023
  0.11908000000000001        -0.14474496633635275
  0.11950000000000001        -0.14665751281895947
  0.11992000000000001        -0.14797091595192169
  0.12034000000000002        -0.14869298006181297
  0.12076000000000002        -0.14883439726145500
  0.12118000000000000        -0.14840846789443518
  0.12160000000000000        -0.14743104366516779
  0.12202000000000000        -0.14592041581380860
  0.12244000000000001        -0.14389699626360891
  0.12286000000000001        -0.14138298355860540
  0.12328000000000001        -0.13840228443771144
  0.12370000000000002        -0.13498069324870238
  0.12411999999999999        -0.13114593176245673
  0.12454000000000000        -0.12692728233344530
  0.12496000000000000        -0.12235511832775041
  0.12537999999999999        -0.11746065429200360
  0.12580000000000002        -0.11227591555198646
  0.12622000000000000        -0.10683379610712745
  0.12664000000000003        -0.10116761383876498
  0.12706000000000001         -9.5310256362564238E-002
  0.12747999999999998         -8.9293825798976739E-002
  0.12790000000000001         -8.3149955437851322E-002
  0.12831999999999999         -7.6910220515580718E-002
  0.12874000000000002         -7.0606135718393345E-002
  0.12916000000000000         -6.4268483848973809E-002
  0.12958000000000003         -5.7926483708425514E-002
  0.13000000000000000         -5.1607779500729110E-002
  0.13041999999999998         -4.5339103763877418E-002
  0.13084000000000001         -3.9146747650017792E-002
  0.13125999999999999         -3.3056178002402944E-002
  0.13168000000000002         -2.7091095162954323E-002
  0.13210000000000000         -2.1272792623634247E-002
  0.13252000000000003         -1.5620216173631277E-002
  0.13294000000000000         -1.0150654904335702E-002
  0.13336000000000003         -4.8802591684389430E-003
  0.13378000000000001          1.7629326226101878E-004
  0.13419999999999999          5.0063599200430593E-003
  0.13462000000000002          9.5993538469708595E-003
  0.13503999999999999          1.3946393884090087E-002
  0.13546000000000002          1.8039919161842992E-002
  0.13588000000000000          2.1873639790881756E-002
  0.13630000000000003          2.5442836048956266E-002
  0.13672000000000001          2.8744622472704602E-002
  0.13713999999999998          3.1777922267942266E-002
  0.13756000000000002          3.4543275192550786E-002
  0.13797999999999999          3.7042733019739975E-002
  0.13840000000000002          3.9279806779115099E-002
  0.13882000000000000          4.1259271645003481E-002
  0.13924000000000003          4.2986787115561628E-002
  0.13966000000000001          4.4468552686803373E-002
  0.14007999999999998          4.5711266613488392E-002
  0.14050000000000001          4.6722482060298297E-002
  0.14091999999999999          4.7510802139285657E-002
  0.14134000000000002          4.8085757884543598E-002
  0.14176000000000000          4.8457558984619079E-002
  0.14218000000000003          4.8636773595513681E-002
  0.14260000000000000          4.8634353433636424E-002
  0.14301999999999998          4.8461778394262529E-002
  0.14344000000000001          4.8130943807335687E-002
  0.14385999999999999          4.7653810211327738E-002
  0.14428000000000002          4.7041942260395701E-002
  0.14470000000000000          4.6306295663141719E-002
  0.14512000000000003          4.5457384289322451E-002
  0.14554000000000000          4.4505605692031665E-002
  0.14596000000000003          4.3461465099762384E-002
  0.14638000000000001          4.2335611163588006E-002
  0.14679999999999999          4.1138711393527420E-002
  0.14722000000000002          3.9881219953874635E-002
  0.14763999999999999          3.8573131142695817E-002
  0.14806000000000002          3.7223882971057852E-002
  0.14848000000000000          3.5842370503837678E-002
  0.14890000000000003          3.4436907776573961E-002
  0.14932000000000001          3.3015065799946890E-002
  0.14973999999999998          3.1583484095210092E-002
  0.15016000000000002          3.0147874727037855E-002
  0.15057999999999999          2.8713376766546415E-002
  0.15100000000000002          2.7285116453520920E-002