  -8.0000000000000002E-002     0.0000000000000000
  -7.9579999999999998E-002     0.0000000000000000
  -7.9160000000000008E-002     0.0000000000000000
  -7.8740000000000004E-002     0.0000000000000000
  -7.8320000000000001E-002     0.0000000000000000
  -7.7899999999999997E-002     0.0000000000000000
  -7.7480000000000007E-002     0.0000000000000000
  -7.7060000000000003E-002     0.0000000000000000
  -7.6640000000000000E-002     0.0000000000000000
  -7.6219999999999996E-002     0.0000000000000000
  -7.5800000000000006E-002     0.0000000000000000
  -7.5380000000000003E-002    -2.1034157324706172E-031
  -7.4959999999999999E-002     1.0206252431067221E-030
  -7.4539999999999995E-002     1.0882150755317494E-029
  -7.4120000000000005E-002    -4.7437072884886283E-030
  -7.3700000000000002E-002    -2.2328635879626883E-028
  -7.3279999999999998E-002    -5.0375588103952397E-028
  -7.2860000000000008E-002     1.3275887077726020E-027
  -7.2440000000000004E-002     8.0178792016296958E-027
  -7.2020000000000001E-002     7.1919867586439590E-027
  -7.1599999999999997E-002    -4.4574209477835860E-026
  -7.1180000000000007E-002    -1.4964372377254686E-025
  -7.0760000000000003E-002    -5.2486172684984968E-026
  -7.0340000000000000E-002     7.5278037229844198E-025
  -6.9919999999999996E-002     1.9283031356198993E-024
  -6.9500000000000006E-002     3.9583712796497812E-025
  -6.9080000000000003E-002    -8.2145131501928369E-024
  -6.8659999999999999E-002    -1.9129770524897889E-023
  -6.8239999999999995E-002    -5.6897212078428467E-024
  -6.7820000000000005E-002     6.4038468461669128E-023
  -6.7400000000000002E-002     1.5241642707188146E-022
  -6.6979999999999998E-002     7.7819818152247302E-023
  -6.6560000000000008E-002    -3.6944538229131674E-022
  -6.6140000000000004E-002    -9.8989417050301600E-022
  -6.5720000000000001E-002    -7.6908221626374359E-022
  -6.5299999999999997E-002     1.5379670057707057E-021
  -6.4879999999999993E-002     5.2463281954831960E-021
  -6.4460000000000003E-002     5.6441339738670593E-021
  -6.4040000000000000E-002    -3.8239043024806078E-021
  -6.3619999999999996E-002    -2.2406112731947475E-020
  -6.3200000000000006E-002    -3.2023188857857104E-020
  -6.2780000000000002E-002    -2.7421831557198462E-021
  -6.2359999999999999E-002     7.4122574764084976E-020
  -6.1940000000000002E-002     1.4318536994959707E-019
  -6.1520000000000005E-002     8.8317956203227340E-020
  -6.1100000000000002E-002    -1.6721898035397925E-019
  -6.0679999999999998E-002    -5.0156853019564859E-019
  -6.0260000000000001E-002    -5.4134839392323944E-019
  -5.9840000000000004E-002     9.8199626424444690E-020
  -5.9420000000000001E-002     1.3109611498426515E-018
  -5.8999999999999997E-002     2.1466863356703799E-018
  -5.8580000000000000E-002     1.1982912756477798E-018
  -5.8160000000000003E-002    -2.0982892914991512E-018
  -5.7740000000000000E-002    -6.0535779943824389E-018
  -5.7319999999999996E-002    -6.7705085354971461E-018
  -5.6899999999999999E-002    -7.1688451734704521E-019
  -5.6480000000000002E-002     1.1160419736218015E-017
  -5.6059999999999999E-002     2.1106109889412829E-017
  -5.5640000000000002E-002     1.7625837602507501E-017
  -5.5220000000000005E-002    -5.6848671461673850E-018
  -5.4800000000000001E-002    -4.0637250424187625E-017
  -5.4379999999999998E-002    -6.2829034604449479E-017
  -5.3960000000000001E-002    -4.3772785061220553E-017
  -5.3540000000000004E-002     2.6553325252149238E-017
  -5.3120000000000001E-002     1.2053532281202586E-016
  -5.2699999999999997E-002     1.7455264640492132E-016
  -5.2280000000000000E-002     1.2020646406179067E-016
  -5.1860000000000003E-002    -6.4712152025009496E-017
  -5.1440000000000000E-002    -3.1413867542368842E-016
  -5.1019999999999996E-002    -4.7532220530719930E-016
  -5.0599999999999999E-002    -3.7407693120901815E-016
  -5.0180000000000002E-002     7.0416031704485342E-017
  -4.9759999999999999E-002     7.3552177325795565E-016
  -4.9340000000000002E-002     1.2681528429589752E-015
  -4.8920000000000005E-002     1.2042798753940561E-015
  -4.8500000000000001E-002     2.3324306437939658E-016
  -4.8079999999999998E-002    -1.4950545178605736E-015
  -4.7660000000000001E-002    -3.2092291654961565E-015
  -4.7239999999999997E-002    -3.6969141406885513E-015
  -4.6820000000000001E-002    -1.8949264135001061E-015
  -4.6399999999999997E-002     2.2892968659877384E-015
  -4.5980000000000000E-002     7.3634800259012723E-015
  -4.5560000000000003E-002     1.0380202683437135E-014
  -4.5140000000000000E-002     8.1277801676226364E-015
  -4.4720000000000003E-002    -8.5344438776109621E-016
  -4.4299999999999999E-002    -1.4345844747364134E-014
  -4.3880000000000002E-002    -2.5949246232670270E-014
  -4.3459999999999999E-002    -2.7060640442338990E-014
  -4.3040000000000002E-002    -1.1309090875550791E-014
  -4.2619999999999998E-002     2.0191017932426752E-014
  -4.2200000000000001E-002     5.5727752109484055E-014
  -4.1779999999999998E-002     7.5041525762316516E-014
  -4.1360000000000001E-002     5.7742575483919590E-014
  -4.0939999999999997E-002    -4.1036736953553211E-015
  -4.0520000000000000E-002    -9.5022082307993511E-014
  -4.0099999999999997E-002    -1.7427047858574732E-013
  -3.9680000000000000E-002    -1.8841479850684120E-013
  -3.9260000000000003E-002    -9.7372484063995615E-014
  -3.8840000000000000E-002     9.5530747840594021E-014
  -3.8420000000000003E-002     3.2550673429496783E-013
  -3.7999999999999999E-002     4.7618311604603875E-013
  -3.7580000000000002E-002     4.2387378398242773E-013
  -3.7159999999999999E-002     1.0548168622775333E-013
  -3.6740000000000002E-002    -4.1886683778790682E-013
  -3.6319999999999998E-002    -9.4634649878212549E-013
  -3.5900000000000001E-002    -1.1840561698374096E-012
  -3.5479999999999998E-002    -8.7386352065790822E-013
  -3.5060000000000001E-002     5.0572472029805578E-014
  -3.4639999999999997E-002     1.3481389286152467E-012
  -3.4220000000000000E-002     2.4753798481865210E-012
  -3.3799999999999997E-002     2.7567656415818714E-012
  -3.3380000000000000E-002     1.6925961878610002E-012
  -3.2960000000000003E-002    -7.0649393542486234E-013
  -3.2539999999999999E-002    -3.7245847466198013E-012
  -3.2120000000000003E-002    -6.0391436124439065E-012
  -3.1699999999999999E-002    -6.1712094953575692E-012
  -3.1280000000000002E-002    -3.1852746214852967E-012
  -3.0859999999999999E-002     2.6264629706125009E-012
  -3.0440000000000002E-002     9.4268244285163817E-012
  -3.0019999999999998E-002     1.4174413399992933E-011
  -2.9600000000000001E-002     1.3688297709652007E-011
  -2.9179999999999998E-002     6.1690102569284538E-012
  -2.8760000000000001E-002    -7.4060430638154126E-012
  -2.8339999999999997E-002    -2.2731765563673071E-011
  -2.7920000000000000E-002    -3.3025653780621704E-011
  -2.7499999999999997E-002    -3.1356923064149779E-011
  -2.7080000000000000E-002    -1.3864008499803386E-011
  -2.6659999999999996E-002     1.7333439221495663E-011
  -2.6239999999999999E-002     5.2963983881076343E-011
  -2.5820000000000003E-002     7.8273942901510913E-011
  -2.5399999999999999E-002     7.7706089985418228E-011
  -2.4980000000000002E-002     4.1482394447609124E-011
  -2.4559999999999998E-002    -2.8167713916075425E-011
  -2.4140000000000002E-002    -1.1388960541678119E-010
  -2.3719999999999998E-002    -1.8541511448974024E-010
  -2.3300000000000001E-002    -2.0771962643926029E-010
  -2.2879999999999998E-002    -1.5348846905044669E-010
  -2.2460000000000001E-002    -1.6129488328508171E-011
  -2.2039999999999997E-002     1.8154036293443442E-010
  -2.1620000000000000E-002     3.8724650636138846E-010
  -2.1199999999999997E-002     5.2982381203541630E-010
  -2.0780000000000000E-002     5.3885491892537136E-010
  -2.0359999999999996E-002     3.6829066395058836E-010
  -1.9939999999999999E-002     1.6749962359755829E-011
  -1.9519999999999996E-002    -4.6265568036513068E-010
  -1.9099999999999999E-002    -9.6738032426303886E-010
  -1.8680000000000002E-002    -1.3652133321243733E-009
  -1.8259999999999998E-002    -1.5237821614628323E-009
  -1.7840000000000002E-002    -1.3416483828742907E-009
  -1.7420000000000005E-002    -7.7268166836293332E-010
  -1.7000000000000001E-002     1.6149388904041402E-010
  -1.6579999999999998E-002     1.3711516790803890E-009
  -1.6159999999999994E-002     2.7056222042130495E-009
  -1.5740000000000004E-002     3.9614858089675585E-009
  -1.5320000000000000E-002     4.8879064525764001E-009
  -1.4899999999999997E-002     5.1916466806493075E-009
  -1.4479999999999993E-002     4.5522888756317855E-009
  -1.4060000000000003E-002     2.6630274455602359E-009
  -1.3639999999999999E-002    -6.8981474369469200E-010
  -1.3219999999999996E-002    -5.5072141066220396E-009
  -1.2799999999999992E-002    -1.1436410819996874E-008
  -1.2380000000000002E-002    -1.7649972458520822E-008
  -1.1959999999999998E-002    -2.2802980964037479E-008
  -1.1539999999999995E-002    -2.5127932341807007E-008
  -1.1120000000000005E-002    -2.2706698098917112E-008
  -1.0700000000000001E-002    -1.3916093566096827E-008
  -1.0279999999999997E-002     2.0134236497604971E-009
  -9.8599999999999938E-003     2.4442591257071149E-008
  -9.4400000000000039E-003     5.0927986651645872E-008
  -9.0200000000000002E-003     7.7144423486575368E-008
  -8.5999999999999965E-003     9.7242990370055046E-008
  -8.1799999999999928E-003     1.0467832152013049E-007
  -7.7600000000000030E-003     9.3430573682305868E-008
  -7.3399999999999993E-003     5.9436718695424354E-008
  -6.9199999999999956E-003     1.9634787129586739E-009
  -6.4999999999999919E-003    -7.5375740099122902E-008
  -6.0800000000000021E-003    -1.6422615956597939E-007
  -5.6599999999999984E-003    -2.5189301790045071E-007
  -5.2399999999999947E-003    -3.2258352704886163E-007
  -4.8200000000000048E-003    -3.5939092251066457E-007
  -4.4000000000000011E-003    -3.4680065682719772E-007
  -3.9799999999999974E-003    -2.7341600212301319E-007
  -3.5599999999999937E-003    -1.3455623391120872E-007
  -3.1400000000000039E-003     6.5611879512455214E-008
  -2.7200000000000002E-003     3.1273557695890591E-007
  -2.2999999999999965E-003     5.8201597475308124E-007
  -1.8799999999999928E-003     8.3927007941771699E-007
  -1.4600000000000030E-003     1.0435035152688184E-006
  -1.0399999999999993E-003     1.1510520817353930E-006
  -6.1999999999999555E-004     1.1211807210208188E-006
  -1.9999999999999185E-004     9.2274691246383376E-007
   2.1999999999999797E-004     5.4121688887042002E-007
   6.4000000000000168E-004    -1.5016012279672185E-008
   1.0600000000000054E-003    -7.1029233708019353E-007
   1.4799999999999952E-003    -1.4806278746256424E-006
   1.8999999999999989E-003    -2.2369743971076919E-006
   2.3200000000000026E-003    -2.8732889428677980E-006
   2.7400000000000063E-003    -3.2789974314417590E-006
   3.1599999999999961E-003    -3.3545422357429591E-006
   3.5799999999999998E-003    -3.0277784380431275E-006
   4.0000000000000036E-003    -2.2684592056928908E-006
   4.4200000000000073E-003    -1.0980031185900791E-006
   4.8399999999999971E-003     4.0766592478642327E-007
   5.2600000000000008E-003     2.1233085708782508E-006
   5.6800000000000045E-003     3.8871955891381255E-006
   6.1000000000000082E-003     5.5196231650834070E-006
   6.5199999999999980E-003     6.8440082700472176E-006
   6.9400000000000017E-003     7.7069245021627032E-006
   7.3600000000000054E-003     7.9936563112197956E-006
   7.7799999999999953E-003     7.6369496281680011E-006
   8.1999999999999990E-003     6.6182172217983143E-006
   8.6200000000000027E-003     4.9622239544094142E-006
   9.0400000000000064E-003     2.7278099569810349E-006
   9.4599999999999962E-003    -1.9325150940148275E-009
   9.8799999999999999E-003    -3.1268742144089398E-006
   1.0300000000000004E-002    -6.5320801524173718E-006
   1.0720000000000007E-002    -1.0084471070373339E-005
   1.1139999999999997E-002    -1.3625087200443885E-005
   1.1560000000000001E-002    -1.6959943566436557E-005
   1.1980000000000005E-002    -1.9853210103927293E-005
   1.2400000000000008E-002    -2.2026432147178829E-005
   1.2819999999999998E-002    -2.3166878338007298E-005
   1.3240000000000002E-002    -2.2946200699507778E-005
   1.3660000000000005E-002    -2.1048902369900565E-005
   1.4079999999999995E-002    -1.7208233851722070E-005
   1.4499999999999999E-002    -1.1246001183730626E-005
   1.4920000000000003E-002    -3.1118532941654586E-006
   1.5340000000000006E-002     7.0820063108373034E-006
   1.5759999999999996E-002     1.9034567873863863E-005
   1.6180000000000000E-002     3.2241534634271233E-005
   1.6600000000000004E-002     4.5995301461572044E-005
   1.7020000000000007E-002     5.9401175944530764E-005
   1.7439999999999997E-002     7.1412107915227386E-005
   1.7860000000000001E-002     8.0881723566532726E-005
   1.8280000000000005E-002     8.6635485990921673E-005
   1.8700000000000008E-002     8.7556795520102808E-005
   1.9119999999999998E-002     8.2683025374410764E-005
   1.9540000000000002E-002     7.1304143717076157E-005
   1.9960000000000006E-002     5.3052895515569149E-005
   2.0380000000000009E-002     2.7976169490486805E-005
   2.0799999999999999E-002    -3.4224032738087521E-006
   2.1220000000000003E-002    -4.0173140564513184E-005
   2.1640000000000006E-002    -8.0866702608533333E-005
   2.2059999999999996E-002    -1.2370908037818743E-004
   2.2480000000000000E-002    -1.6660010449145996E-004
   2.2900000000000004E-002    -2.0722127428802849E-004
   2.3320000000000007E-002    -2.4311878143900423E-004
   2.3739999999999997E-002    -2.7177533290623684E-004
   2.4160000000000001E-002    -2.9066219363662997E-004
   2.4580000000000005E-002    -2.9727878852150920E-004
   2.5000000000000008E-002    -2.8919011939219214E-004
   2.5419999999999998E-002    -2.6407508070548137E-004
   2.5840000000000002E-002    -2.1979708524738796E-004
   2.6260000000000006E-002    -1.5451158502624124E-004
   2.6680000000000009E-002    -6.6800132587643051E-005
   2.7099999999999999E-002     4.4169981998156676E-005
   2.7520000000000003E-002     1.7848529950164894E-004
   2.7940000000000006E-002     3.3535345951642061E-004
   2.8359999999999996E-002     5.1301927595957450E-004
   2.8780000000000000E-002     7.0876324259766738E-004
   2.9200000000000004E-002     9.1898903894835370E-004
   2.9620000000000007E-002     1.1394221342215735E-003
   3.0039999999999997E-002     1.3653682736706487E-003
   3.0460000000000001E-002     1.5920459931176385E-003
   3.0880000000000005E-002     1.8149199655302555E-003
   3.1300000000000008E-002     2.0300334067014448E-003
   3.1719999999999998E-002     2.2342664202804233E-003
   3.2140000000000002E-002     2.4255851845988194E-003
   3.2560000000000006E-002     2.6032162206219237E-003
   3.2980000000000009E-002     2.7678008968543030E-003
   3.3399999999999999E-002     2.9215063645726372E-003
   3.3820000000000003E-002     3.0680752981094707E-003
   3.4240000000000007E-002     3.2129129113474563E-003
   3.4659999999999996E-002     3.3632488949729353E-003
   3.5080000000000000E-002     3.5280833414878640E-003
   3.5500000000000004E-002     3.7183221677385557E-003
   3.5920000000000007E-002     3.9466068604226820E-003
   3.6339999999999997E-002     4.2271655496206656E-003
   3.6760000000000001E-002     4.5754704342810225E-003
   3.7180000000000005E-002     5.0078786511286184E-003
   3.7600000000000008E-002     5.5411903702562932E-003
   3.8019999999999998E-002     6.1920537373949310E-003
   3.8440000000000002E-002     6.9767372808807442E-003
   3.8860000000000006E-002     7.9104283606672727E-003
   3.9280000000000009E-002     9.0066796652929215E-003
   3.9699999999999999E-002     1.0277435626211374E-002
   4.0120000000000003E-002     1.1732509531624889E-002
   4.0540000000000007E-002     1.3380141964475558E-002
   4.0960000000000010E-002     1.5227160853791713E-002
   4.1380000000000000E-002     1.7279167551554162E-002
   4.1800000000000004E-002     1.9541164874386081E-002
   4.2220000000000008E-002     2.2018162679107611E-002
   4.2639999999999997E-002     2.4715335475891810E-002
   4.3060000000000001E-002     2.7638574012899098E-002
   4.3480000000000005E-002     3.0795982598422558E-002
   4.3900000000000008E-002     3.4197734780663062E-002
   4.4319999999999998E-002     3.7857292045162194E-002
   4.4740000000000002E-002     4.1791544869009961E-002
   4.5159999999999992E-002     4.6021181262652464E-002
   4.5579999999999996E-002     5.0570888576131678E-002
   4.5999999999999999E-002     5.5470347136026173E-002
   4.6420000000000003E-002     6.0754161563146385E-002
   4.6840000000000007E-002     6.6461123277013368E-002
   4.7260000000000010E-002     7.2635517831578483E-002
   4.7680000000000014E-002     7.9324758668518403E-002
   4.8099999999999990E-002     8.6579071411759842E-002
   4.8519999999999994E-002     9.4451473826879420E-002
   4.8939999999999997E-002    0.10299669977355540
   4.9360000000000001E-002    0.11227216014205657
   4.9780000000000005E-002    0.12233469222496689
   5.0200000000000009E-002    0.13323867001727291
   5.0620000000000012E-002    0.14503352348275925
   5.1040000000000016E-002    0.15776593745104833
   5.1459999999999992E-002    0.17147648893708237
   5.1879999999999996E-002    0.18620152954223620
   5.2299999999999999E-002    0.20197130072258548
   5.2720000000000003E-002    0.21880219876166909
   5.3140000000000007E-002    0.23671108584915898
   5.3560000000000010E-002    0.25570783141992126
   5.3980000000000014E-002    0.27578994932335454
   5.4400000000000018E-002    0.29695874014222073
   5.4819999999999994E-002    0.31920860064513085
   5.5239999999999997E-002    0.34253331867494213
   5.5660000000000001E-002    0.36692754533505700
   5.6080000000000005E-002    0.39239044308708471
   5.6500000000000009E-002    0.41890764358370891
   5.6920000000000012E-002    0.44646717375739980
   5.7340000000000016E-002    0.47505784610619028
   5.7759999999999992E-002    0.50467164430615441
   5.8179999999999996E-002    0.53528532774159088
   5.8599999999999999E-002    0.56686630287660034
   5.9020000000000003E-002    0.59938635550715169
   5.9440000000000007E-002    0.63279622629499965
   5.9860000000000010E-002    0.66706351904171335
   6.0280000000000014E-002    0.70215268089135641
   6.0700000000000018E-002    0.73798693864108411
   6.1119999999999994E-002    0.77447656497315276
   6.1539999999999997E-002    0.81152979283997539
   6.1960000000000001E-002    0.84902612772434749
   6.2380000000000005E-002    0.88685759122693053
   6.2800000000000009E-002    0.92484921342944870
   6.3220000000000012E-002    0.96281307370112845
   6.3640000000000016E-002     1.0005437453614410
   6.4059999999999992E-002     1.0377813303406132
   6.4479999999999996E-002     1.0742865568125266
   6.4899999999999999E-002     1.1097800522152226
   6.5320000000000003E-002     1.1439523389902273
   6.5740000000000007E-002     1.1764559656863331
   6.6160000000000010E-002     1.2069240767397020
   6.6580000000000014E-002     1.2349956971745413
   6.7000000000000018E-002     1.2602761658293302
   6.7419999999999994E-002     1.2824111278227690
   6.7839999999999998E-002     1.3010124449725513
   6.8260000000000001E-002     1.3156253682310217
   6.8680000000000005E-002     1.3258869871896679
   6.9100000000000009E-002     1.3313873242101106
   6.9520000000000012E-002     1.3317702785650063
   6.9940000000000016E-002     1.3265844490982615
   7.0359999999999992E-002     1.3154940185631014
   7.0779999999999996E-002     1.2980942722948035
   7.1199999999999999E-002     1.2740325272661195
   7.1620000000000003E-002     1.2430605432470738
   7.2040000000000007E-002     1.2047581073403375
   7.2460000000000011E-002     1.1588857080928194
   7.2880000000000014E-002     1.1050846503765537
   7.3300000000000018E-002     1.0431276252940154
   7.3719999999999994E-002    0.97289846602077623
   7.4139999999999998E-002    0.89419105091067352
   7.4560000000000001E-002    0.80692528010259790
   7.4980000000000005E-002    0.71081324088654718
   7.5400000000000009E-002    0.60570423806522411
   7.5820000000000012E-002    0.49171885776557595
   7.6240000000000016E-002    0.36892694934268216
   7.6659999999999992E-002    0.23748546681070251
   7.7079999999999996E-002     9.7722690717062743E-002
   7.7499999999999999E-002    -4.9944415278453176E-002
   7.7920000000000003E-002   -0.20543409224671216
   7.8340000000000007E-002   -0.36828692001620561
   7.8760000000000011E-002   -0.53823835119397645
   7.9180000000000014E-002   -0.71486179068879319
   7.9600000000000018E-002   -0.89772290684770006
   8.0019999999999994E-002    -1.0854380770642296
   8.0439999999999998E-002    -1.2772856009457958
   8.0860000000000001E-002    -1.4721306850535640
   8.1280000000000005E-002    -1.6689331797245222
   8.1700000000000009E-002    -1.8664704741205327
   8.2120000000000012E-002    -2.0636675565957496
   8.2540000000000016E-002    -2.2592661318364056
   8.2959999999999992E-002    -2.4521387975908562
   8.3379999999999996E-002    -2.6411210254399191
   8.3799999999999999E-002    -2.8248712923191852
   8.4220000000000003E-002    -3.0014936776297749
   8.4640000000000007E-002    -3.1690989672421757
   8.5060000000000011E-002    -3.3261558401427935
   8.5480000000000014E-002    -3.4710255946113362
   8.5900000000000018E-002    -3.6024021115010743
   8.6319999999999994E-002    -3.7187678700387541
   8.6739999999999998E-002    -3.8185949289718262
   8.7160000000000001E-002    -3.9003450464408771
   8.7580000000000005E-002    -3.9625214248582532
   8.8000000000000009E-002    -4.0042459187419306
   8.8420000000000012E-002    -4.0248145839688885
   8.8840000000000016E-002    -4.0230325488546379
   8.9259999999999992E-002    -3.9973804176642380
   8.9679999999999996E-002    -3.9464419228677614
   9.0100000000000000E-002    -3.8688863876496327
   9.0520000000000003E-002    -3.7642429616449546
   9.0940000000000007E-002    -3.6326102558082622
   9.1360000000000011E-002    -3.4744121371603987
   9.1780000000000014E-002    -3.2902977506876221
   9.2200000000000018E-002    -3.0810351235566036
   9.2619999999999994E-002    -2.8472409853974261
   9.3039999999999998E-002    -2.5893650014147913
   9.3460000000000001E-002    -2.3072531866524191
   9.3880000000000005E-002    -2.0013570103953850
   9.4300000000000009E-002    -1.6728812972680780
   9.4720000000000013E-002    -1.3242952811550286
   9.5140000000000016E-002   -0.95847757442302295
   9.5559999999999992E-002   -0.57800066109425374
   9.5979999999999996E-002   -0.18574822396555382
   9.6400000000000000E-002    0.21541235864077860
   9.6820000000000003E-002    0.62205612677094768
   9.7240000000000007E-002     1.0304992220397733
   9.7660000000000011E-002     1.4374978609496216
   9.8080000000000014E-002     1.8403391049025577
   9.8500000000000018E-002     2.2352824233626190
   9.8919999999999994E-002     2.6182593164328183
   9.9339999999999998E-002     2.9845674002889035
   9.9760000000000001E-002     3.3298889558689928
  0.10018000000000001          3.6504023631087157
  0.10060000000000001          3.9420263460745995
  0.10102000000000001          4.2002888731785841
  0.10144000000000002          4.4202460056820367
  0.10185999999999999          4.5971522787700581
  0.10228000000000000          4.7272212035818626
  0.10270000000000000          4.8075148375595997
  0.10312000000000000          4.8350710547784894
  0.10354000000000001          4.8065602776961409
  0.10396000000000001          4.7191740163311300
  0.10438000000000001          4.5704381283113200
  0.10480000000000002          4.3587767514952267
  0.10521999999999999          4.0830902199589270
  0.10564000000000000          3.7411564249189557
  0.10606000000000000          3.3315613934634252
  0.10648000000000001          2.8541036936656101
  0.10690000000000001          2.3097318479109865
  0.10732000000000001          1.6999152604960326
  0.10774000000000002          1.0261093324925743
  0.10815999999999999         0.29072950638030054
  0.10858000000000000        -0.50311135547391739
  0.10900000000000000         -1.3510839250932596
  0.10942000000000000         -2.2496507206258989
  0.10984000000000001         -3.1949393471646585
  0.11026000000000001         -4.1817849979850976
  0.11068000000000001         -5.2039325148016147
  0.11110000000000002         -6.2531414396793421
  0.11151999999999999         -7.3216737420390983
  0.11194000000000000         -8.4028995464868235
  0.11236000000000000         -9.4906749951597256
  0.11278000000000001         -10.578161629328489
  0.11320000000000001         -11.656038206647118
  0.11362000000000001         -12.713114033454886
  0.11404000000000002         -13.738563623953221
  0.11446000000000002         -14.723541354833232
  0.11488000000000000         -15.659183718604542
  0.11530000000000000         -16.537624312821261
  0.11572000000000000         -17.349590740753371
  0.11614000000000001         -18.085392640671326
  0.11656000000000001         -18.735079123980778
  0.11698000000000001         -19.289727776715676
  0.11740000000000002         -19.741538255429443
  0.11781999999999999         -20.083073764996893
  0.11824000000000000         -20.307683342125973
  0.11866000000000000         -20.408847356275437
  0.11908000000000001         -20.381329756532544
  0.11950000000000001         -20.219312670964285
  0.11992000000000001         -19.917854458377196
  0.12034000000000002         -19.473447565559809
  0.12076000000000002         -18.884110732449226
  0.12118000000000000         -18.150170012419334
  0.12160000000000000         -17.271296230752505
  0.12202000000000000         -16.246935162338815
  0.12244000000000001         -15.076905452381107
  0.12286000000000001         -13.763583582103466
  0.12328000000000001         -12.313684292029064
  0.12370000000000002         -10.734143311194165
  0.12411999999999999         -9.0317623895459107
  0.12454000000000000         -7.2121633319247698
  0.12496000000000000         -5.2822935754189375
  0.12537999999999999         -3.2505579762733139
  0.12580000000000002         -1.1289205511569480
  0.12622000000000000          1.0714226517674861
  0.12664000000000003          3.3398606953950987
  0.12706000000000001          5.6656350339149197
  0.12747999999999998          8.0352468284424727
  0.12790000000000001          10.434014303972994
  0.12831999999999999          12.845476873474439
  0.12874000000000002          15.253741818360689
  0.12916000000000000          17.644559531031355
  0.12958000000000003          20.003980717492105
  0.13000000000000000          22.318084211081416
  0.13041999999999998          24.572993236411367
  0.13084000000000001          26.756062003636735
  0.13125999999999999          28.852355685500733
  0.13168000000000002          30.846494607304503
  0.13210000000000000          32.723083750157720
  0.13252000000000003          34.467532048409645
  0.13294000000000000          36.069777804038019
  0.13336000000000003          37.521399834734297
  0.13378000000000001          38.811970121695069
  0.13419999999999999          39.930443904344024
  0.13462000000000002          40.866859725420902
  0.13503999999999999          41.612467554721519
  0.13546000000000002          42.164300637394817
  0.13588000000000000          42.519266419511595
  0.13630000000000003          42.672777372803900
  0.13672000000000001          42.622679982916495
  0.13713999999999998          42.368233414222900
  0.13756000000000002          41.910494123850832
  0.13797999999999999          41.251797889907188
  0.13840000000000002          40.394039997443883
  0.13882000000000000          39.337950390755402
  0.13924000000000003          38.088922396008954
  0.13966000000000001          36.656007214916514
  0.14007999999999998          35.048361726394425
  0.14050000000000001          33.275791112698769
  0.14091999999999999          31.347918495932472
  0.14134000000000002          29.276029781464100
  0.14176000000000000          27.071149001804663
  0.14218000000000003          24.746485393570463
  0.14260000000000000          22.314682149243552
  0.14301999999999998          19.788121284276464
  0.14344000000000001          17.179638727277705
  0.14385999999999999          14.505204359042430
  0.14428000000000002          11.781583440940279
  0.14470000000000000          9.0248149595972027
  0.14512000000000003          6.2486034440586566
  0.14554000000000000          3.4666187268635906
  0.14596000000000003         0.69235020452642015
  0.14638000000000001         -2.0583302700963273
  0.14679999999999999         -4.7684397041499400
  0.14722000000000002         -7.4221711168418834
  0.14763999999999999         -10.007068320971921
  0.14806000000000002         -12.512480645554172
  0.14848000000000000         -14.929366618757424
  0.14890000000000003         -17.247592925739170
  0.14932000000000001         -19.456409595274241
  0.14973999999999998         -21.544839539690940
  0.15016000000000002         -23.502833129409844
  0.15057999999999999         -25.320750217753996
  0.15100000000000002         -26.992146030622255
  0.15142000000000000         -28.512951331648896
  0.15184000000000003         -29.879979736297866
  0.15226000000000001         -31.091492535200430
  0.15267999999999998         -32.144315154339793
  0.15310000000000001         -33.033241448890756
  0.15351999999999999         -33.756702537820424
  0.15394000000000002         -34.315689942002628
  0.15436000000000000         -34.715691690880696
  0.15478000000000003         -34.961015063606936
  0.15520000000000000         -35.054746156928623
  0.15561999999999998         -34.997798627495541
  0.15604000000000001         -34.793484948946073
  0.15645999999999999         -34.448049772528407
  0.15688000000000002         -33.968704660579682
  0.15730000000000000         -33.362295855964554
  0.15772000000000003         -32.634948294362168
  0.15814000000000000         -31.791551035924115
  0.15856000000000003         -30.840923177687447
  0.15898000000000001         -29.794540202337391