  -4.0000000000000001E-002     0.0000000000000000
  -3.9899999999999998E-002     0.0000000000000000
  -3.9800000000000002E-002     0.0000000000000000
  -3.9699999999999999E-002     0.0000000000000000
  -3.9600000000000003E-002     0.0000000000000000
  -3.9500000000000000E-002    -4.0386406673822777E-028
  -3.9399999999999998E-002    -1.7715298740826611E-027
  -3.9300000000000002E-002    -9.8081805388859594E-028
  -3.9199999999999999E-002    -3.1523676796512675E-026
  -3.9100000000000003E-002    -4.6067760476140652E-026
  -3.9000000000000000E-002     9.6818851328515201E-025
  -3.8900000000000004E-002     4.9395077783047309E-024
  -3.8800000000000001E-002     9.3345137831115210E-024
  -3.8699999999999998E-002     2.8432481311104867E-023
  -3.8600000000000002E-002    -6.1664440490089589E-024
  -3.8500000000000000E-002    -1.1185159063110306E-022
  -3.8400000000000004E-002    -1.8081514887361917E-022
  -3.8300000000000001E-002    -5.2114907994447244E-022
  -3.8199999999999998E-002    -8.1732336009107145E-022
  -3.8100000000000002E-002    -1.9067147237297341E-021
  -3.7999999999999999E-002    -3.7993318341291210E-021
  -3.7900000000000003E-002    -4.6208009422670548E-021
  -3.7800000000000000E-002    -6.0997340423361621E-021
  -3.7699999999999997E-002    -6.3659844175888018E-021
  -3.7600000000000001E-002    -5.6781413290886946E-021
  -3.7499999999999999E-002    -4.2152752430661495E-021
  -3.7400000000000003E-002    -3.4159449293207300E-021
  -3.7300000000000000E-002    -6.6778359513859115E-021
  -3.7200000000000004E-002    -7.8177106264263738E-021
  -3.7100000000000001E-002    -1.0114694252258098E-020
  -3.6999999999999998E-002    -1.3691125145111187E-020
  -3.6900000000000002E-002    -5.1582045958269148E-021
  -3.6799999999999999E-002     8.4683657263817569E-021
  -3.6700000000000003E-002     1.1541370782584665E-020
  -3.6600000000000001E-002     7.3862648511460786E-021
  -3.6499999999999998E-002     9.2109792382047417E-021
  -3.6400000000000002E-002     1.6742563728663762E-020
  -3.6299999999999999E-002    -5.3821527606831366E-020
  -3.6200000000000003E-002    -2.3011663162978870E-019
  -3.6100000000000000E-002    -2.9082556228476921E-019
  -3.6000000000000004E-002    -5.1899276185531770E-019
  -3.5900000000000001E-002    -7.4515345390435982E-019
  -3.5799999999999998E-002    -5.8732041369282373E-019
  -3.5700000000000003E-002    -7.3604671234803383E-019
  -3.5600000000000000E-002    -9.9400722567333485E-019
  -3.5500000000000004E-002    -1.0330967828928704E-018
  -3.5400000000000001E-002    -1.2856141375948428E-018
  -3.5299999999999998E-002    -1.4200032765841893E-018
  -3.5200000000000002E-002    -1.0733775835920589E-018
  -3.5099999999999999E-002    -1.5280936555634842E-018
  -3.5000000000000003E-002    -3.0034355219226242E-018
  -3.4900000000000000E-002    -3.7481331993094673E-018
  -3.4799999999999998E-002    -3.6275712114395572E-018
  -3.4700000000000002E-002    -3.0603614712930641E-018
  -3.4599999999999999E-002    -1.5862354570368005E-018
  -3.4500000000000003E-002    -1.4020990556230556E-019
  -3.4400000000000000E-002     6.2971078344796388E-019
  -3.4299999999999997E-002     2.7860636238819580E-018
  -3.4200000000000001E-002     4.9730627822280058E-018
  -3.4099999999999998E-002     3.2944887398216045E-018
  -3.4000000000000002E-002     2.6211362174480726E-018
  -3.3900000000000000E-002     8.1217051043957918E-018
  -3.3799999999999997E-002     1.5532034881995980E-017
  -3.3700000000000001E-002     2.5103437702798119E-017
  -3.3599999999999998E-002     3.6319836409810989E-017
  -3.3500000000000002E-002     4.6979755977173709E-017
  -3.3399999999999999E-002     4.6549281260233763E-017
  -3.3300000000000003E-002     4.1401630429197865E-017
  -3.3200000000000000E-002     4.2168516192540677E-017
  -3.3099999999999997E-002     4.5145793988747690E-017
  -3.3000000000000002E-002     4.3895692472608550E-017
  -3.2899999999999999E-002     3.3992497581944041E-017
  -3.2800000000000003E-002     2.2861228994852679E-017
  -3.2700000000000000E-002     3.4689818696542062E-018
  -3.2600000000000004E-002    -1.8190442823869926E-017
  -3.2500000000000001E-002    -3.4399202436801663E-017
  -3.2399999999999998E-002    -4.6053495670849080E-017
  -3.2300000000000002E-002    -5.6414505252059638E-017
  -3.2199999999999999E-002    -7.0437896700018129E-017
  -3.2100000000000004E-002    -9.3060472507620684E-017
  -3.2000000000000001E-002    -1.0620433273641889E-016
  -3.1899999999999998E-002    -1.1054402663233749E-016
  -3.1800000000000002E-002    -1.1355704855717415E-016
  -3.1699999999999999E-002    -1.0661540179618834E-016
  -3.1600000000000003E-002    -1.0254125272923396E-016
  -3.1500000000000000E-002    -1.2797500515732043E-016
  -3.1399999999999997E-002    -2.0271068085725788E-016
  -3.1300000000000001E-002    -2.3397765802550909E-016
  -3.1199999999999999E-002    -2.1544559622609967E-016
  -3.1100000000000003E-002    -2.3425056145320259E-016
  -3.1000000000000000E-002    -2.9969417984264195E-016
  -3.0900000000000000E-002    -3.2635059786031040E-016
  -3.0800000000000001E-002    -3.1088801140818315E-016
  -3.0699999999999998E-002    -3.4578309538732055E-016
  -3.0600000000000002E-002    -3.7292332803654882E-016
  -3.0499999999999999E-002    -3.0922173878225633E-016
  -3.0400000000000000E-002    -1.8764147503468124E-016
  -3.0300000000000001E-002    -3.8212203966928152E-017
  -3.0200000000000001E-002     1.0837675387044446E-016
  -3.0100000000000002E-002     2.4779538590340730E-016
  -2.9999999999999999E-002     4.3327596077563462E-016
  -2.9899999999999999E-002     5.9070113683868460E-016
  -2.9800000000000000E-002     7.2518683427529561E-016
  -2.9700000000000001E-002     8.3519518536038866E-016
  -2.9600000000000001E-002     8.2507960026692259E-016
  -2.9499999999999998E-002     7.5606240281257653E-016
  -2.9400000000000003E-002     7.4077329929595880E-016
  -2.9300000000000000E-002     7.6037660631073870E-016
  -2.9200000000000000E-002     7.6060260528897799E-016
  -2.9100000000000001E-002     7.5793206922496279E-016
  -2.8999999999999998E-002     6.3524056442503907E-016
  -2.8900000000000002E-002     5.1766212107165672E-016
  -2.8799999999999999E-002     5.2188299212694331E-016
  -2.8700000000000000E-002     5.3295154222562967E-016
  -2.8600000000000000E-002     4.4535552410620780E-016
  -2.8500000000000001E-002     2.2735632206748342E-016
  -2.8400000000000002E-002     7.7143909482989628E-017
  -2.8299999999999999E-002    -2.0540293537543627E-016
  -2.8200000000000003E-002    -4.0868910894590444E-016
  -2.8100000000000000E-002    -1.8658877189992176E-016
  -2.8000000000000001E-002    -4.8450803390626173E-016
  -2.7900000000000001E-002    -7.5695025215997665E-016
  -2.7799999999999998E-002    -3.4509631048577493E-016
  -2.7700000000000002E-002    -1.2289616913580405E-016
  -2.7600000000000000E-002    -2.2657141369295431E-016
  -2.7500000000000000E-002    -3.5848062219247495E-016
  -2.7400000000000001E-002    -2.1737720192275390E-016
  -2.7299999999999998E-002     1.4565132545198660E-016
  -2.7200000000000002E-002     3.5532566269196909E-016
  -2.7099999999999999E-002     5.7554687037935791E-016
  -2.7000000000000000E-002     6.5919095040424644E-016
  -2.6900000000000000E-002     3.4605033428217928E-016
  -2.6800000000000001E-002    -9.0812685293624186E-017
  -2.6700000000000002E-002    -3.7571191931758759E-016
  -2.6599999999999999E-002    -2.4023715209637957E-016
  -2.6500000000000003E-002    -3.5653231406489205E-016
  -2.6400000000000000E-002    -1.1175970817057157E-015
  -2.6300000000000000E-002    -2.6904313856385446E-015
  -2.6200000000000001E-002    -4.9565394987676793E-015
  -2.6099999999999998E-002    -6.3825944278861260E-015
  -2.6000000000000002E-002    -7.2177795017907068E-015
  -2.5899999999999999E-002    -8.6436459660783893E-015
  -2.5800000000000000E-002    -9.5855432152933823E-015
  -2.5700000000000001E-002    -1.0609516263031422E-014
  -2.5599999999999998E-002    -1.2028310002209532E-014
  -2.5500000000000002E-002    -1.2551773822513847E-014
  -2.5399999999999999E-002    -1.3444938725174459E-014
  -2.5300000000000000E-002    -1.3936949671048381E-014
  -2.5200000000000000E-002    -1.3631810286964755E-014
  -2.5100000000000001E-002    -1.3332144429786287E-014
  -2.5000000000000001E-002    -1.2329189657601415E-014
  -2.4899999999999999E-002    -1.0977774001245597E-014
  -2.4800000000000003E-002    -8.8203641439299485E-015
  -2.4700000000000000E-002    -5.9307294555802689E-015
  -2.4600000000000000E-002    -3.3091694718500242E-015
  -2.4500000000000001E-002    -2.8105283755814692E-016
  -2.4399999999999998E-002     3.6010216618483082E-015
  -2.4299999999999999E-002     7.4626135281616150E-015
  -2.4199999999999999E-002     1.1771291406892370E-014
  -2.4100000000000000E-002     1.6563527689716397E-014
  -2.4000000000000000E-002     2.1085950097522038E-014
  -2.3900000000000001E-002     2.6357195370479633E-014
  -2.3800000000000002E-002     3.1929523586736452E-014
  -2.3699999999999999E-002     3.6452974292540061E-014
  -2.3599999999999999E-002     4.0645299490471229E-014
  -2.3500000000000000E-002     4.5816523724885247E-014
  -2.3400000000000001E-002     5.0218838554836123E-014
  -2.3300000000000001E-002     5.0360767395478054E-014
  -2.3199999999999998E-002     4.8061215245217767E-014
  -2.3099999999999999E-002     4.5578866608676424E-014
  -2.3000000000000000E-002     4.3123460396121346E-014
  -2.2900000000000000E-002     3.6859363759973729E-014
  -2.2800000000000001E-002     2.6602345340139867E-014
  -2.2700000000000001E-002     1.7671904182516539E-014
  -2.2599999999999999E-002     9.5224036853391522E-015
  -2.2499999999999999E-002     1.6618163855913141E-015
  -2.2400000000000000E-002    -6.1056362534741247E-015
  -2.2300000000000000E-002    -1.3402175419799378E-014
  -2.2200000000000001E-002    -2.1326360070809437E-014
  -2.2100000000000002E-002    -2.9448777536531315E-014
  -2.1999999999999999E-002    -3.4265020427146423E-014
  -2.1899999999999999E-002    -3.9160877638539857E-014
  -2.1800000000000000E-002    -4.1458833978727516E-014
  -2.1700000000000001E-002    -4.1466897732385377E-014
  -2.1600000000000001E-002    -4.3050984869022479E-014
  -2.1499999999999998E-002    -4.3716298755904631E-014
  -2.1399999999999999E-002    -4.0910271725163108E-014
  -2.1299999999999999E-002    -3.2385549184879223E-014
  -2.1200000000000000E-002    -2.6747550504221777E-014
  -2.1100000000000001E-002    -2.2642689928424088E-014
  -2.1000000000000001E-002    -1.3967957853181466E-014
  -2.0899999999999998E-002    -1.5058475503321699E-015
  -2.0799999999999999E-002     8.1576243901745026E-015
  -2.0700000000000000E-002     1.2275093051392072E-014
  -2.0600000000000000E-002     1.5829705778060317E-014
  -2.0500000000000001E-002     1.6769089033487859E-014
  -2.0400000000000001E-002     1.5239948924139143E-014
  -2.0299999999999999E-002     1.1582389507127505E-014
  -2.0199999999999999E-002     9.2240253182405106E-015
  -2.0100000000000000E-002     3.4820482611099164E-015
  -2.0000000000000000E-002    -5.9646730303920641E-015
  -1.9900000000000001E-002    -1.6863958417646235E-014
  -1.9799999999999998E-002    -3.0130615342148503E-014
  -1.9699999999999999E-002    -4.4854229922300370E-014
  -1.9599999999999999E-002    -5.8255192390919280E-014
  -1.9500000000000000E-002    -7.2631184649517982E-014
  -1.9400000000000001E-002    -8.6523853132149803E-014
  -1.9300000000000001E-002    -8.9182059361068294E-014
  -1.9199999999999998E-002    -1.0205912178741505E-013
  -1.9099999999999999E-002    -1.3253389000416477E-013
  -1.9000000000000000E-002    -1.6383434593789797E-013
  -1.8900000000000000E-002    -1.8681142245104143E-013
  -1.8800000000000001E-002    -2.0641649468248341E-013
  -1.8700000000000001E-002    -2.3016370710379763E-013
  -1.8599999999999998E-002    -2.5299090621912212E-013
  -1.8499999999999999E-002    -2.7228889173773474E-013
  -1.8400000000000000E-002    -2.8534141195690754E-013
  -1.8300000000000000E-002    -2.9622606993219558E-013
  -1.8200000000000001E-002    -3.0771628192587108E-013
  -1.8100000000000002E-002    -3.0935426746300787E-013
  -1.7999999999999999E-002    -2.9682636557004649E-013
  -1.7899999999999999E-002    -2.6930489630851151E-013
  -1.7800000000000000E-002    -2.2275680377960988E-013
  -1.7700000000000000E-002    -1.6005434282616304E-013
  -1.7600000000000001E-002    -8.3771734666303332E-014
  -1.7499999999999998E-002     2.5164400186024338E-015
  -1.7399999999999999E-002     9.9893685445891223E-014
  -1.7299999999999999E-002     2.1400601831009919E-013
  -1.7200000000000000E-002     3.4897277667415849E-013
  -1.7100000000000001E-002     5.0743469755948345E-013
  -1.7000000000000001E-002     6.8346733437738005E-013
  -1.6899999999999998E-002     8.6607029057064744E-013
  -1.6799999999999999E-002     1.0679557281914609E-012
  -1.6700000000000000E-002     1.2747599200182980E-012
  -1.6600000000000000E-002     1.4752213122956603E-012
  -1.6500000000000001E-002     1.6770782896094460E-012
  -1.6400000000000001E-002     1.8507558766783783E-012
  -1.6299999999999999E-002     1.9919706075594013E-012
  -1.6199999999999999E-002     2.0918069793679495E-012
  -1.6100000000000000E-002     2.1370839126122476E-012
  -1.6000000000000000E-002     2.1491421923341969E-012
  -1.5900000000000001E-002     2.1147517331038257E-012
  -1.5799999999999998E-002     2.0084999202002463E-012
  -1.5699999999999999E-002     1.8448224718692341E-012
  -1.5599999999999999E-002     1.6213684041199716E-012
  -1.5500000000000000E-002     1.3274561571491317E-012
  -1.5400000000000000E-002     9.5626328036613195E-013
  -1.5300000000000001E-002     5.1433922225452289E-013
  -1.5199999999999998E-002     9.7883525490192157E-015
  -1.5099999999999999E-002    -5.4878768630112207E-013
  -1.4999999999999999E-002    -1.1448484304663054E-012
  -1.4900000000000000E-002    -1.7757747312538430E-012
  -1.4800000000000001E-002    -2.4241264377777849E-012
  -1.4700000000000001E-002    -3.0762159312913706E-012
  -1.4599999999999998E-002    -3.7307058484148392E-012
  -1.4499999999999999E-002    -4.3723345256874158E-012
  -1.4400000000000000E-002    -4.9618330277834133E-012
  -1.4300000000000000E-002    -5.4933748522278947E-012
  -1.4200000000000001E-002    -5.9744357898405820E-012
  -1.4099999999999998E-002    -6.3905048787449292E-012
  -1.3999999999999999E-002    -6.7333569275795924E-012
  -1.3899999999999999E-002    -6.9782920761318756E-012
  -1.3800000000000000E-002    -7.0887492924220918E-012
  -1.3700000000000000E-002    -7.0738120222513245E-012
  -1.3600000000000001E-002    -6.9382568267106759E-012
  -1.3499999999999998E-002    -6.6608762776254604E-012
  -1.3399999999999999E-002    -6.2575890649729793E-012
  -1.3299999999999999E-002    -5.7372821771206617E-012
  -1.3200000000000000E-002    -5.0797226668064521E-012
  -1.3100000000000001E-002    -4.2894012994287856E-012
  -1.3000000000000001E-002    -3.3573803459585605E-012
  -1.2899999999999998E-002    -2.2718092598100759E-012
  -1.2799999999999999E-002    -1.0630178378170929E-012
  -1.2699999999999999E-002     2.6344676223519214E-013
  -1.2600000000000000E-002     1.6961497310841178E-012
  -1.2500000000000001E-002     3.2258588161804269E-012
  -1.2399999999999998E-002     4.8680733923112118E-012
  -1.2299999999999998E-002     6.6035562434896278E-012
  -1.2199999999999999E-002     8.4365492022953070E-012
  -1.2100000000000000E-002     1.0352129743707028E-011
  -1.2000000000000000E-002     1.2285909269105222E-011
  -1.1900000000000001E-002     1.4181196147933228E-011
  -1.1799999999999998E-002     1.6015083356690774E-011
  -1.1699999999999999E-002     1.7730830692563870E-011
  -1.1599999999999999E-002     1.9264661046958231E-011
  -1.1500000000000000E-002     2.0613224668841745E-011
  -1.1400000000000000E-002     2.1732058860801651E-011
  -1.1300000000000001E-002     2.2570296326351880E-011
  -1.1199999999999998E-002     2.3061705323179638E-011
  -1.1099999999999999E-002     2.3103000415525266E-011
  -1.0999999999999999E-002     2.2628142415381802E-011
  -1.0900000000000000E-002     2.1615070844305251E-011
  -1.0800000000000001E-002     1.9991525795903797E-011
  -1.0699999999999998E-002     1.7672559596282333E-011
  -1.0599999999999998E-002     1.4656512115074349E-011
  -1.0499999999999999E-002     1.0965357094550043E-011
  -1.0400000000000000E-002     6.5372728931534230E-012
  -1.0300000000000000E-002     1.3737014997738939E-012
  -1.0200000000000001E-002    -4.4890553947685152E-012
  -1.0099999999999998E-002    -1.0990987633907601E-011
  -9.9999999999999985E-003    -1.7907449828546973E-011
  -9.8999999999999991E-003    -2.5197590541869985E-011
  -9.7999999999999997E-003    -3.2770251789937532E-011
  -9.7000000000000003E-003    -4.0399419920511548E-011
  -9.6000000000000009E-003    -4.7945140912997175E-011
  -9.4999999999999980E-003    -5.5144330074474723E-011
  -9.3999999999999986E-003    -6.1769755976825991E-011
  -9.2999999999999992E-003    -6.7574529305503006E-011
  -9.1999999999999998E-003    -7.2314813859275517E-011
  -9.1000000000000004E-003    -7.5698482204789030E-011
  -9.0000000000000011E-003    -7.7431304423836167E-011
  -8.8999999999999982E-003    -7.7466741355003421E-011
  -8.7999999999999988E-003    -7.5591186088352913E-011
  -8.6999999999999994E-003    -7.1500680376423986E-011
  -8.5999999999999965E-003    -6.5001025395527989E-011
  -8.5000000000000006E-003    -5.5962533218600896E-011
  -8.3999999999999977E-003    -4.4453735831284646E-011
  -8.3000000000000018E-003    -3.0520003191369938E-011
  -8.1999999999999990E-003    -1.4154286250012138E-011
  -8.0999999999999961E-003     4.2413841536137475E-012
  -8.0000000000000002E-003     2.4351711619408078E-011
  -7.8999999999999973E-003     4.6109709800346010E-011
  -7.8000000000000014E-003     6.8967706545741692E-011
  -7.6999999999999985E-003     9.2558703757017469E-011
  -7.6000000000000026E-003     1.1666057009307451E-010
  -7.4999999999999997E-003     1.4032207340530789E-010
  -7.3999999999999969E-003     1.6283341341960522E-010
  -7.3000000000000009E-003     1.8322014738725301E-010
  -7.1999999999999981E-003     2.0037235759495786E-010
  -7.1000000000000021E-003     2.1408992634253110E-010
  -6.9999999999999993E-003     2.2379020858664944E-010
  -6.8999999999999964E-003     2.2853965941926901E-010
  -6.8000000000000005E-003     2.2770599295007798E-010
  -6.6999999999999976E-003     2.2099969076982973E-010
  -6.6000000000000017E-003     2.0788268328963966E-010
  -6.4999999999999988E-003     1.8823842484749775E-010
  -6.3999999999999960E-003     1.6192355789534929E-010
  -6.3000000000000000E-003     1.2884861233519729E-010
  -6.1999999999999972E-003     8.9099214117815961E-011
  -6.1000000000000013E-003     4.3173409292052156E-011
  -5.9999999999999984E-003    -7.9312155801258832E-012
  -5.9000000000000025E-003    -6.4037927738347378E-011
  -5.7999999999999996E-003    -1.2471364219113212E-010
  -5.6999999999999967E-003    -1.8870409401738897E-010
  -5.6000000000000008E-003    -2.5491156407930760E-010
  -5.4999999999999979E-003    -3.2255978443807010E-010
  -5.4000000000000020E-003    -3.8964875770375329E-010
  -5.2999999999999992E-003    -4.5405887383331844E-010
  -5.1999999999999963E-003    -5.1511966914219443E-010
  -5.1000000000000004E-003    -5.7116567031556542E-010
  -4.9999999999999975E-003    -6.1932925454755150E-010
  -4.9000000000000016E-003    -6.5809013793938220E-010
  -4.7999999999999987E-003    -6.8594280255851459E-010
  -4.6999999999999958E-003    -7.0162614607127693E-010
  -4.5999999999999999E-003    -7.0389299944295658E-010
  -4.4999999999999971E-003    -6.9061112384360968E-010
  -4.4000000000000011E-003    -6.6046479396675295E-010
  -4.2999999999999983E-003    -6.1249244565075855E-010
  -4.2000000000000023E-003    -5.4654331060888239E-010
  -4.0999999999999995E-003    -4.6227430217093968E-010
  -3.9999999999999966E-003    -3.5896102756893811E-010
  -3.9000000000000007E-003    -2.3787899428029391E-010
  -3.7999999999999978E-003    -9.9590988233977384E-011
  -3.7000000000000019E-003     5.4656779102657538E-011
  -3.5999999999999990E-003     2.2295013057949120E-010
  -3.4999999999999962E-003     4.0435790826798268E-010
  -3.4000000000000002E-003     5.9536209295885101E-010
  -3.2999999999999974E-003     7.9203421599061130E-010
  -3.2000000000000015E-003     9.9065722292124292E-010
  -3.0999999999999986E-003     1.1870918692480359E-009
  -2.9999999999999957E-003     1.3759987593786605E-009
  -2.8999999999999998E-003     1.5519946439113141E-009
  -2.7999999999999969E-003     1.7124223150588591E-009
  -2.7000000000000010E-003     1.8522567923895394E-009
  -2.5999999999999981E-003     1.9649650795372509E-009
  -2.5000000000000022E-003     2.0464898664585007E-009
  -2.3999999999999994E-003     2.0941948175590142E-009
  -2.2999999999999965E-003     2.1023123242258634E-009
  -2.2000000000000006E-003     2.0658279531460266E-009
  -2.0999999999999977E-003     1.9805610484979752E-009
  -2.0000000000000018E-003     1.8440120541640681E-009
  -1.8999999999999989E-003     1.6529719815139288E-009
  -1.7999999999999960E-003     1.4053053165596907E-009
  -1.7000000000000001E-003     1.1037526448376411E-009
  -1.5999999999999973E-003     7.4872158473127115E-010
  -1.5000000000000013E-003     3.4476310695197299E-010
  -1.3999999999999985E-003    -1.0243644821272824E-010
  -1.2999999999999956E-003    -5.8660737378701810E-010
  -1.1999999999999997E-003    -1.0994766208582973E-009
  -1.0999999999999968E-003    -1.6332657448714372E-009
  -1.0000000000000009E-003    -2.1771295877215380E-009
  -8.9999999999999802E-004    -2.7179685169187451E-009
  -8.0000000000000210E-004    -3.2447595721407652E-009
  -6.9999999999999923E-004    -3.7458462998074538E-009
  -5.9999999999999637E-004    -4.2071865991033519E-009
  -5.0000000000000044E-004    -4.6162709210761932E-009
  -3.9999999999999758E-004    -4.9584150119130754E-009
  -3.0000000000000165E-004    -5.2187769661315997E-009
  -1.9999999999999879E-004    -5.3855160331295338E-009
  -9.9999999999995925E-005    -5.4499178503419898E-009
   0.0000000000000000         -5.4016515704802259E-009
   1.0000000000000286E-004    -5.2330086930396646E-009
   1.9999999999999879E-004    -4.9411084113160086E-009
   3.0000000000000165E-004    -4.5191446140790958E-009
   4.0000000000000452E-004    -3.9625231984530274E-009
   5.0000000000000044E-004    -3.2799829519092327E-009
   6.0000000000000331E-004    -2.4739124082628905E-009
   6.9999999999999923E-004    -1.5499034278221302E-009
   8.0000000000000210E-004    -5.2243070980395601E-010
   8.9999999999999802E-004     5.9709487354453472E-010
   1.0000000000000009E-003     1.7890443571033643E-009
   1.1000000000000038E-003     3.0331051004139908E-009
   1.1999999999999997E-003     4.3139589678276025E-009
   1.3000000000000025E-003     5.6051132624190814E-009
   1.3999999999999985E-003     6.8691758947636572E-009
   1.5000000000000013E-003     8.0816748848633324E-009
   1.6000000000000042E-003     9.2168352949784094E-009
   1.7000000000000001E-003     1.0244484371924045E-008
   1.8000000000000030E-003     1.1131834121158590E-008
   1.8999999999999989E-003     1.1848465319985735E-008
   2.0000000000000018E-003     1.2371631719076959E-008
   2.1000000000000046E-003     1.2669751470184565E-008
   2.2000000000000006E-003     1.2723412545767587E-008
   2.3000000000000034E-003     1.2526843562454815E-008
   2.3999999999999994E-003     1.2062924881206527E-008
   2.5000000000000022E-003     1.1301986013734222E-008
   2.5999999999999981E-003     1.0241177683667502E-008
   2.7000000000000010E-003     8.8982439194751350E-009
   2.8000000000000039E-003     7.2849752896786413E-009
   2.8999999999999998E-003     5.3995297122355623E-009
   3.0000000000000027E-003     3.2521163539911413E-009
   3.0999999999999986E-003     8.8759571914565072E-010
   3.2000000000000015E-003    -1.6451583428889194E-009
   3.3000000000000043E-003    -4.3252841308571988E-009
   3.4000000000000002E-003    -7.1273995594367534E-009
   3.5000000000000031E-003    -9.9923509466748328E-009
   3.5999999999999990E-003    -1.2842688690284376E-008
   3.7000000000000019E-003    -1.5625735372282179E-008
   3.7999999999999978E-003    -1.8276102409231498E-008
   3.9000000000000007E-003    -2.0729984839817917E-008
   4.0000000000000036E-003    -2.2957310719107227E-008
   4.0999999999999995E-003    -2.4887102156867513E-008
   4.2000000000000023E-003    -2.6452033452528667E-008
   4.2999999999999983E-003    -2.7558407111882843E-008
   4.4000000000000011E-003    -2.8125235473908106E-008
   4.5000000000000040E-003    -2.8131015739063514E-008
   4.5999999999999999E-003    -2.7581783967889351E-008
   4.7000000000000028E-003    -2.6448361722941627E-008
   4.7999999999999987E-003    -2.4691260591680475E-008
   4.9000000000000016E-003    -2.2332590887685910E-008
   5.0000000000000044E-003    -1.9426598996119537E-008
   5.1000000000000004E-003    -1.6048488760134205E-008
   5.2000000000000032E-003    -1.2229147472453405E-008
   5.2999999999999992E-003    -8.0107849242949669E-009
   5.4000000000000020E-003    -3.4985021546418693E-009
   5.4999999999999979E-003     1.1919635278800911E-009
   5.6000000000000008E-003     5.9500897542363873E-009
   5.7000000000000037E-003     1.0659913840527224E-008
   5.7999999999999996E-003     1.5230606109639666E-008
   5.9000000000000025E-003     1.9620195246261574E-008
   5.9999999999999984E-003     2.3761487000228954E-008
   6.1000000000000013E-003     2.7520794532165382E-008
   6.2000000000000041E-003     3.0788104510293124E-008
   6.3000000000000000E-003     3.3500406004804972E-008
   6.4000000000000029E-003     3.5625301819663946E-008
   6.4999999999999988E-003     3.7079605164080931E-008
   6.6000000000000017E-003     3.7814142928027650E-008
   6.7000000000000046E-003     3.7839424038565994E-008
   6.8000000000000005E-003     3.7058818236346269E-008
   6.9000000000000034E-003     3.5445783197474157E-008
   6.9999999999999993E-003     3.3163004786729289E-008
   7.1000000000000021E-003     3.0297954367597413E-008
   7.1999999999999981E-003     2.6883883563755262E-008
   7.3000000000000009E-003     2.2977145519575970E-008
   7.4000000000000038E-003     1.8690476721872074E-008
   7.4999999999999997E-003     1.4041239282391871E-008
   7.6000000000000026E-003     9.0923322204616852E-009
   7.6999999999999985E-003     3.9646095295609030E-009
   7.8000000000000014E-003    -1.3798202580517227E-009
   7.9000000000000042E-003    -7.0398282758787900E-009
   8.0000000000000002E-003    -1.3016074440486136E-008
   8.1000000000000030E-003    -1.9143193696891103E-008
   8.1999999999999990E-003    -2.5221796207119951E-008
   8.3000000000000018E-003    -3.1192822547154719E-008
   8.4000000000000047E-003    -3.7102612537864843E-008
   8.5000000000000006E-003    -4.2733809380024468E-008
   8.6000000000000035E-003    -4.7876184794404253E-008
   8.6999999999999994E-003    -5.2429452779279018E-008
   8.8000000000000023E-003    -5.6273115944804886E-008
   8.8999999999999982E-003    -5.9478232117271546E-008
   9.0000000000000011E-003    -6.2202637707287067E-008
   9.1000000000000039E-003    -6.4288016687896743E-008
   9.1999999999999998E-003    -6.5615971323040867E-008
   9.3000000000000027E-003    -6.5874218080352875E-008
   9.3999999999999986E-003    -6.5097360391064285E-008
   9.5000000000000015E-003    -6.3125000338004611E-008
   9.6000000000000044E-003    -5.9685888231797435E-008
   9.7000000000000003E-003    -5.5006189825235197E-008
   9.8000000000000032E-003    -4.9159371684481812E-008
   9.8999999999999991E-003    -4.2151253154543156E-008
   1.0000000000000002E-002    -3.3802706411734107E-008
   1.0100000000000005E-002    -2.4358447703320962E-008
   1.0200000000000001E-002    -1.4254801783408766E-008
   1.0300000000000004E-002    -3.9631204984402757E-009
   1.0400000000000000E-002     6.4247744901990700E-009
   1.0500000000000002E-002     1.7059784696016322E-008
   1.0599999999999998E-002     2.7873207741890837E-008
   1.0700000000000001E-002     3.9072098445558368E-008
   1.0800000000000004E-002     5.0846423960138054E-008
   1.0900000000000000E-002     6.2720594939946750E-008
   1.1000000000000003E-002     7.4550854378685472E-008
   1.1099999999999999E-002     8.6110780728176906E-008
   1.1200000000000002E-002     9.6594405363248370E-008
   1.1300000000000004E-002     1.0589339183297852E-007
   1.1400000000000000E-002     1.1379530917565717E-007
   1.1500000000000003E-002     1.2000280946722341E-007
   1.1599999999999999E-002     1.2492073153680394E-007
   1.1700000000000002E-002     1.2844600405514939E-007
   1.1800000000000005E-002     1.2994826192880282E-007
   1.1900000000000001E-002     1.2918984282350721E-007
   1.2000000000000004E-002     1.2592869325089850E-007
   1.2100000000000000E-002     1.2062886867170164E-007
   1.2200000000000003E-002     1.1429577995158979E-007
   1.2299999999999998E-002     1.0696454211256423E-007
   1.2400000000000001E-002     9.8360857236912125E-008
   1.2500000000000004E-002     8.7968572870522621E-008
   1.2600000000000000E-002     7.5974007529566734E-008
   1.2700000000000003E-002     6.2398875400049292E-008
   1.2799999999999999E-002     4.7049599771753492E-008
   1.2900000000000002E-002     3.1158428726030252E-008
   1.3000000000000005E-002     1.4651590163339279E-008
   1.3100000000000001E-002    -2.9716080707231640E-009
   1.3200000000000003E-002    -2.0658402988260605E-008
   1.3299999999999999E-002    -3.7557910559371521E-008
   1.3400000000000002E-002    -5.2817540563410148E-008
   1.3500000000000005E-002    -6.6950796906439791E-008
   1.3600000000000001E-002    -8.0896711551758926E-008
   1.3700000000000004E-002    -9.4131728189950081E-008
   1.3800000000000000E-002    -1.0544637518705713E-007
   1.3900000000000003E-002    -1.1346419626079296E-007
   1.3999999999999999E-002    -1.1874040239945316E-007
   1.4100000000000001E-002    -1.2226949763771700E-007
   1.4200000000000004E-002    -1.2415061689807771E-007
   1.4300000000000000E-002    -1.2268669991044590E-007
   1.4400000000000003E-002    -1.1574013569770614E-007