  -8.0000000000000002E-002     0.0000000000000000
  -7.9579999999999998E-002     0.0000000000000000
  -7.9160000000000008E-002     0.0000000000000000
  -7.8740000000000004E-002     0.0000000000000000
  -7.8320000000000001E-002     0.0000000000000000
  -7.7899999999999997E-002     0.0000000000000000
  -7.7480000000000007E-002     0.0000000000000000
  -7.7060000000000003E-002     0.0000000000000000
  -7.6640000000000000E-002     0.0000000000000000
  -7.6219999999999996E-002     0.0000000000000000
  -7.5800000000000006E-002     0.0000000000000000
  -7.5380000000000003E-002     0.0000000000000000
  -7.4959999999999999E-002     0.0000000000000000
  -7.4539999999999995E-002     0.0000000000000000
  -7.4120000000000005E-002     0.0000000000000000
  -7.3700000000000002E-002     0.0000000000000000
  -7.3279999999999998E-002     0.0000000000000000
  -7.2860000000000008E-002     0.0000000000000000
  -7.2440000000000004E-002     0.0000000000000000
  -7.2020000000000001E-002     0.0000000000000000
  -7.1599999999999997E-002     0.0000000000000000
  -7.1180000000000007E-002     0.0000000000000000
  -7.0760000000000003E-002     0.0000000000000000
  -7.0340000000000000E-002     0.0000000000000000
  -6.9919999999999996E-002     2.1175617458674150E-043
  -6.9500000000000006E-002    -1.3242429333282613E-041
  -6.9080000000000003E-002    -1.7953433416128782E-042
  -6.8659999999999999E-002     1.5534374022405855E-040
  -6.8239999999999995E-002     5.6027001795487277E-040
  -6.7820000000000005E-002    -5.0622909063136188E-040
  -6.7400000000000002E-002    -6.3235473186937985E-039
  -6.6979999999999998E-002    -1.2698686321989727E-038
  -6.6560000000000008E-002     2.2571141883995186E-038
  -6.6140000000000004E-002     1.5370287761440731E-037
  -6.5720000000000001E-002     2.2664363381849586E-037
  -6.5299999999999997E-002    -4.6344922430067572E-037
  -6.4879999999999993E-002    -2.6519259374825290E-036
  -6.4460000000000003E-002    -3.6791257055454300E-036
  -6.4040000000000000E-002     6.5195453718009785E-036
  -6.3619999999999996E-002     3.5868434796913195E-035
  -6.3200000000000006E-002     4.9501596518565854E-035
  -6.2780000000000002E-002    -6.7015675192657904E-035
  -6.2359999999999999E-002    -3.9210244328860879E-034
  -6.1940000000000002E-002    -5.6904014072587827E-034
  -6.1520000000000005E-002     4.9129450512498859E-034
  -6.1100000000000002E-002     3.5296141323993860E-033
  -6.0679999999999998E-002     5.6115410080388878E-033
  -6.0260000000000001E-002    -2.1402302610550388E-033
  -5.9840000000000004E-002    -2.6354470262641758E-032
  -5.9420000000000001E-002    -4.7365484936721750E-032
  -5.8999999999999997E-002    -2.4953692796600932E-033
  -5.8580000000000000E-002     1.6257150366622679E-031
  -5.8160000000000003E-002     3.4116322735959105E-031
  -5.7740000000000000E-002     1.4845653174082970E-031
  -5.7319999999999996E-002    -8.1096263377372809E-031
  -5.6899999999999999E-002    -2.0882437756685030E-030
  -5.6480000000000002E-002    -1.6334776214385508E-030
  -5.6059999999999999E-002     3.0674298926409716E-030
  -5.5640000000000002E-002     1.0772175622005479E-029
  -5.5220000000000005E-002     1.2092598261045131E-029
  -5.4800000000000001E-002    -6.8071304960035815E-030
  -5.4379999999999998E-002    -4.5966158584898314E-029
  -5.3960000000000001E-002    -6.9153443479989044E-029
  -5.3540000000000004E-002    -1.0947639585774779E-029
  -5.3120000000000001E-002     1.5518248619773552E-028
  -5.2699999999999997E-002     3.1654808700297282E-028
  -5.2280000000000000E-002     2.1038671493495008E-028
  -5.1860000000000003E-002    -3.6273886893281221E-028
  -5.1440000000000000E-002    -1.1534573610871780E-027
  -5.1019999999999996E-002    -1.2855066908000198E-027
  -5.0599999999999999E-002     2.1462128054855761E-028
  -5.0180000000000002E-002     3.1690296910552013E-027
  -4.9759999999999999E-002     5.2732775491679745E-027
  -4.9340000000000002E-002     2.9703076458323621E-027
  -4.8920000000000005E-002    -5.2755238168989605E-027
  -4.8500000000000001E-002    -1.5355141020305250E-026
  -4.8079999999999998E-002    -1.7593430785192362E-026
  -4.7660000000000001E-002    -3.0312141627773266E-027
  -4.7239999999999997E-002     2.6983149303351085E-026
  -4.6820000000000001E-002     5.5665351120312074E-026
  -4.6399999999999997E-002     5.6486249350411625E-026
  -4.5980000000000000E-002     8.1604819852308049E-027
  -4.5560000000000003E-002    -8.8913015911186859E-026
  -4.5140000000000000E-002    -1.9999056297985693E-025
  -4.4720000000000003E-002    -2.4734836217448215E-025
  -4.4299999999999999E-002    -1.1645538877987398E-025
  -4.3880000000000002E-002     2.8588103349750091E-025
  -4.3459999999999999E-002     8.8695632559788539E-025
  -4.3040000000000002E-002     1.2762949873235643E-024
  -4.2619999999999998E-002     7.2891647538697731E-025
  -4.2200000000000001E-002    -1.3031526699151864E-024
  -4.1779999999999998E-002    -4.2652226936555629E-024
  -4.1360000000000001E-002    -5.8334546615700018E-024
  -4.0939999999999997E-002    -2.6808127349398773E-024
  -4.0520000000000000E-002     6.7018084822371747E-024
  -4.0099999999999997E-002     1.8414246004196349E-023
  -3.9680000000000000E-002     2.2229011693227656E-023
  -3.9260000000000003E-002     6.8189986962130380E-024
  -3.8840000000000000E-002    -2.9294657348288619E-023
  -3.8420000000000003E-002    -6.8001513923561958E-023
  -3.7999999999999999E-002    -7.3958011028827979E-023
  -3.7580000000000002E-002    -1.5505004296513726E-023
  -3.7159999999999999E-002     1.0305248274711498E-022
  -3.6740000000000002E-002     2.2013026164680538E-022
  -3.6319999999999998E-002     2.3225095236380299E-022
  -3.5900000000000001E-002     5.4752721788068714E-023
  -3.5479999999999998E-002    -2.9618524180908333E-022
  -3.5060000000000001E-002    -6.5309100947110065E-022
  -3.4639999999999997E-002    -7.3379840936761999E-022
  -3.4220000000000000E-002    -2.8589412839442645E-022
  -3.3799999999999997E-002     7.0354247866938816E-022
  -3.3380000000000000E-002     1.8420933951946601E-021
  -3.2960000000000003E-002     2.3543025109207413E-021
  -3.2539999999999999E-002     1.4016531735435118E-021
  -3.2120000000000003E-002    -1.3243062188576353E-021
  -3.1699999999999999E-002    -4.9828414850759832E-021
  -3.1280000000000002E-002    -7.4012186564771787E-021
  -3.0859999999999999E-002    -5.8075578388455463E-021
  -3.0440000000000002E-002     1.4162934344660336E-021
  -3.0019999999999998E-002     1.2626610639154192E-020
  -2.9600000000000001E-002     2.1915156853104790E-020
  -2.9179999999999998E-002     2.0811011456185885E-020
  -2.8760000000000001E-002     3.1700021825416226E-021
  -2.8339999999999997E-002    -2.8535423936797748E-020
  -2.7920000000000000E-002    -5.9578428715764887E-020
  -2.7499999999999997E-002    -6.6450810129566042E-020
  -2.7080000000000000E-002    -2.9054365260083454E-020
  -2.6659999999999996E-002     5.2461821447373193E-020
  -2.6239999999999999E-002     1.4598614910407056E-019
  -2.5820000000000003E-002     1.9213941268763115E-019
  -2.5399999999999999E-002     1.3088866048397605E-019
  -2.4980000000000002E-002    -5.6916633461006887E-020
  -2.4559999999999998E-002    -3.1390181732277881E-019
  -2.4140000000000002E-002    -5.0373035451005671E-019
  -2.3719999999999998E-002    -4.6067287003074881E-019
  -2.3300000000000001E-002    -8.4942193384695426E-020
  -2.2879999999999998E-002     5.5574479979938819E-019
  -2.2460000000000001E-002     1.1820741448112992E-018
  -2.2039999999999997E-002     1.3751030650776697E-018
  -2.1620000000000000E-002     7.7704012969122353E-019
  -2.1199999999999997E-002    -6.4395166000243747E-019
  -2.0780000000000000E-002    -2.4045356990773323E-018
  -2.0359999999999996E-002    -3.5537239808902194E-018
  -1.9939999999999999E-002    -3.0454109988371720E-018
  -1.9519999999999996E-002    -3.5749916046375359E-019
  -1.9099999999999999E-002     3.9180629902757797E-018
  -1.8680000000000002E-002     7.9037611217138283E-018
  -1.8259999999999998E-002     8.9903356061130140E-018
  -1.7840000000000002E-002     5.1068639770501681E-018
  -1.7420000000000005E-002    -3.7541366899080915E-018
  -1.7000000000000001E-002    -1.4581241840139515E-017
  -1.6579999999999998E-002    -2.1793712750762678E-017
  -1.6159999999999994E-002    -1.9436638141206001E-017
  -1.5740000000000004E-002    -4.5560464219303981E-018
  -1.5320000000000000E-002     1.9749919966640649E-017
  -1.4899999999999997E-002     4.3534167307337842E-017
  -1.4479999999999993E-002     5.2853473055760139E-017
  -1.4060000000000003E-002     3.6109962591931598E-017
  -1.3639999999999999E-002    -8.3501110531277505E-018
  -1.3219999999999996E-002    -6.7207145380868622E-017
  -1.2799999999999992E-002    -1.1356794359458199E-016
  -1.2380000000000002E-002    -1.1652294460815758E-016
  -1.1959999999999998E-002    -5.6684138375244698E-017
  -1.1539999999999995E-002     5.8616753424139208E-017
  -1.1120000000000005E-002     1.8896019225714910E-016
  -1.0700000000000001E-002     2.7007074539131271E-016
  -1.0279999999999997E-002     2.3937940657470719E-016
  -9.8599999999999938E-003     7.0075339964575435E-017
  -9.4400000000000039E-003    -2.0150758448015635E-016
  -9.0200000000000002E-003    -4.7202765819822910E-016
  -8.5999999999999965E-003    -6.0097622327077414E-016
  -8.1799999999999928E-003    -4.7017479305845054E-016
  -7.7600000000000030E-003    -5.2161270515203257E-017
  -7.3399999999999993E-003     5.4460579383252171E-016
  -6.9199999999999956E-003     1.0842194172749520E-015
  -6.4999999999999919E-003     1.2784655085401761E-015
  -6.0800000000000021E-003     9.1231212256258964E-016
  -5.6599999999999984E-003    -2.6510351822004617E-017
  -5.2399999999999947E-003    -1.2760101955438474E-015
  -4.8200000000000048E-003    -2.3389348670053300E-015
  -4.4000000000000011E-003    -2.6467418643443163E-015
  -3.9799999999999974E-003    -1.8074697830076677E-015
  -3.5599999999999937E-003     1.5514040381650523E-016
  -3.1400000000000039E-003     2.6860214980435563E-015
  -2.7200000000000002E-003     4.7959645165164864E-015
  -2.2999999999999965E-003     5.3871407554477804E-015
  -1.8799999999999928E-003     3.7220210874653784E-015
  -1.4600000000000030E-003    -1.3760308569754926E-016
  -1.0399999999999993E-003    -5.1277188489987437E-015
  -6.1999999999999555E-004    -9.3704286740271213E-015
  -1.9999999999999185E-004    -1.0775442844789554E-014
   2.1999999999999797E-004    -7.8997960473532094E-015
   6.4000000000000168E-004    -7.5749663325938018E-016
   1.0600000000000054E-003     8.7867979729224254E-015
   1.4799999999999952E-003     1.7319594566709410E-014
   1.8999999999999989E-003     2.0926635687468959E-014
   2.3200000000000026E-003     1.6730962195028304E-014
   2.7400000000000063E-003     4.3898446656593271E-015
   3.1599999999999961E-003    -1.3097690801069249E-014
   3.5799999999999998E-003    -2.9792078317826508E-014
   4.0000000000000036E-003    -3.8561002022502388E-014
   4.4200000000000073E-003    -3.3775321221053851E-014
   4.8399999999999971E-003    -1.4050921918280669E-014
   5.2600000000000008E-003     1.6113997509481505E-014
   5.6800000000000045E-003     4.6780986931818237E-014
   6.1000000000000082E-003     6.5430795696460524E-014
   6.5199999999999980E-003     6.1633039885447306E-014
   6.9400000000000017E-003     3.1986827540306732E-014
   7.3600000000000054E-003    -1.6723975138463057E-014
   7.7799999999999953E-003    -6.7987302875947478E-014
   8.1999999999999990E-003    -1.0037611460349205E-013
   8.6200000000000027E-003    -9.5768189459269880E-014
   9.0400000000000064E-003    -4.8272780192485756E-014
   9.4599999999999962E-003     2.9895565124767718E-014
   9.8799999999999999E-003     1.0907492842912115E-013
   1.0300000000000004E-002     1.5094450077478226E-013
   1.0720000000000007E-002     1.2392419777755539E-013
   1.1139999999999997E-002     2.0289650129321989E-014
   1.1560000000000001E-002    -1.3214427086132749E-013
   1.1980000000000005E-002    -2.7076713007725956E-013
   1.2400000000000008E-002    -3.1514043738985932E-013
   1.2819999999999998E-002    -1.9820432418399408E-013
   1.3240000000000002E-002     9.7002164760542571E-014
   1.3660000000000005E-002     5.0903058740965095E-013
   1.4079999999999995E-002     8.9316455953146851E-013
   1.4499999999999999E-002     1.0504572756458564E-012
   1.4920000000000003E-002     7.9092897478600847E-013
   1.5340000000000006E-002     1.7773943337471350E-014
   1.5759999999999996E-002    -1.1930878455630540E-012
   1.6180000000000000E-002    -2.5505167028675206E-012
   1.6600000000000004E-002    -3.5719707468826263E-012
   1.7020000000000007E-002    -3.6883501056426301E-012
   1.7439999999999997E-002    -2.4205882110104590E-012
   1.7860000000000001E-002     4.0913618957318874E-013
   1.8280000000000005E-002     4.4922161192191871E-012
   1.8700000000000008E-002     8.9454640119494487E-012
   1.9119999999999998E-002     1.2381973782496003E-011
   1.9540000000000002E-002     1.3171938337544700E-011
   1.9960000000000006E-002     9.8756500338582233E-012
   2.0380000000000009E-002     1.7737262175955616E-012
   2.0799999999999999E-002    -1.0631499708630280E-011
   2.1220000000000003E-002    -2.5299731839224694E-011
   2.1640000000000006E-002    -3.8673367733303341E-011
   2.2059999999999996E-002    -4.6141126087740959E-011
   2.2480000000000000E-002    -4.2964282411663301E-011
   2.2900000000000004E-002    -2.5569473325149336E-011
   2.3320000000000007E-002     7.0124620299664075E-012
   2.3739999999999997E-002     5.1889728857477084E-011
   2.4160000000000001E-002     1.0162137728508601E-010
   2.4580000000000005E-002     1.4447004706795966E-010
   2.5000000000000008E-002     1.6585766349699067E-010
   2.5419999999999998E-002     1.5108133092191762E-010
   2.5840000000000002E-002     8.9058952118880294E-011
   2.6260000000000006E-002    -2.3451707770759095E-011
   2.6680000000000009E-002    -1.7802425467553991E-010
   2.7099999999999999E-002    -3.5219768657152613E-010
   2.7520000000000003E-002    -5.0967242819887101E-010
   2.7940000000000006E-002    -6.0394579389679413E-010
   2.8359999999999996E-002    -5.8576172572609147E-010
   2.8780000000000000E-002    -4.1397532698676030E-010
   2.9200000000000004E-002    -6.8492421457548412E-011
   2.9620000000000007E-002     4.3701712216214243E-010
   3.0039999999999997E-002     1.0456862322148866E-009
   3.0460000000000001E-002     1.6546394717464900E-009
   3.0880000000000005E-002     2.1217744724176037E-009
   3.1300000000000008E-002     2.2839094039181292E-009
   3.1719999999999998E-002     1.9860941602782768E-009
   3.2140000000000002E-002     1.1192995489199014E-009
   3.2560000000000006E-002    -3.3908807016858489E-010
   3.2980000000000009E-002    -2.2899358093651126E-009
   3.3399999999999999E-002    -4.4915592541909121E-009
   3.3820000000000003E-002    -6.5626086263866958E-009
   3.4240000000000007E-002    -8.0155201250059674E-009
   3.4659999999999996E-002    -8.3230524551468076E-009
   3.5080000000000000E-002    -7.0142496513947317E-009
   3.5500000000000004E-002    -3.7890808380075936E-009
   3.5920000000000007E-002     1.3660726680086844E-009
   3.6339999999999997E-002     8.0848779161516743E-009
   3.6760000000000001E-002     1.5574439395350321E-008
   3.7180000000000005E-002     2.2638142165223553E-008
   3.7600000000000008E-002     2.7782895018332851E-008
   3.8019999999999998E-002     2.9413622139081830E-008
   3.8440000000000002E-002     2.6101821008816492E-008
   3.8860000000000006E-002     1.6897787556564119E-008
   3.9280000000000009E-002     1.6402705211441548E-009
   3.9699999999999999E-002    -1.8793830653957360E-008
   4.0120000000000003E-002    -4.2359475144681994E-008
   4.0540000000000007E-002    -6.5886493823321901E-008
   4.0960000000000010E-002    -8.5329710420266359E-008
   4.1380000000000000E-002    -9.6231652222120434E-008
   4.1800000000000004E-002    -9.4368334750200944E-008
   4.2220000000000008E-002    -7.6508847883904703E-008
   4.2639999999999997E-002    -4.1187825110627445E-008
   4.3060000000000001E-002     1.0635137466550306E-008
   4.3480000000000005E-002     7.5160404208997507E-008
   4.3900000000000008E-002     1.4569458632789433E-007
   4.4319999999999998E-002     2.1303862427952867E-007
   4.4740000000000002E-002     2.6634141051042541E-007
   4.5159999999999992E-002     2.9437422596266584E-007
   4.5579999999999996E-002     2.8710685870832433E-007
   4.5999999999999999E-002     2.3740097199065535E-007
   4.6420000000000003E-002     1.4259102420072748E-007
   4.6840000000000007E-002     5.7008120079961156E-009
   4.7260000000000010E-002    -1.6393222634509431E-007
   4.7680000000000014E-002    -3.5080557199576365E-007
   4.8099999999999990E-002    -5.3425654662434082E-007
   4.8519999999999994E-002    -6.9030535501108007E-007
   4.8939999999999997E-002    -7.9419054586124453E-007
   4.9360000000000001E-002    -8.2334607531641697E-007
   4.9780000000000005E-002    -7.6047946438335176E-007
   5.0200000000000009E-002    -5.9636605286001776E-007
   5.0620000000000012E-002    -3.3198495003400202E-007
   5.1040000000000016E-002     2.0332557133425469E-008
   5.1459999999999992E-002     4.3695335414610757E-007
   5.1879999999999996E-002     8.8426072484753628E-007
   5.2299999999999999E-002     1.3211672246592934E-006
   5.2720000000000003E-002     1.7025747880267559E-006
   5.3140000000000007E-002     1.9834335926937643E-006
   5.3560000000000010E-002     2.1229653135599350E-006
   5.3980000000000014E-002     2.0885912669294625E-006
   5.4400000000000018E-002     1.8592043025034248E-006
   5.4819999999999994E-002     1.4274525097578873E-006
   5.5239999999999997E-002     8.0093737595756458E-007
   5.5660000000000001E-002     2.3017119655476799E-009
   5.6080000000000005E-002    -9.3161231542852243E-007
   5.6500000000000009E-002    -1.9513152543883832E-006
   5.6920000000000012E-002    -2.9966370671066136E-006
   5.7340000000000016E-002    -3.9989143922141050E-006
   5.7759999999999992E-002    -4.8832792087190847E-006
   5.8179999999999996E-002    -5.5710897796648414E-006
   5.8599999999999999E-002    -5.9826512404370466E-006
   5.9020000000000003E-002    -6.0405605586488218E-006
   5.9440000000000007E-002    -5.6739602498651945E-006
   5.9860000000000010E-002    -4.8239622142247994E-006
   6.0280000000000014E-002    -3.4502610290840250E-006
   6.0700000000000018E-002    -1.5387421858571029E-006
   6.1119999999999994E-002     8.9046183551516632E-007
   6.1539999999999997E-002     3.7754367623108971E-006
   6.1960000000000001E-002     7.0065200218120813E-006
   6.2380000000000005E-002     1.0423148718909605E-005
   6.2800000000000009E-002     1.3814804969361730E-005
   6.3220000000000012E-002     1.6926828451901444E-005
   6.3640000000000016E-002     1.9471726716736437E-005
   6.4059999999999992E-002     2.1145867177908381E-005
   6.4479999999999996E-002     2.1650739156949932E-005
   6.4899999999999999E-002     2.0717656381477689E-005
   6.5320000000000003E-002     1.8133775563503522E-005
   6.5740000000000007E-002     1.3767528135151891E-005
   6.6160000000000010E-002     7.5910026004980951E-006
   6.6580000000000014E-002    -3.0254815171194774E-007
   6.7000000000000018E-002    -9.6882496056240821E-006
   6.7419999999999994E-002    -2.0207059869345028E-005
   6.7839999999999998E-002    -3.1372112650286869E-005
   6.8260000000000001E-002    -4.2583312334146768E-005
   6.8680000000000005E-002    -5.3150081061620833E-005
   6.9100000000000009E-002    -6.2320836028232943E-005
   6.9520000000000012E-002    -6.9317087555921335E-005
   6.9940000000000016E-002    -7.3370775389510788E-005
   7.0359999999999992E-002    -7.3762176482482738E-005
   7.0779999999999996E-002    -6.9856617629894836E-005
   7.1199999999999999E-002    -6.1138705067659838E-005
   7.1620000000000003E-002    -4.7241808193148809E-005
   7.2040000000000007E-002    -2.7972274965791841E-005
   7.2460000000000011E-002    -3.3271583091043527E-006
   7.2880000000000014E-002     2.6494854673062189E-005
   7.3300000000000018E-002     6.1089712618447200E-005
   7.3719999999999994E-002     9.9851641419117747E-005
   7.4139999999999998E-002     1.4198563104573847E-004
   7.4560000000000001E-002     1.8652850533574332E-004
   7.4980000000000005E-002     2.3238126247551770E-004
   7.5400000000000009E-002     2.7835033593054111E-004
   7.5820000000000012E-002     3.2320036295173171E-004
   7.6240000000000016E-002     3.6571635106114357E-004
   7.6659999999999992E-002     4.0477698630680189E-004
   7.7079999999999996E-002     4.3943141755846394E-004
   7.7499999999999999E-002     4.6897770307859635E-004
   7.7920000000000003E-002     4.9304037623458931E-004
   7.8340000000000007E-002     5.1163430616215906E-004
   7.8760000000000011E-002     5.2521894691067599E-004
   7.9180000000000014E-002     5.3472481535851376E-004
   7.9600000000000018E-002     5.4156577220020139E-004
   8.0019999999999994E-002     5.4761174342689626E-004
   8.0439999999999998E-002     5.5514802581790759E-004
   8.0860000000000001E-002     5.6680607731358034E-004
   8.1280000000000005E-002     5.8547161792804679E-004
   8.1700000000000009E-002     6.1418703641567330E-004
   8.2120000000000012E-002     6.5605205091235773E-004
   8.2540000000000016E-002     7.1411736582248277E-004
   8.2959999999999992E-002     7.9129167346203078E-004
   8.3379999999999996E-002     8.9026167417176620E-004
   8.3799999999999999E-002     1.0134427613191985E-003
   8.4220000000000003E-002     1.1629057250779943E-003
   8.4640000000000007E-002     1.3403755158895182E-003
   8.5060000000000011E-002     1.5472103704408156E-003
   8.5480000000000014E-002     1.7844430092327846E-003
   8.5900000000000018E-002     2.0527870555896222E-003
   8.6319999999999994E-002     2.3526908452519884E-003
   8.6739999999999998E-002     2.6844060927415461E-003
   8.7160000000000001E-002     3.0480878607458814E-003
   8.7580000000000005E-002     3.4438529700916076E-003
   8.8000000000000009E-002     3.8719090392426631E-003
   8.8420000000000012E-002     4.3326020660335090E-003
   8.8840000000000016E-002     4.8265873017904661E-003
   8.9259999999999992E-002     5.3548660631842814E-003
   8.9679999999999996E-002     5.9189742416465678E-003
   9.0100000000000000E-002     6.5209983308442219E-003
   9.0520000000000003E-002     7.1636698846130383E-003
   9.0940000000000007E-002     7.8503694595844914E-003
   9.1360000000000011E-002     8.5851550509567116E-003
   9.1780000000000014E-002     9.3726573688277335E-003
   9.2200000000000018E-002     1.0218063637231376E-002
   9.2619999999999994E-002     1.1127157476813483E-002
   9.3039999999999998E-002     1.2105893283774490E-002
   9.3460000000000001E-002     1.3160563632977634E-002
   9.3880000000000005E-002     1.4297454977592203E-002
   9.4300000000000009E-002     1.5522850157295712E-002
   9.4720000000000013E-002     1.6842472932866288E-002
   9.5140000000000016E-002     1.8261777846578345E-002
   9.5559999999999992E-002     1.9785372402918267E-002
   9.5979999999999996E-002     2.1417322297266492E-002
   9.6400000000000000E-002     2.3160799735604993E-002
   9.6820000000000003E-002     2.5018295508223883E-002
   9.7240000000000007E-002     2.6991475904078549E-002
   9.7660000000000011E-002     2.9081081400065815E-002
   9.8080000000000014E-002     3.1286914072556793E-002
   9.8500000000000018E-002     3.3607825532845380E-002
   9.8919999999999994E-002     3.6042242905843611E-002
   9.9339999999999998E-002     3.8587861275381566E-002
   9.9760000000000001E-002     4.1241404061823979E-002
  0.10018000000000001          4.3999037211197703E-002
  0.10060000000000001          4.6855373196002074E-002
  0.10102000000000001          4.9803096229462600E-002
  0.10144000000000002          5.2834822541464807E-002
  0.10185999999999999          5.5941502513560504E-002
  0.10228000000000000          5.9111818719344955E-002
  0.10270000000000000          6.2334483773184478E-002
  0.10312000000000000          6.5596077854830098E-002
  0.10354000000000001          6.8881970956061134E-002
  0.10396000000000001          7.2175828566376346E-002
  0.10438000000000001          7.5457832357736898E-002
  0.10480000000000002          7.8706400299823009E-002
  0.10521999999999999          8.1897249043266937E-002
  0.10564000000000000          8.5004195978147873E-002
  0.10606000000000000          8.7998521178300440E-002
  0.10648000000000001          9.0850226520044028E-002
  0.10690000000000001          9.3522825210185845E-002
  0.10732000000000001          9.5976219547512773E-002
  0.10774000000000002          9.8168104764128919E-002
  0.10815999999999999         0.10005257952398455
  0.10858000000000000         0.10157605142811413
  0.10900000000000000         0.10268646961023695
  0.10942000000000000         0.10332436625992990
  0.10984000000000001         0.10342708489890066
  0.11026000000000001         0.10292413364965501
  0.11068000000000001         0.10174200509336190
  0.11110000000000002          9.9803396367276975E-002
  0.11151999999999999          9.7030900314982557E-002
  0.11194000000000000          9.3348291138939762E-002
  0.11236000000000000          8.8673780860856782E-002
  0.11278000000000001          8.2926405097635936E-002
  0.11320000000000001          7.6023898839453652E-002
  0.11362000000000001          6.7868487413247885E-002
  0.11404000000000002          5.8377397401056318E-002
  0.11446000000000002          4.7462453603890079E-002
  0.11488000000000000          3.5045188405523606E-002
  0.11530000000000000          2.1054499363575389E-002
  0.11572000000000000          5.4262791733961421E-003
  0.11614000000000001         -1.1907558215846995E-002
  0.11656000000000001         -3.1016697327666119E-002
  0.11698000000000001         -5.1946439320070717E-002
  0.11740000000000002         -7.4761929077480888E-002
  0.11781999999999999         -9.9501211758119823E-002
  0.11824000000000000        -0.12620310090961978
  0.11866000000000000        -0.15488250354036501
  0.11908000000000001        -0.18556485974816556
  0.11950000000000001        -0.21826107864932837
  0.11992000000000001        -0.25297777992364084
  0.12034000000000002        -0.28971599563263223
  0.12076000000000002        -0.32846538235503608
  0.12118000000000000        -0.36919425597382144
  0.12160000000000000        -0.41187260796375424
  0.12202000000000000        -0.45645046321586774
  0.12244000000000001        -0.50285804995460948
  0.12286000000000001        -0.55102637193060910
  0.12328000000000001        -0.60086339218792650
  0.12370000000000002        -0.65224405698915178
  0.12411999999999999        -0.70504243821962964
  0.12454000000000000        -0.75911650457363700
  0.12496000000000000        -0.81427580259566745
  0.12537999999999999        -0.87031076067379276
  0.12580000000000002        -0.92698247006440737
  0.12622000000000000        -0.98401543949590586
  0.12664000000000003         -1.0411335020791448
  0.12706000000000001         -1.0980472185014882
  0.12747999999999998         -1.1544060581896680
  0.12790000000000001         -1.2098579257746467
  0.12831999999999999         -1.2639880671387504
  0.12874000000000002         -1.3163734992387772
  0.12916000000000000         -1.3665702921010630
  0.12958000000000003         -1.4141447885414551
  0.13000000000000000         -1.4586612568922566
  0.13041999999999998         -1.4996741610846289
  0.13084000000000001         -1.5367196144050301
  0.13125999999999999         -1.5693097008217434
  0.13168000000000002         -1.5969494281189700
  0.13210000000000000         -1.6191912882535753
  0.13252000000000003         -1.6355755189837076
  0.13294000000000000         -1.6456714887606025
  0.13336000000000003         -1.6490328653887480
  0.13378000000000001         -1.6452605001938907
  0.13419999999999999         -1.6339611275083832
  0.13462000000000002         -1.6147763131020554
  0.13503999999999999         -1.5873579657334145
  0.13546000000000002         -1.5513712688226078
  0.13588000000000000         -1.5065192860650023
  0.13630000000000003         -1.4525212824872862
  0.13672000000000001         -1.3891045392803050
  0.13713999999999998         -1.3160551150680493
  0.13756000000000002         -1.2332263056222010
  0.13797999999999999         -1.1404732205598906
  0.13840000000000002         -1.0376957284124779
  0.13882000000000000        -0.92479470029395228
  0.13924000000000003        -0.80176943397428424
  0.13966000000000001        -0.66866720956805525
  0.14007999999999998        -0.52556037730037741
  0.14050000000000001        -0.37255975285532206
  0.14091999999999999        -0.20986637687286000
  0.14134000000000002         -3.7743821657869027E-002
  0.14176000000000000         0.14349263869671999
  0.14218000000000003         0.33348269648578155
  0.14260000000000000         0.53181951520776605
  0.14301999999999998         0.73799519512492662
  0.14344000000000001         0.95143160356416090
  0.14385999999999999          1.1715741428536206
  0.14428000000000002          1.3977869527485920
  0.14470000000000000          1.6293587251051882
  0.14512000000000003          1.8656159746897421
  0.14554000000000000          2.1058070374205768
  0.14596000000000003          2.3490866477180332
  0.14638000000000001          2.5946769407599497
  0.14679999999999999          2.8416953315564628
  0.14722000000000002          3.0892531590003407
  0.14763999999999999          3.3364799189582834
  0.14806000000000002          3.5825681126892066
  0.14848000000000000          3.8266126843957844
  0.14890000000000003          4.0676265412443193
  0.14932000000000001          4.3047761443192831
  0.14973999999999998          4.5372060482384047
  0.15016000000000002          4.7640469339427112
  0.15057999999999999          4.9845898417474661
  0.15100000000000002          5.1981455994975345
  0.15142000000000000          5.4041030584306053
  0.15184000000000003          5.6015102383874424
  0.15226000000000001          5.7896730593070753
  0.15267999999999998          5.9678919460732303