  -4.0000000000000001E-002     0.0000000000000000
  -3.9899999999999998E-002     0.0000000000000000
  -3.9800000000000002E-002     0.0000000000000000
  -3.9699999999999999E-002     0.0000000000000000
  -3.9600000000000003E-002     0.0000000000000000
  -3.9500000000000000E-002     0.0000000000000000
  -3.9399999999999998E-002     2.7037345695911226E-024
  -3.9300000000000002E-002     3.4654356643771444E-023
  -3.9199999999999999E-002     2.3850084869250809E-022
  -3.9100000000000003E-002     1.1691371989514844E-021
  -3.9000000000000000E-002     4.5718094741221111E-021
  -3.8900000000000004E-002     1.5152018195346465E-020
  -3.8800000000000001E-002     4.4179092899823526E-020
  -3.8699999999999998E-002     1.1619765371110957E-019
  -3.8600000000000002E-002     2.8063229314446067E-019
  -3.8500000000000000E-002     6.3061215182170526E-019
  -3.8400000000000004E-002     1.3318315101527478E-018
  -3.8300000000000001E-002     2.6645865674594111E-018
  -3.8199999999999998E-002     5.0821426760150673E-018
  -3.8100000000000002E-002     9.2881174492404914E-018
  -3.7999999999999999E-002     1.6334439780841819E-017
  -3.7900000000000003E-002     2.7739495224520883E-017
  -3.7800000000000000E-002     4.5623130141749990E-017
  -3.7699999999999997E-002     7.2851239150533440E-017
  -3.7600000000000001E-002     1.1317756456191442E-016
  -3.7499999999999999E-002     1.7136443993398938E-016
  -3.7400000000000003E-002     2.5325745139399706E-016
  -3.7300000000000000E-002     3.6578201972802741E-016
  -3.7200000000000004E-002     5.1682334669563815E-016
  -3.7100000000000001E-002     7.1494498833312944E-016
  -3.6999999999999998E-002     9.6889790671638148E-016
  -3.6900000000000002E-002     1.2868701575882648E-015
  -3.6799999999999999E-002     1.6754308520316509E-015
  -3.6700000000000003E-002     2.1381277875461143E-015
  -3.6600000000000001E-002     2.6737134963585865E-015
  -3.6499999999999998E-002     3.2739921935505531E-015
  -3.6400000000000002E-002     3.9213072655782614E-015
  -3.6299999999999999E-002     4.5857232975363236E-015
  -3.6200000000000003E-002     5.2219945422394935E-015
  -3.6100000000000000E-002     5.7664588504050852E-015
  -3.6000000000000004E-002     6.1340436209426658E-015
  -3.5900000000000001E-002     6.2156294109057264E-015
  -3.5799999999999998E-002     5.8760534788350038E-015
  -3.5700000000000003E-002     4.9530920746723543E-015
  -3.5600000000000000E-002     3.2577950177749195E-015
  -3.5500000000000004E-002     5.7656754508079934E-016
  -3.5400000000000001E-002    -3.3245977534677876E-015
  -3.5299999999999998E-002    -8.6933524005221134E-015
  -3.5200000000000002E-002    -1.5781340196772096E-014
  -3.5099999999999999E-002    -2.4831397653140783E-014
  -3.5000000000000003E-002    -3.6061428230474077E-014
  -3.4900000000000000E-002    -4.9644933075489867E-014
  -3.4799999999999998E-002    -6.5688346960208338E-014
  -3.4700000000000002E-002    -8.4205517179251205E-014
  -3.4599999999999999E-002    -1.0508993442169892E-013
  -3.4500000000000003E-002    -1.2808554401572830E-013
  -3.4400000000000000E-002    -1.5275725562952092E-013
  -3.4299999999999997E-002    -1.7846255072687112E-013
  -3.4200000000000001E-002    -2.0432571921306236E-013
  -3.4099999999999998E-002    -2.2921684624151173E-013
  -3.4000000000000002E-002    -2.5173729745718576E-013
  -3.3900000000000000E-002    -2.7021427088068373E-013
  -3.3799999999999997E-002    -2.8270623147162721E-013
  -3.3700000000000001E-002    -2.8702192532426007E-013
  -3.3599999999999998E-002    -2.8075461335104468E-013
  -3.3500000000000002E-002    -2.6133362509596358E-013
  -3.3399999999999999E-002    -2.2609450661507935E-013
  -3.3300000000000003E-002    -1.7236867044367193E-013
  -3.3200000000000000E-002    -9.7592656070170924E-014
  -3.3099999999999997E-002     5.6350275008367140E-016
  -3.3000000000000002E-002     1.2405037392269891E-013
  -3.2899999999999999E-002     2.7427826719897408E-013
  -3.2800000000000003E-002     4.5194495932113221E-013
  -3.2700000000000000E-002     6.5685700151654758E-013
  -3.2600000000000004E-002     8.8775005142177621E-013
  -3.2500000000000001E-002     1.1421158073107729E-012
  -3.2399999999999998E-002     1.4160429556361875E-012
  -3.2300000000000002E-002     1.7040807783960665E-012
  -3.2199999999999999E-002     1.9991358828769235E-012
  -3.2100000000000004E-002     2.2924097516086039E-012
  -3.2000000000000001E-002     2.5733887677042988E-012
  -3.1899999999999998E-002     2.8298951723626509E-012
  -3.1800000000000002E-002     3.0482066523673801E-012
  -3.1699999999999999E-002     3.2132543154039794E-012
  -3.1600000000000003E-002     3.3089015468584781E-012
  -3.1500000000000000E-002     3.3183104701517419E-012
  -3.1399999999999997E-002     3.2243940590453990E-012
  -3.1300000000000001E-002     3.0103549861215662E-012
  -3.1199999999999999E-002     2.6603027506594268E-012
  -3.1100000000000003E-002     2.1599412796530215E-012
  -3.1000000000000000E-002     1.4973169188900459E-012
  -3.0900000000000000E-002     6.6360415426625075E-013
  -3.0800000000000001E-002    -3.4608519392312354E-013
  -3.0699999999999998E-002    -1.5318979808623401E-012
  -3.0600000000000002E-002    -2.8884670263268353E-012
  -3.0499999999999999E-002    -4.4041996612176337E-012
  -3.0400000000000000E-002    -6.0606606538948782E-012
  -3.0300000000000001E-002    -7.8320839397294506E-012
  -3.0200000000000001E-002    -9.6850470351905749E-012
  -3.0100000000000002E-002    -1.1578340716744684E-011
  -2.9999999999999999E-002    -1.3463070068497895E-011
  -2.9899999999999999E-002    -1.5283007498423373E-011
  -2.9800000000000000E-002    -1.6975226779791797E-011
  -2.9700000000000001E-002    -1.8471037199763174E-011
  -2.9600000000000001E-002    -1.9697229958204332E-011
  -2.9499999999999998E-002    -2.0577622938944273E-011
  -2.9400000000000003E-002    -2.1034922068063899E-011
  -2.9300000000000000E-002    -2.0992856758494938E-011
  -2.9200000000000000E-002    -2.0378580767310694E-011
  -2.9100000000000001E-002    -1.9125274280940019E-011
  -2.8999999999999998E-002    -1.7174914268558439E-011
  -2.8900000000000002E-002    -1.4481148918887854E-011
  -2.8799999999999999E-002    -1.1012176413804919E-011
  -2.8700000000000000E-002    -6.7535746960112331E-012
  -2.8600000000000000E-002    -1.7109707747819947E-012
  -2.8500000000000001E-002     4.0875449726363033E-012
  -2.8400000000000002E-002     1.0589360985302498E-011
  -2.8299999999999999E-002     1.7715745537216776E-011
  -2.8200000000000003E-002     2.5360808939001167E-011
  -2.8100000000000000E-002     3.3391130138671343E-011
  -2.8000000000000001E-002     4.1646106702097896E-011
  -2.7900000000000001E-002     4.9939150037481284E-011
  -2.7799999999999998E-002     5.8059723695436105E-011
  -2.7700000000000002E-002     6.5776321889199352E-011
  -2.7600000000000000E-002     7.2840358744663547E-011
  -2.7500000000000000E-002     7.8990973484405202E-011
  -2.7400000000000001E-002     8.3960734198473830E-011
  -2.7299999999999998E-002     8.7482097954616478E-011
  -2.7200000000000002E-002     8.9294648064619508E-011
  -2.7099999999999999E-002     8.9152844828799260E-011
  -2.7000000000000000E-002     8.6834241186384276E-011
  -2.6900000000000000E-002     8.2147878777139027E-011
  -2.6800000000000001E-002     7.4942739514138879E-011
  -2.6700000000000002E-002     6.5115961234152309E-011
  -2.6599999999999999E-002     5.2620557217109010E-011
  -2.6500000000000003E-002     3.7472424468942833E-011
  -2.6400000000000000E-002     1.9756342395371718E-011
  -2.6300000000000000E-002    -3.6931319547656161E-013
  -2.6200000000000001E-002    -2.2669361179894487E-011
  -2.6099999999999998E-002    -4.6830359035077151E-011
  -2.6000000000000002E-002    -7.2461113498345497E-011
  -2.5899999999999999E-002    -9.9095273653482252E-011
  -2.5800000000000000E-002    -1.2619623401821656E-010
  -2.5700000000000001E-002    -1.5316424517575200E-010
  -2.5599999999999998E-002    -1.7934596863167229E-010
  -2.5500000000000002E-002    -2.0404615497238154E-010
  -2.5399999999999999E-002    -2.2654157716406331E-010
  -2.5300000000000000E-002    -2.4609680959741809E-010
  -2.5200000000000000E-002    -2.6198179736702798E-010
  -2.5100000000000001E-002    -2.7349061904047289E-010
  -2.5000000000000001E-002    -2.7996130413932008E-010
  -2.4899999999999999E-002    -2.8079616409826258E-010
  -2.4800000000000003E-002    -2.7548194281301619E-010
  -2.4700000000000000E-002    -2.6360963412130900E-010
  -2.4600000000000000E-002    -2.4489291150509018E-010
  -2.4500000000000001E-002    -2.1918508674723114E-010
  -2.4399999999999998E-002    -1.8649358446420905E-010
  -2.4299999999999999E-002    -1.4699166883680448E-010
  -2.4199999999999999E-002    -1.0102673558831654E-010
  -2.4100000000000000E-002    -4.9124815326706539E-011
  -2.4000000000000000E-002     8.0091705836893290E-012
  -2.3900000000000001E-002     6.9495686982889993E-011
  -2.3800000000000002E-002     1.3428960721206806E-010
  -2.3699999999999999E-002     2.0119397814433171E-010
  -2.3599999999999999E-002     2.6887855830715068E-010
  -2.3500000000000000E-002     3.3590308312625439E-010
  -2.3400000000000001E-002     4.0074449314531080E-010
  -2.3300000000000001E-002     4.6182824231522090E-010
  -2.3199999999999998E-002     5.1756277041903331E-010
  -2.3099999999999999E-002     5.6637639023193742E-010
  -2.3000000000000000E-002     6.0675597879367160E-010
  -2.2900000000000000E-002     6.3728650134819986E-010
  -2.2800000000000001E-002     6.5669009119417865E-010
  -2.2700000000000001E-002     6.6386435237930641E-010
  -2.2599999999999999E-002     6.5791788683711161E-010
  -2.2499999999999999E-002     6.3820299045502793E-010
  -2.2400000000000000E-002     6.0434363069461483E-010
  -2.2300000000000000E-002     5.5625837269701606E-010
  -2.2200000000000001E-002     4.9417719916178271E-010
  -2.2100000000000002E-002     4.1865133582064118E-010
  -2.1999999999999999E-002     3.3055588821717663E-010
  -2.1899999999999999E-002     2.3108459590304165E-010
  -2.1800000000000000E-002     1.2173664853953881E-010
  -2.1700000000000001E-002     4.2955188017668178E-012
  -2.1600000000000001E-002    -1.1919991382836059E-010
  -2.1499999999999998E-002    -2.4649152163824795E-010
  -2.1399999999999999E-002    -3.7514463757659655E-010
  -2.1299999999999999E-002    -5.0259663098017882E-010
  -2.1200000000000000E-002    -6.2621002827611960E-010
  -2.1100000000000001E-002    -7.4332939803412046E-010
  -2.1000000000000001E-002    -8.5133983196428176E-010
  -2.0899999999999998E-002    -9.4772689696043244E-010
  -2.0799999999999999E-002    -1.0301348662977716E-009
  -2.0700000000000000E-002    -1.0964233965182757E-009
  -2.0600000000000000E-002    -1.1447203185355193E-009
  -2.0500000000000001E-002    -1.1734686555797680E-009
  -2.0400000000000001E-002    -1.1814675904275873E-009
  -2.0299999999999999E-002    -1.1679056610702787E-009
  -2.0199999999999999E-002    -1.1323852966427239E-009
  -2.0100000000000000E-002    -1.0749382495234272E-009
  -2.0000000000000000E-002    -9.9603059133812621E-010
  -1.9900000000000001E-002    -8.9655821655654222E-010
  -1.9799999999999998E-002    -7.7783235408190876E-010
  -1.9699999999999999E-002    -6.4155508683327866E-010
  -1.9599999999999999E-002    -4.8978621158823898E-010
  -1.9500000000000000E-002    -3.2490171664179002E-010
  -1.9400000000000001E-002    -1.4954537608247165E-010
  -1.9300000000000001E-002     3.3425377049534077E-011
  -1.9199999999999998E-002     2.2099794216856594E-010
  -1.9099999999999999E-002     4.1006570361545869E-010
  -1.9000000000000000E-002     5.9749033498590620E-010
  -1.8900000000000000E-002     7.8016326732210928E-010
  -1.8800000000000001E-002     9.5506547115320473E-010
  -1.8700000000000001E-002     1.1193230786687991E-009
  -1.8599999999999998E-002     1.2702584539781014E-009
  -1.8499999999999999E-002     1.4054349906089669E-009
  -1.8400000000000000E-002     1.5226945260238267E-009
  -1.8300000000000000E-002     1.6201872066190504E-009
  -1.8200000000000001E-002     1.6963933591185310E-009
  -1.8100000000000002E-002     1.7501370352945855E-009
  -1.7999999999999999E-002     1.7805915630830782E-009
  -1.7899999999999999E-002     1.7872771040927660E-009
  -1.7800000000000000E-002     1.7700517718211017E-009
  -1.7700000000000000E-002     1.7290967546657043E-009
  -1.7600000000000001E-002     1.6648963319099153E-009
  -1.7499999999999998E-002     1.5782142259723742E-009
  -1.7399999999999999E-002     1.4700686223889647E-009
  -1.7299999999999999E-002     1.3417045252595017E-009
  -1.7200000000000000E-002     1.1945681110958617E-009
  -1.7100000000000001E-002     1.0302811936924172E-009
  -1.7000000000000001E-002     8.5061885313209018E-010
  -1.6899999999999998E-002     6.5749045097263092E-010
  -1.6799999999999999E-002     4.5292386507966853E-010
  -1.6700000000000000E-002     2.3905402657398156E-010
  -1.6600000000000000E-002     1.8115594094259002E-011
  -1.6500000000000001E-002    -2.0756103780161794E-010
  -1.6400000000000001E-002    -4.3555059558997300E-010
  -1.6299999999999999E-002    -6.6333177839439372E-010
  -1.6199999999999999E-002    -8.8828538968854787E-010
  -1.6100000000000000E-002    -1.1076928263520358E-009
  -1.6000000000000000E-002    -1.3187364533706614E-009
  -1.5900000000000001E-002    -1.5185039892173791E-009
  -1.5799999999999998E-002    -1.7039973876364911E-009
  -1.5699999999999999E-002    -1.8721486583217484E-009
  -1.5599999999999999E-002    -2.0198431815998674E-009
  -1.5500000000000000E-002    -2.1439516828536398E-009
  -1.5400000000000000E-002    -2.2413708666846333E-009
  -1.5300000000000001E-002    -2.3090753753507443E-009
  -1.5199999999999998E-002    -2.3441770746757129E-009
  -1.5099999999999999E-002    -2.3439936658320448E-009
  -1.4999999999999999E-002    -2.3061248466405004E-009
  -1.4900000000000000E-002    -2.2285335798954975E-009
  -1.4800000000000001E-002    -2.1096311364487974E-009
  -1.4700000000000001E-002    -1.9483630264716112E-009
  -1.4599999999999998E-002    -1.7442925992483538E-009
  -1.4499999999999999E-002    -1.4976786477660653E-009
  -1.4400000000000000E-002    -1.2095454637872649E-009
  -1.4300000000000000E-002    -8.8173951473535794E-010
  -1.4200000000000001E-002    -5.1697124359151303E-010
  -1.4099999999999998E-002    -1.1883787010003033E-010
  -1.3999999999999999E-002     3.0817551288642164E-010
  -1.3899999999999999E-002     7.5871819937844975E-010
  -1.3800000000000000E-002     1.2266220261736294E-009
  -1.3700000000000000E-002     1.7049752720765809E-009
  -1.3600000000000001E-002     2.1862238686054525E-009
  -1.3499999999999998E-002     2.6622974935719412E-009
  -1.3399999999999999E-002     3.1247608944795502E-009
  -1.3299999999999999E-002     3.5649854179808926E-009
  -1.3200000000000000E-002     3.9743386359702981E-009
  -1.3100000000000001E-002     4.3443901809325780E-009
  -1.3000000000000001E-002     4.6671209119608648E-009
  -1.2899999999999998E-002     4.9351407405140435E-009
  -1.2799999999999999E-002     5.1418980184791963E-009
  -1.2699999999999999E-002     5.2818851514757625E-009
  -1.2600000000000000E-002     5.3508206754315779E-009
  -1.2500000000000001E-002     5.3458149018581480E-009
  -1.2399999999999998E-002     5.2655022564351839E-009
  -1.2299999999999998E-002     5.1101434195288675E-009
  -1.2199999999999999E-002     4.8816839459675521E-009
  -1.2100000000000000E-002     4.5837729167885755E-009
  -1.2000000000000000E-002     4.2217358497964597E-009
  -1.1900000000000001E-002     3.8025000925756558E-009
  -1.1799999999999998E-002     3.3344720318240206E-009
  -1.1699999999999999E-002     2.8273716701221474E-009
  -1.1599999999999999E-002     2.2920230158263166E-009
  -1.1500000000000000E-002     1.7401046159548628E-009
  -1.1400000000000000E-002     1.1838711122535983E-009
  -1.1300000000000001E-002     6.3584632004065611E-010
  -1.1199999999999998E-002     1.0849968840043189E-010
  -1.1099999999999999E-002    -3.8608607977330678E-010
  -1.0999999999999999E-002    -8.3654716487302494E-010
  -1.0900000000000000E-002    -1.2325601650431395E-009
  -1.0800000000000001E-002    -1.5651443474595794E-009
  -1.0699999999999998E-002    -1.8269336043985618E-009
  -1.0599999999999998E-002    -2.0124111266284217E-009
  -1.0499999999999999E-002    -2.1180972531453790E-009
  -1.0400000000000000E-002    -2.1426846963379376E-009
  -1.0300000000000000E-002    -2.0871158135093992E-009
  -1.0200000000000001E-002    -1.9545969287548814E-009
  -1.0099999999999998E-002    -1.7505498162151412E-009
  -9.9999999999999985E-003    -1.4824981242611557E-009
  -9.8999999999999991E-003    -1.1598922933231393E-009
  -9.7999999999999997E-003    -7.9387563189925459E-010
  -9.7000000000000003E-003    -3.9699771248180582E-010
  -9.6000000000000009E-003     1.7117881764838749E-011
  -9.4999999999999980E-003     4.3414255523899214E-010
  -9.3999999999999986E-003     8.3943874074066116E-010
  -9.2999999999999992E-003     1.2184713238383438E-009
  -9.1999999999999998E-003     1.5572234612903912E-009
  -9.1000000000000004E-003     1.8426047354580533E-009
  -9.0000000000000011E-003     2.0628403429867603E-009
  -8.8999999999999982E-003     2.2078285866200531E-009
  -8.7999999999999988E-003     2.2694572887616005E-009
  -8.6999999999999994E-003     2.2418706890903195E-009
  -8.5999999999999965E-003     2.1216761680875607E-009
  -8.5000000000000006E-003     1.9080872437626795E-009
  -8.3999999999999977E-003     1.6029976235287791E-009
  -8.3000000000000018E-003     1.2109828695372471E-009
  -8.1999999999999990E-003     7.3923145382792654E-010
  -8.0999999999999961E-003     1.9740557799519109E-010
  -8.0000000000000002E-003    -4.0256376010461281E-010
  -7.8999999999999973E-003    -1.0467418043447196E-009
  -7.8000000000000014E-003    -1.7195075363574119E-009
  -7.6999999999999985E-003    -2.4039150670063236E-009
  -7.6000000000000026E-003    -3.0820899166172921E-009
  -7.4999999999999997E-003    -3.7356460147464077E-009
  -7.3999999999999969E-003    -4.3461163556912652E-009
  -7.3000000000000009E-003    -4.8953863185374757E-009
  -7.1999999999999981E-003    -5.3661119991943451E-009
  -7.1000000000000021E-003    -5.7421254417988621E-009
  -6.9999999999999993E-003    -6.0088032327598739E-009
  -6.8999999999999964E-003    -6.1534035644683627E-009
  -6.8000000000000005E-003    -6.1653597782651559E-009
  -6.6999999999999976E-003    -6.0365237253279247E-009
  -6.6000000000000017E-003    -5.7613611659235175E-009
  -6.4999999999999988E-003    -5.3370956543119519E-009
  -6.3999999999999960E-003    -4.7638022415696923E-009
  -6.3000000000000000E-003    -4.0444549931351048E-009
  -6.1999999999999972E-003    -3.1849316517451598E-009
  -6.1000000000000013E-003    -2.1939801087000887E-009
  -5.9999999999999984E-003    -1.0831568975078198E-009
  -5.9000000000000025E-003     1.3325734959934721E-010
  -5.7999999999999996E-003     1.4383576552035038E-009
  -5.6999999999999967E-003     2.8127193907323544E-009
  -5.6000000000000008E-003     4.2345029704904391E-009
  -5.4999999999999979E-003     5.6795448344360011E-009
  -5.4000000000000020E-003     7.1214389940621459E-009
  -5.2999999999999992E-003     8.5315914333250475E-009
  -5.1999999999999963E-003     9.8792556357807371E-009
  -5.1000000000000004E-003     1.1131534805031151E-008
  -4.9999999999999975E-003     1.2253356551639172E-008
  -4.9000000000000016E-003     1.3207424487404751E-008
  -4.7999999999999987E-003     1.3954133848415040E-008
  -4.6999999999999958E-003     1.4451477348131903E-008
  -4.5999999999999999E-003     1.4654927049662092E-008
  -4.4999999999999971E-003     1.4517301138994299E-008
  -4.4000000000000011E-003     1.3988628033700934E-008
  -4.2999999999999983E-003     1.3016009603461498E-008
  -4.2000000000000023E-003     1.1543503930511179E-008
  -4.0999999999999995E-003     9.5120054055541914E-009
  -3.9999999999999966E-003     6.8591514690297117E-009
  -3.9000000000000007E-003     3.5192639913361745E-009
  -3.7999999999999978E-003    -5.7669141684257852E-010
  -3.7000000000000019E-003    -5.5011106780966657E-009
  -3.5999999999999990E-003    -1.1329727378495136E-008
  -3.4999999999999962E-003    -1.8141554036787966E-008
  -3.4000000000000002E-003    -2.6018794230253661E-008
  -3.2999999999999974E-003    -3.5046738844357606E-008
  -3.2000000000000015E-003    -4.5313626628740167E-008
  -3.0999999999999986E-003    -5.6910526069486878E-008
  -2.9999999999999957E-003    -6.9931182622440247E-008
  -2.8999999999999998E-003    -8.4471871275582089E-008
  -2.7999999999999969E-003    -1.0063130417847788E-007
  -2.7000000000000010E-003    -1.1851054892986213E-007
  -2.5999999999999981E-003    -1.3821295397065114E-007
  -2.5000000000000022E-003    -1.5984413437308831E-007
  -2.3999999999999994E-003    -1.8351207131672709E-007
  -2.2999999999999965E-003    -2.0932719735355931E-007
  -2.2000000000000006E-003    -2.3740254562198970E-007
  -2.0999999999999977E-003    -2.6785406248563959E-007
  -2.0000000000000018E-003    -3.0080082069616765E-007
  -1.8999999999999989E-003    -3.3636561624916794E-007
  -1.7999999999999960E-003    -3.7467526681211893E-007
  -1.7000000000000001E-003    -4.1586119436942681E-007
  -1.5999999999999973E-003    -4.6006002207832353E-007
  -1.5000000000000013E-003    -5.0741437007673085E-007
  -1.3999999999999985E-003    -5.5807339549573953E-007
  -1.2999999999999956E-003    -6.1219367353260168E-007
  -1.1999999999999997E-003    -6.6993999325859477E-007
  -1.0999999999999968E-003    -7.3148601131833857E-007
  -1.0000000000000009E-003    -7.9701550248501007E-007
  -8.9999999999999802E-004    -8.6672275756427553E-007
  -8.0000000000000210E-004    -9.4081383394950535E-007
  -6.9999999999999923E-004    -1.0195071808993816E-006
  -5.9999999999999637E-004    -1.1030348332496942E-006
  -5.0000000000000044E-004    -1.1916429230041103E-006
  -3.9999999999999758E-004    -1.2855929298893898E-006
  -3.0000000000000165E-004    -1.3851621361027355E-006
  -1.9999999999999879E-004    -1.4906451042406843E-006
  -9.9999999999995925E-005    -1.6023542457332951E-006
   0.0000000000000000         -1.7206209577125264E-006
   1.0000000000000286E-004    -1.8457964188201004E-006
   1.9999999999999879E-004    -1.9782528397627175E-006
   3.0000000000000165E-004    -2.1183841454330832E-006
   4.0000000000000452E-004    -2.2666076802124735E-006
   5.0000000000000044E-004    -2.4233650037785992E-006
   6.0000000000000331E-004    -2.5891233690344961E-006
   6.9999999999999923E-004    -2.7643766316032270E-006
   8.0000000000000210E-004    -2.9496470688172849E-006
   8.9999999999999802E-004    -3.1454867439606460E-006
   1.0000000000000009E-003    -3.3524793252581730E-006
   1.1000000000000038E-003    -3.5712407679966418E-006
   1.1999999999999997E-003    -3.8024220430088462E-006
   1.3000000000000025E-003    -4.0467102735419758E-006
   1.3999999999999985E-003    -4.3048303268733434E-006
   1.5000000000000013E-003    -4.5775477701681666E-006
   1.6000000000000042E-003    -4.8656684157322161E-006
   1.7000000000000001E-003    -5.1700426411116496E-006
   1.8000000000000030E-003    -5.4915653890930116E-006
   1.8999999999999989E-003    -5.8311788961873390E-006
   2.0000000000000018E-003    -6.1898736021248624E-006
   2.1000000000000046E-003    -6.5686917878338136E-006
   2.2000000000000006E-003    -6.9687266659457237E-006
   2.3000000000000034E-003    -7.3911260187742300E-006
   2.3999999999999994E-003    -7.8370940173044801E-006
   2.5000000000000022E-003    -8.3078903116984293E-006
   2.5999999999999981E-003    -8.8048345787683502E-006
   2.7000000000000010E-003    -9.3293083409662358E-006
   2.8000000000000039E-003    -9.8827549663837999E-006
   2.8999999999999998E-003    -1.0466683306731284E-005
   3.0000000000000027E-003    -1.1082667697337456E-005
   3.0999999999999986E-003    -1.1732352504623123E-005
   3.2000000000000015E-003    -1.2417453035595827E-005
   3.3000000000000043E-003    -1.3139758266333956E-005
   3.4000000000000002E-003    -1.3901133570470847E-005
   3.5000000000000031E-003    -1.4703525266668294E-005
   3.5999999999999990E-003    -1.5548959709121846E-005
   3.7000000000000019E-003    -1.6439553292002529E-005
   3.7999999999999978E-003    -1.7377513358951546E-005
   3.9000000000000007E-003    -1.8365139112574980E-005
   4.0000000000000036E-003    -1.9404831618885510E-005
   4.0999999999999995E-003    -2.0499095626291819E-005
   4.2000000000000023E-003    -2.1650548660545610E-005
   4.2999999999999983E-003    -2.2861919205752201E-005
   4.4000000000000011E-003    -2.4136063075275160E-005
   4.5000000000000040E-003    -2.5475957954768091E-005
   4.5999999999999999E-003    -2.6884719773079269E-005
   4.7000000000000028E-003    -2.8365604521241039E-005
   4.7999999999999987E-003    -2.9922013709438033E-005
   4.9000000000000016E-003    -3.1557508918922395E-005
   5.0000000000000044E-003    -3.3275802707066759E-005
   5.1000000000000004E-003    -3.5080785892205313E-005
   5.2000000000000032E-003    -3.6976522096665576E-005
   5.2999999999999992E-003    -3.8967253203736618E-005
   5.4000000000000020E-003    -4.1057406633626670E-005
   5.4999999999999979E-003    -4.3251613533357158E-005
   5.6000000000000008E-003    -4.5554697862826288E-005
   5.7000000000000037E-003    -4.7971698222681880E-005
   5.7999999999999996E-003    -5.0507864216342568E-005
   5.9000000000000025E-003    -5.3168667363934219E-005
   5.9999999999999984E-003    -5.5959797464311123E-005
   6.1000000000000013E-003    -5.8887184422928840E-005
   6.2000000000000041E-003    -6.1956990975886583E-005
   6.3000000000000000E-003    -6.5175619965884835E-005
   6.4000000000000029E-003    -6.8549721618182957E-005
   6.4999999999999988E-003    -7.2086208092514426E-005
   6.6000000000000017E-003    -7.5792238931171596E-005
   6.7000000000000046E-003    -7.9675250162836164E-005
   6.8000000000000005E-003    -8.3742947026621550E-005
   6.9000000000000034E-003    -8.8003311248030514E-005
   6.9999999999999993E-003    -9.2464601038955152E-005
   7.1000000000000021E-003    -9.7135372925549746E-005
   7.1999999999999981E-003    -1.0202448174823076E-004
   7.3000000000000009E-003    -1.0714108066167682E-004
   7.4000000000000038E-003    -1.1249465023865923E-004
   7.4999999999999997E-003    -1.1809499119408429E-004
   7.6000000000000026E-003    -1.2395222438499331E-004
   7.6999999999999985E-003    -1.3007680536247790E-004
   7.8000000000000014E-003    -1.3647957530338317E-004
   7.9000000000000042E-003    -1.4317169552668929E-004
   8.0000000000000002E-003    -1.5016473480500281E-004
   8.1000000000000030E-003    -1.5747061115689576E-004
   8.1999999999999990E-003    -1.6510166460648179E-004
   8.3000000000000018E-003    -1.7307059897575527E-004
   8.4000000000000047E-003    -1.8139058374799788E-004
   8.5000000000000006E-003    -1.9007516675628722E-004
   8.6000000000000035E-003    -1.9913836149498820E-004
   8.6999999999999994E-003    -2.0859463256783783E-004
   8.8000000000000023E-003    -2.1845891023986042E-004
   8.8999999999999982E-003    -2.2874657588545233E-004
   9.0000000000000011E-003    -2.3947349109221250E-004
   9.1000000000000039E-003    -2.5065604131668806E-004
   9.1999999999999998E-003    -2.6231113588437438E-004
   9.3000000000000027E-003    -2.7445613523013890E-004
   9.3999999999999986E-003    -2.8710893820971251E-004
   9.5000000000000015E-003    -3.0028805485926569E-004
   9.6000000000000044E-003    -3.1401246087625623E-004
   9.7000000000000003E-003    -3.2830171403475106E-004
   9.8000000000000032E-003    -3.4317595418542624E-004
   9.8999999999999991E-003    -3.5865584504790604E-004
   1.0000000000000002E-002    -3.7476269062608480E-004
   1.0100000000000005E-002    -3.9151837700046599E-004
   1.0200000000000001E-002    -4.0894531412050128E-004
   1.0300000000000004E-002    -4.2706661042757332E-004
   1.0400000000000000E-002    -4.4590589823201299E-004
   1.0500000000000002E-002    -4.6548750833608210E-004
   1.0599999999999998E-002    -4.8583632451482117E-004
   1.0700000000000001E-002    -5.0697789993137121E-004
   1.0800000000000004E-002    -5.2893831161782146E-004
   1.0900000000000000E-002    -5.5174453882500529E-004
   1.1000000000000003E-002    -5.7542388094589114E-004
   1.1099999999999999E-002    -6.0000451048836112E-004
   1.1200000000000002E-002    -6.2551512382924557E-004
   1.1300000000000004E-002    -6.5198511583730578E-004
   1.1400000000000000E-002    -6.7944452166557312E-004
   1.1500000000000003E-002    -7.0792401675134897E-004
   1.1599999999999999E-002    -7.3745497502386570E-004
   1.1700000000000002E-002    -7.6806929428130388E-004
   1.1800000000000005E-002    -7.9979968722909689E-004
   1.1900000000000001E-002    -8.3267944864928722E-004
   1.2000000000000004E-002    -8.6674245540052652E-004
   1.2100000000000000E-002    -9.0202328283339739E-004
   1.2200000000000003E-002    -9.3855720479041338E-004
   1.2299999999999998E-002    -9.7637990256771445E-004
   1.2400000000000001E-002    -1.0155279887840152E-003
   1.2500000000000004E-002    -1.0560385417193174E-003
   1.2600000000000000E-002    -1.0979492217302322E-003
   1.2700000000000003E-002    -1.1412983294576406E-003
   1.2799999999999999E-002    -1.1861247476190329E-003
   1.2900000000000002E-002    -1.2324680574238300E-003
   1.3000000000000005E-002    -1.2803681893274188E-003
   1.3100000000000001E-002    -1.3298657722771168E-003
   1.3200000000000003E-002    -1.3810021337121725E-003
   1.3299999999999999E-002    -1.4338188339024782E-003
   1.3400000000000002E-002    -1.4883582480251789E-003
   1.3500000000000005E-002    -1.5446629840880632E-003
   1.3600000000000001E-002    -1.6027763485908508E-003
   1.3700000000000004E-002    -1.6627421136945486E-003
   1.3800000000000000E-002    -1.7246042843908072E-003
   1.3900000000000003E-002    -1.7884075641632080E-003
   1.3999999999999999E-002    -1.8541968893259764E-003
   1.4100000000000001E-002    -1.9220176618546247E-003
   1.4200000000000004E-002    -1.9919157493859529E-003
   1.4300000000000000E-002    -2.0639370195567608E-003
   1.4400000000000003E-002    -2.1381278056651354E-003
   1.4499999999999999E-002    -2.2145346738398075E-003