  -8.0000000000000002E-002     0.0000000000000000
  -7.9579999999999998E-002     0.0000000000000000
  -7.9160000000000008E-002     0.0000000000000000
  -7.8740000000000004E-002     0.0000000000000000
  -7.8320000000000001E-002     0.0000000000000000
  -7.7899999999999997E-002     0.0000000000000000
  -7.7480000000000007E-002     0.0000000000000000
  -7.7060000000000003E-002     0.0000000000000000
  -7.6640000000000000E-002     0.0000000000000000
  -7.6219999999999996E-002    -3.2575426800975726E-034
  -7.5800000000000006E-002    -5.6747226611432634E-033
  -7.5380000000000003E-002    -5.0330594030123720E-032
  -7.4959999999999999E-002    -3.0210929607841009E-031
  -7.4539999999999995E-002    -1.3753723564222245E-030
  -7.4120000000000005E-002    -5.0407760136998970E-030
  -7.3700000000000002E-002    -1.5392111776003507E-029
  -7.3279999999999998E-002    -3.9909488035988819E-029
  -7.2860000000000008E-002    -8.8445523322536585E-029
  -7.2440000000000004E-002    -1.6609303066043438E-028
  -7.2020000000000001E-002    -2.5436202590095122E-028
  -7.1599999999999997E-002    -2.7679617846293997E-028
  -7.1180000000000007E-002    -5.3906353941051373E-029
  -7.0760000000000003E-002     7.2886680178948388E-028
  -7.0340000000000000E-002     2.4887320438189119E-027
  -6.9919999999999996E-002     5.5702559776236509E-027
  -6.9500000000000006E-002     9.8434084553136743E-027
  -6.9080000000000003E-002     1.4038016332098133E-026
  -6.8659999999999999E-002     1.4909418678119244E-026
  -6.8239999999999995E-002     6.5648723715220881E-027
  -6.7820000000000005E-002    -1.9401731586785309E-026
  -6.7400000000000002E-002    -7.2005070808061578E-026
  -6.6979999999999998E-002    -1.5610050214708067E-025
  -6.6560000000000008E-002    -2.6399556335096498E-025
  -6.6140000000000004E-002    -3.6384132150201603E-025
  -6.5720000000000001E-002    -3.8749214314808550E-025
  -6.5299999999999997E-002    -2.2398725415596361E-025
  -6.4879999999999993E-002     2.7114780588436808E-025
  -6.4460000000000003E-002     1.2375553529959116E-024
  -6.4040000000000000E-002     2.7302789122489443E-024
  -6.3619999999999996E-002     4.5947666569116129E-024
  -6.3200000000000006E-002     6.3127273158023728E-024
  -6.2780000000000002E-002     6.8672709933546865E-024
  -6.2359999999999999E-002     4.7159594438731871E-024
  -6.1940000000000002E-002    -2.0049293124752767E-024
  -6.1520000000000005E-002    -1.4915683996701225E-023
  -6.1100000000000002E-002    -3.4391512682814434E-023
  -6.0679999999999998E-002    -5.8185689984542238E-023
  -6.0260000000000001E-002    -7.9970872534413974E-023
  -5.9840000000000004E-002    -8.8386836349375421E-023
  -5.9420000000000001E-002    -6.7455340348755805E-023
  -5.8999999999999997E-002     6.6676378857135836E-025
  -5.8580000000000000E-002     1.2985025139135539E-022
  -5.8160000000000003E-002     3.2104290310595382E-022
  -5.7740000000000000E-002     5.5143300679921486E-022
  -5.7319999999999996E-002     7.6461553189730856E-022
  -5.6899999999999999E-002     8.6632340640734738E-022
  -5.6480000000000002E-002     7.3131805413427540E-022
  -5.6059999999999999E-002     2.2663542698646509E-022
  -5.5640000000000002E-002    -7.4619581288773173E-022
  -5.5220000000000005E-002    -2.1924589376686027E-021
  -5.4800000000000001E-002    -3.9588772702441957E-021
  -5.4379999999999998E-002    -5.6795900489443187E-021
  -5.3960000000000001E-002    -6.7583147199277017E-021
  -5.3540000000000004E-002    -6.4140929150292344E-021
  -5.3120000000000001E-002    -3.8131599788845406E-021
  -5.2699999999999997E-002     1.7048535557669754E-021
  -5.2280000000000000E-002     1.0322199654015773E-020
  -5.1860000000000003E-002     2.1407224784756082E-020
  -5.1440000000000000E-002     3.3228051879894118E-020
  -5.1019999999999996E-002     4.2822984074516366E-020
  -5.0599999999999999E-002     4.6145049076129176E-020
  -5.0180000000000002E-002     3.8581719985742831E-020
  -4.9759999999999999E-002     1.5900792232767938E-020
  -4.9340000000000002E-002    -2.4412393911293267E-020
  -4.8920000000000005E-002    -8.1577358721776253E-020
  -4.8500000000000001E-002    -1.4998331210719535E-019
  -4.8079999999999998E-002    -2.1810435054708129E-019
  -4.7660000000000001E-002    -2.6835568926525906E-019
  -4.7239999999999997E-002    -2.7838681792305923E-019
  -4.6820000000000001E-002    -2.2419858945260703E-019
  -4.6399999999999997E-002    -8.5212888054442503E-020
  -4.5980000000000000E-002     1.4898167358440073E-019
  -4.5560000000000003E-002     4.7102572432347645E-019
  -4.5140000000000000E-002     8.4874654624141232E-019
  -4.4720000000000003E-002     1.2206393931307312E-018
  -4.4299999999999999E-002     1.4961650614304042E-018
  -4.3880000000000002E-002     1.5630755396224524E-018
  -4.3459999999999999E-002     1.3033154890964296E-018
  -4.3040000000000002E-002     6.1769276120991296E-019
  -4.2619999999999998E-002    -5.4249641509879238E-019
  -4.2200000000000001E-002    -2.1411949162763478E-018
  -4.1779999999999998E-002    -4.0274738287666825E-018
  -4.1360000000000001E-002    -5.9183401961611402E-018
  -4.0939999999999997E-002    -7.4038574324670318E-018
  -4.0520000000000000E-002    -7.9826346608501379E-018
  -4.0099999999999997E-002    -7.1320439832400172E-018
  -3.9680000000000000E-002    -4.4113409907636073E-018
  -3.9260000000000003E-002     4.1211378658834344E-019
  -3.8840000000000000E-002     7.2318806895617027E-018
  -3.8420000000000003E-002     1.5492532878008985E-017
  -3.7999999999999999E-002     2.4130930985912759E-017
  -3.7580000000000002E-002     3.1598056170520960E-017
  -3.7159999999999999E-002     3.5983850046413283E-017
  -3.6740000000000002E-002     3.5254162965289639E-017
  -3.6319999999999998E-002     2.7590061784368754E-017
  -3.5900000000000001E-002     1.1798152350336317E-017
  -3.5479999999999998E-002    -1.2260754660304456E-017
  -3.5060000000000001E-002    -4.3294256923855882E-017
  -3.4639999999999997E-002    -7.8331221925510551E-017
  -3.4220000000000000E-002    -1.1268200812430708E-016
  -3.3799999999999997E-002    -1.4017080298942168E-016
  -3.3380000000000000E-002    -1.5367860435819913E-016
  -3.2960000000000003E-002    -1.4600025565369164E-016
  -3.2539999999999999E-002    -1.1097662321836605E-016
  -3.2120000000000003E-002    -4.4812398209324042E-017
  -3.1699999999999999E-002     5.2557450017092151E-017
  -3.1280000000000002E-002     1.7623783073225247E-016
  -3.0859999999999999E-002     3.1550285452468362E-016
  -3.0440000000000002E-002     4.5352688383877236E-016
  -3.0019999999999998E-002     5.6796032077832419E-016
  -2.9600000000000001E-002     6.3254747804983354E-016
  -2.9179999999999998E-002     6.1989499589231862E-016
  -2.8760000000000001E-002     5.0536087797133298E-016
  -2.8339999999999997E-002     2.7183767875584962E-016
  -2.7920000000000000E-002    -8.5028636810118628E-017
  -2.7499999999999997E-002    -5.5187363343626407E-016
  -2.7080000000000000E-002    -1.0938044296699589E-015
  -2.6659999999999996E-002    -1.6527479245200230E-015
  -2.6239999999999999E-002    -2.1489385389672742E-015
  -2.5820000000000003E-002    -2.4863124562965547E-015
  -2.5399999999999999E-002    -2.5621528986914966E-015
  -2.4980000000000002E-002    -2.2807390711411589E-015
  -2.4559999999999998E-002    -1.5700211048723120E-015
  -2.4140000000000002E-002    -3.9959462085466315E-016
  -2.3719999999999998E-002     1.2024318770774198E-015
  -2.3300000000000001E-002     3.1364855796135049E-015
  -2.2879999999999998E-002     5.2254946297147372E-015
  -2.2460000000000001E-002     7.2183948395541658E-015
  -2.2039999999999997E-002     8.8050741029783090E-015
  -2.1620000000000000E-002     9.6435327106139928E-015
  -2.1199999999999997E-002     9.3985716173805902E-015
  -2.0780000000000000E-002     7.7895652361207924E-015
  -2.0359999999999996E-002     4.6432548943786637E-015
  -1.9939999999999999E-002    -5.4093364709301052E-017
  -1.9519999999999996E-002    -6.1121753187170880E-015
  -1.9099999999999999E-002    -1.3107309420237646E-014
  -1.8680000000000002E-002    -2.0376123598404943E-014
  -1.8259999999999998E-002    -2.7038961057273771E-014
  -1.7840000000000002E-002    -3.2057874288103402E-014
  -1.7420000000000005E-002    -3.4330691857756179E-014
  -1.7000000000000001E-002    -3.2818502081628863E-014
  -1.6579999999999998E-002    -2.6698174643561842E-014
  -1.6159999999999994E-002    -1.5526119800031251E-014
  -1.5740000000000004E-002     6.0650518211610809E-016
  -1.5320000000000000E-002     2.0950638015690860E-014
  -1.4899999999999997E-002     4.4033579808301741E-014
  -1.4479999999999993E-002     6.7673823331958503E-014
  -1.4060000000000003E-002     8.9093998533444432E-014
  -1.3639999999999999E-002     1.0513832627108788E-013
  -1.3219999999999996E-002     1.1258681375283219E-013
  -1.2799999999999992E-002     1.0854414402990300E-013
  -1.2380000000000002E-002     9.0863850263640967E-014
  -1.1959999999999998E-002     5.8557727796068359E-014
  -1.1539999999999995E-002     1.2134929809757026E-014
  -1.1120000000000005E-002    -4.6183481302838952E-014
  -1.0700000000000001E-002    -1.1242011180101406E-013
  -1.0279999999999997E-002    -1.8099055931461606E-013
  -9.8599999999999938E-003    -2.4505178330431423E-013
  -9.4400000000000039E-003    -2.9702682783014705E-013
  -9.0200000000000002E-003    -3.2926337698742590E-013
  -8.5999999999999965E-003    -3.3476844848357726E-013
  -8.1799999999999928E-003    -3.0795212469840197E-013
  -7.7600000000000030E-003    -2.4531856971972295E-013
  -7.3399999999999993E-003    -1.4604894951198774E-013
  -6.9199999999999956E-003    -1.2434072073467868E-014
  -6.4999999999999919E-003     1.4987112164569822E-013
  -6.0800000000000021E-003     3.3179173606922946E-013
  -5.6599999999999984E-003     5.2099193911575101E-013
  -5.2399999999999947E-003     7.0226777636815050E-013
  -4.8200000000000048E-003     8.5819172856672130E-013
  -4.4000000000000011E-003     9.7003279807923982E-013
  -3.9799999999999974E-003     1.0189716526515111E-012
  -3.5599999999999937E-003     9.8759781271993947E-013
  -3.1400000000000039E-003     8.6164389004609361E-013
  -2.7200000000000002E-003     6.3187966356121056E-013
  -2.2999999999999965E-003     2.9602163774891868E-013
  -1.8799999999999928E-003    -1.3953732687210753E-013
  -1.4600000000000030E-003    -6.5839240031508347E-013
  -1.0399999999999993E-003    -1.2334010220993629E-012
  -6.1999999999999555E-004    -1.8267960590634668E-012
  -1.9999999999999185E-004    -2.3912735862139206E-012
   2.1999999999999797E-004    -2.8721404030876424E-012
   6.4000000000000168E-004    -3.2105186290113695E-012
   1.0600000000000054E-003    -3.3474824575869200E-012
   1.4799999999999952E-003    -3.2289821834299288E-012
   1.8999999999999989E-003    -2.8112371692661763E-012
   2.3200000000000026E-003    -2.0663271388284267E-012
   2.7400000000000063E-003    -9.8758603063383220E-013
   3.1599999999999961E-003     4.0563770314771280E-013
   3.5799999999999998E-003     2.0642898839830548E-012
   4.0000000000000036E-003     3.9075143703102065E-012
   4.4200000000000073E-003     5.8226841291022673E-012
   4.8399999999999971E-003     7.6680322633427764E-012
   5.2600000000000008E-003     9.2783217139699849E-012
   5.6800000000000045E-003     1.0473723330049046E-011
   6.1000000000000082E-003     1.1071935631229105E-011
   6.5199999999999980E-003     1.0903011028599379E-011
   6.9400000000000017E-003     9.8260535841877735E-012
   7.3600000000000054E-003     7.7465877485749216E-012
   7.7799999999999953E-003     4.6329875690825424E-012
   8.1999999999999990E-003     5.3017034682489484E-013
   8.6200000000000027E-003    -4.4310569744981112E-012
   9.0400000000000064E-003    -1.0030589826435020E-011
   9.4599999999999962E-003    -1.5962296953317565E-011
   9.8799999999999999E-003    -2.1844434192129512E-011
   1.0300000000000004E-002    -2.7236721082695238E-011
   1.0720000000000007E-002    -3.1663282729731878E-011
   1.1139999999999997E-002    -3.4639874992558116E-011
   1.1560000000000001E-002    -3.5704013644957868E-011
   1.1980000000000005E-002    -3.4446538498928410E-011
   1.2400000000000008E-002    -3.0543190067423690E-011
   1.2819999999999998E-002    -2.3785411283761262E-011
   1.3240000000000002E-002    -1.4109204811613826E-011
   1.3660000000000005E-002    -1.6213520988937543E-012
   1.4079999999999995E-002     1.3377723787494796E-011
   1.4499999999999999E-002     3.0376981393440508E-011
   1.4920000000000003E-002     4.8645760143949314E-011
   1.5340000000000006E-002     6.7235392650365194E-011
   1.5759999999999996E-002     8.4995289850844639E-011
   1.6180000000000000E-002     1.0060544170103293E-010
   1.6600000000000004E-002     1.1262906285526283E-010
   1.7020000000000007E-002     1.1958412882553785E-010
   1.7439999999999997E-002     1.2003401187263576E-010
   1.7860000000000001E-002     1.1269179919934109E-010
   1.8280000000000005E-002     9.6534102118477148E-011
   1.8700000000000008E-002     7.0916071518002561E-011
   1.9119999999999998E-002     3.5679160392339202E-011
   1.9540000000000002E-002    -8.7563931806666592E-012
   1.9960000000000006E-002    -6.1320480450663256E-011
   2.0380000000000009E-002    -1.2025163363095208E-010
   2.0799999999999999E-002    -1.8308881471749526E-010
   2.1220000000000003E-002    -2.4669847543577494E-010
   2.1640000000000006E-002    -3.0734067628449259E-010
   2.2059999999999996E-002    -3.6077625312768949E-010
   2.2480000000000000E-002    -4.0241499895567124E-010
   2.2900000000000004E-002    -4.2750610878628833E-010
   2.3320000000000007E-002    -4.3137532687436482E-010
   2.3739999999999997E-002    -4.0970186656339144E-010
   2.4160000000000001E-002    -3.5883365120830317E-010
   2.4580000000000005E-002    -2.7613029682989606E-010
   2.5000000000000008E-002    -1.6032472311027578E-010
   2.5419999999999998E-002    -1.1873365196604214E-011
   2.5840000000000002E-002     1.6672914915899295E-010
   2.6260000000000006E-002     3.7069690077705183E-010
   2.6680000000000009E-002     5.9279445914438598E-010
   2.7099999999999999E-002     8.2330940908128615E-010
   2.7520000000000003E-002     1.0501753890619457E-009
   2.7940000000000006E-002     1.2592614987097458E-009
   2.8359999999999996E-002     1.4348529242299308E-009
   2.8780000000000000E-002     1.5602932467237831E-009
   2.9200000000000004E-002     1.6187963317942394E-009
   2.9620000000000007E-002     1.5943960948268449E-009
   3.0039999999999997E-002     1.4730028718417207E-009
   3.0460000000000001E-002     1.2435194475427064E-009
   3.0880000000000005E-002     8.9897173296843575E-010
   3.1300000000000008E-002     4.3760822330435580E-010
   3.1719999999999998E-002    -1.3612416493957398E-010
   3.2140000000000002E-002    -8.1075066269385207E-010
   3.2560000000000006E-002    -1.5672060185853297E-009
   3.2980000000000009E-002    -2.3785744926732355E-009
   3.3399999999999999E-002    -3.2102079498201746E-009
   3.3820000000000003E-002    -4.0202860150663396E-009
   3.4240000000000007E-002    -4.7608766322582373E-009
   3.4659999999999996E-002    -5.3794775526711289E-009
   3.5080000000000000E-002    -5.8210741615445075E-009
   3.5500000000000004E-002    -6.0306748241598960E-009
   3.5920000000000007E-002    -5.9562044909306813E-009
   3.6339999999999997E-002    -5.5517195153826483E-009
   3.6760000000000001E-002    -4.7807529905285468E-009
   3.7180000000000005E-002    -3.6196705163984184E-009
   3.7600000000000008E-002    -2.0608851370190559E-009
   3.8019999999999998E-002    -1.1566123964681470E-010
   3.8440000000000002E-002     2.1835735099242615E-009
   3.8860000000000006E-002     4.7816489426299763E-009
   3.9280000000000009E-002     7.5999814609975235E-009
   3.9699999999999999E-002     1.0536831756507159E-008
   4.0120000000000003E-002     1.3468733098645233E-008
   4.0540000000000007E-002     1.6253229032281875E-008
   4.0960000000000010E-002     1.8732759197766337E-008
   4.1380000000000000E-002     2.0739739372366015E-008
   4.1800000000000004E-002     2.2103007985894981E-008
   4.2220000000000008E-002     2.2655062442883319E-008
   4.2639999999999997E-002     2.2240177733550037E-008
   4.3060000000000001E-002     2.0723187621681234E-008
   4.3480000000000005E-002     1.7998385246072601E-008
   4.3900000000000008E-002     1.3998214559049692E-008
   4.4319999999999998E-002     8.7014978178862781E-009
   4.4740000000000002E-002     2.1405253742333074E-009
   4.5159999999999992E-002    -5.5928812859701096E-009
   4.5579999999999996E-002    -1.4343540283406436E-008
   4.5999999999999999E-002    -2.3891106336103613E-008
   4.6420000000000003E-002    -3.3950269405931017E-008
   4.6840000000000007E-002    -4.4174088165856546E-008
   4.7260000000000010E-002    -5.4159659268679424E-008
   4.7680000000000014E-002    -6.3456651985335311E-008
   4.8099999999999990E-002    -7.1578745737376773E-008
   4.8519999999999994E-002    -7.8017902404477019E-008
   4.8939999999999997E-002    -8.2260349999896605E-008
   4.9360000000000001E-002    -8.3805155634068874E-008
   4.9780000000000005E-002    -8.2184251795758788E-008
   5.0200000000000009E-002    -7.6983930362679372E-008
   5.0620000000000012E-002    -6.7866978141584635E-008
   5.1040000000000016E-002    -5.4595495404495226E-008
   5.1459999999999992E-002    -3.7052360805720082E-008
   5.1879999999999996E-002    -1.5262198624678638E-008
   5.2299999999999999E-002     1.0588788680637661E-008
   5.2720000000000003E-002     4.0137603463818011E-008
   5.3140000000000007E-002     7.2831347521427077E-008
   5.3560000000000010E-002     1.0791730150574530E-007
   5.3980000000000014E-002     1.4443809939908474E-007
   5.4400000000000018E-002     1.8123288583851367E-007
   5.4819999999999994E-002     2.1694442809263142E-007
   5.5239999999999997E-002     2.5002958863242207E-007
   5.5660000000000001E-002     2.7878001584164551E-007
   5.6080000000000005E-002     3.0134651281718640E-007
   5.6500000000000009E-002     3.1577098763321632E-007
   5.6920000000000012E-002     3.2002020730372768E-007
   5.7340000000000016E-002     3.1202523008017657E-007
   5.7759999999999992E-002     2.8973084463213543E-007
   5.8179999999999996E-002     2.5113750706169282E-007
   5.8599999999999999E-002     1.9434308900998524E-007
   5.9020000000000003E-002     1.1758166155095850E-007
   5.9440000000000007E-002     1.9253602956884419E-008
   5.9860000000000010E-002    -1.0204773025235437E-007
   6.0280000000000014E-002    -2.4751572534368175E-007
   6.0700000000000018E-002    -4.1813600965028841E-007
   6.1119999999999994E-002    -6.1469480796894272E-007
   6.1539999999999997E-002    -8.3780864570110544E-007
   6.1960000000000001E-002    -1.0879731028296358E-006
   6.2380000000000005E-002    -1.3656229275456795E-006
   6.2800000000000009E-002    -1.6712234671778696E-006
   6.3220000000000012E-002    -2.0053627735748443E-006
   6.3640000000000016E-002    -2.3688745434913587E-006
   6.4059999999999992E-002    -2.7629393794321753E-006
   6.4479999999999996E-002    -3.1892392060185856E-006
   6.4899999999999999E-002    -3.6501103883508520E-006
   6.5320000000000003E-002    -4.1486719203840977E-006
   6.5740000000000007E-002    -4.6889486087912493E-006
   6.6160000000000010E-002    -5.2760510019563339E-006
   6.6580000000000014E-002    -5.9162654716451479E-006
   6.7000000000000018E-002    -6.6172025643425879E-006
   6.7419999999999994E-002    -7.3879278723544972E-006
   6.7839999999999998E-002    -8.2390109782324581E-006
   6.8260000000000001E-002    -9.1827225609161321E-006
   6.8680000000000005E-002    -1.0233000990477655E-005
   6.9100000000000009E-002    -1.1405497278285422E-005
   6.9520000000000012E-002    -1.2717670580222072E-005
   6.9940000000000016E-002    -1.4188948181939347E-005
   7.0359999999999992E-002    -1.5840726212641946E-005
   7.0779999999999996E-002    -1.7696416406829155E-005
   7.1199999999999999E-002    -1.9781611394086860E-005
   7.1620000000000003E-002    -2.2123903641477080E-005
   7.2040000000000007E-002    -2.4753484388652705E-005
   7.2460000000000011E-002    -2.7703189926052067E-005
   7.2880000000000014E-002    -3.1008531505617213E-005
   7.3300000000000018E-002    -3.4707867919791637E-005
   7.3719999999999994E-002    -3.8842022852629631E-005
   7.4139999999999998E-002    -4.3455347218272942E-005
   7.4560000000000001E-002    -4.8595963523059256E-005
   7.4980000000000005E-002    -5.4315382989235003E-005
   7.5400000000000009E-002    -6.0668819566608056E-005
   7.5820000000000012E-002    -6.7715509545450821E-005
   7.6240000000000016E-002    -7.5519845462819986E-005
   7.6659999999999992E-002    -8.4150940939646741E-005
   7.7079999999999996E-002    -9.3682671096204014E-005
   7.7499999999999999E-002    -1.0419434040132064E-004
   7.7920000000000003E-002    -1.1577127918872935E-004
   7.8340000000000007E-002    -1.2850388520304750E-004
   7.8760000000000011E-002    -1.4248891378122020E-004
   7.9180000000000014E-002    -1.5782894561124728E-004
   7.9600000000000018E-002    -1.7463468839880975E-004
   8.0019999999999994E-002    -1.9302323020080908E-004
   8.0439999999999998E-002    -2.1311820904920420E-004
   8.0860000000000001E-002    -2.3505313419208647E-004
   8.1280000000000005E-002    -2.5896784931572466E-004
   8.1700000000000009E-002    -2.8500926726724514E-004
   8.2120000000000012E-002    -3.1333129365118727E-004
   8.2540000000000016E-002    -3.4409824348667823E-004
   8.2959999999999992E-002    -3.7748056298254011E-004
   8.3379999999999996E-002    -4.1365891078593486E-004
   8.3799999999999999E-002    -4.5282353599011913E-004
   8.4220000000000003E-002    -4.9517632181585169E-004
   8.4640000000000007E-002    -5.4093024127591983E-004
   8.5060000000000011E-002    -5.9030074193197656E-004
   8.5480000000000014E-002    -6.4350637212101278E-004
   8.5900000000000018E-002    -7.0077534311608865E-004
   8.6319999999999994E-002    -7.6233683683778392E-004
   8.6739999999999998E-002    -8.2842376577282732E-004
   8.7160000000000001E-002    -8.9928785803470592E-004
   8.7580000000000005E-002    -9.7517139527254185E-004
   8.8000000000000009E-002    -1.0563231972173688E-003
   8.8420000000000012E-002    -1.1429850796944767E-003
   8.8840000000000016E-002    -1.2354025331584046E-003
   8.9259999999999992E-002    -1.3338137346895762E-003
   8.9679999999999996E-002    -1.4384476272133601E-003
   9.0100000000000000E-002    -1.5495274195909698E-003
   9.0520000000000003E-002    -1.6672709066588639E-003
   9.0940000000000007E-002    -1.7918744134149060E-003
   9.1360000000000011E-002    -1.9235291984114949E-003
   9.1780000000000014E-002    -2.0623977405769991E-003
   9.2200000000000018E-002    -2.2086034487687044E-003
   9.2619999999999994E-002    -2.3622791182078490E-003
   9.3039999999999998E-002    -2.5235311315025782E-003
   9.3460000000000001E-002    -2.6924553658761491E-003
   9.3880000000000005E-002    -2.8690891920996730E-003
   9.4300000000000009E-002    -3.0534338082831001E-003
   9.4720000000000013E-002    -3.2454471504412405E-003
   9.5140000000000016E-002    -3.4450327606721982E-003
   9.5559999999999992E-002    -3.6520318351832633E-003
   9.5979999999999996E-002    -3.8662705110341731E-003
   9.6400000000000000E-002    -4.0875670877266361E-003
   9.6820000000000003E-002    -4.3155912332641082E-003
   9.7240000000000007E-002    -4.5499469908498579E-003
   9.7660000000000011E-002    -4.7903119808365372E-003
   9.8080000000000014E-002    -5.0361802697456463E-003
   9.8500000000000018E-002    -5.2868555090295572E-003
   9.8919999999999994E-002    -5.5416782576365922E-003
   9.9339999999999998E-002    -5.7999122360289212E-003
   9.9760000000000001E-002    -6.0607230992524236E-003
  0.10018000000000001         -6.3231713964854693E-003
  0.10060000000000001         -6.5862829311894031E-003
  0.10102000000000001         -6.8489233421459798E-003
  0.10144000000000002         -7.1097435434072723E-003
  0.10185999999999999         -7.3674902806968477E-003
  0.10228000000000000         -7.6206795252646703E-003
  0.10270000000000000         -7.8677093506701705E-003
  0.10312000000000000         -8.1068414950777913E-003
  0.10354000000000001         -8.3362015514327099E-003
  0.10396000000000001         -8.5541104130161805E-003
  0.10438000000000001         -8.7586996261416923E-003
  0.10480000000000002         -8.9478160590420706E-003
  0.10521999999999999         -9.1194903000802411E-003
  0.10564000000000000         -9.2716953635977525E-003
  0.10606000000000000         -9.4023322307142283E-003
  0.10648000000000001         -9.5090440500564706E-003
  0.10690000000000001         -9.5892154725295969E-003
  0.10732000000000001         -9.6408995381549525E-003
  0.10774000000000002         -9.6616306799354647E-003
  0.10815999999999999         -9.6486424461864027E-003
  0.10858000000000000         -9.5993185923112026E-003
  0.10900000000000000         -9.5113387551975844E-003
  0.10942000000000000         -9.3823886397786105E-003
  0.10984000000000001         -9.2100816081740478E-003
  0.11026000000000001         -8.9919917522418135E-003
  0.11068000000000001         -8.7258834431874731E-003
  0.11110000000000002         -8.4098336929278854E-003
  0.11151999999999999         -8.0419948427876246E-003
  0.11194000000000000         -7.6205290602613983E-003
  0.11236000000000000         -7.1437482944881631E-003
  0.11278000000000001         -6.6101137961761189E-003
  0.11320000000000001         -6.0181509539857132E-003
  0.11362000000000001         -5.3667652305380772E-003
  0.11404000000000002         -4.6547774193082796E-003
  0.11446000000000002         -3.8808731259754566E-003
  0.11488000000000000         -3.0440777664091246E-003
  0.11530000000000000         -2.1444006356769129E-003
  0.11572000000000000         -1.1823573022636206E-003
  0.11614000000000001         -1.5872863739937776E-004
  0.11656000000000001          9.2502401574569553E-004
  0.11698000000000001          2.0673036061829159E-003
  0.11740000000000002          3.2661981444693598E-003
  0.11781999999999999          4.5194876429123891E-003
  0.11824000000000000          5.8240541222308907E-003
  0.11866000000000000          7.1770306147595029E-003
  0.11908000000000001          8.5755397427160936E-003
  0.11950000000000001          1.0015936081467572E-002
  0.11992000000000001          1.1494488262550392E-002
  0.12034000000000002          1.3006627852669284E-002
  0.12076000000000002          1.4547468378027006E-002
  0.12118000000000000          1.6111551108518946E-002
  0.12160000000000000          1.7692609162025114E-002
  0.12202000000000000          1.9284359306767293E-002
  0.12244000000000001          2.0879757165080205E-002
  0.12286000000000001          2.2471837774298425E-002
  0.12328000000000001          2.4054713524411866E-002
  0.12370000000000002          2.5621290994558045E-002
  0.12411999999999999          2.7162986717221706E-002
  0.12454000000000000          2.8671477600811922E-002
  0.12496000000000000          3.0138841527525759E-002
  0.12537999999999999          3.1556166879124832E-002
  0.12580000000000002          3.2914480690601142E-002
  0.12622000000000000          3.4205670840169997E-002
  0.12664000000000003          3.5420254660376287E-002
  0.12706000000000001          3.6549890276382030E-002
  0.12747999999999998          3.7588236785100378E-002
  0.12790000000000001          3.8526845493726959E-002
  0.12831999999999999          3.9357983600201221E-002
  0.12874000000000002          4.0075616148276788E-002
  0.12916000000000000          4.0672600082192520E-002
  0.12958000000000003          4.1142022469826421E-002
  0.13000000000000000          4.1477149436980207E-002
  0.13041999999999998          4.1670927784569295E-002
  0.13084000000000001          4.1716604052215264E-002
  0.13125999999999999          4.1608452027350404E-002
  0.13168000000000002          4.1342128761420148E-002
  0.13210000000000000          4.0913797089727033E-002
  0.13252000000000003          4.0320810888292036E-002
  0.13294000000000000          3.9561029324124843E-002
  0.13336000000000003          3.8632797214812574E-002
  0.13378000000000001          3.7535776579780411E-002
  0.13419999999999999          3.6271614847360925E-002
  0.13462000000000002          3.4841811836124122E-002
  0.13503999999999999          3.3247573826245810E-002
  0.13546000000000002          3.1491078612658853E-002
  0.13588000000000000          2.9575389961613918E-002
  0.13630000000000003          2.7504005866481832E-002
  0.13672000000000001          2.5282309889586272E-002
  0.13713999999999998          2.2916090504647491E-002
  0.13756000000000002          2.0411201446521511E-002
  0.13797999999999999          1.7775213262945355E-002
  0.13840000000000002          1.5017171987527214E-002
  0.13882000000000000          1.2145523763874989E-002
  0.13924000000000003          9.1692103729113690E-003
  0.13966000000000001          6.0988664030484458E-003
  0.14007999999999998          2.9460239064280046E-003
  0.14050000000000001         -2.7792981591097951E-004
  0.14091999999999999         -3.5616531203641472E-003
  0.14134000000000002         -6.8924290298996056E-003
  0.14176000000000000         -1.0256369693895182E-002
  0.14218000000000003         -1.3639705565557136E-002
  0.14260000000000000         -1.7029006970055528E-002
  0.14301999999999998         -2.0410354418939982E-002
  0.14344000000000001         -2.3770446585415647E-002
  0.14385999999999999         -2.7096639230256951E-002
  0.14428000000000002         -3.0376350320511586E-002
  0.14470000000000000         -3.3597154060207482E-002
  0.14512000000000003         -3.6748278887055549E-002
  0.14554000000000000         -3.9818341612935654E-002
  0.14596000000000003         -4.2795652920861016E-002
  0.14638000000000001         -4.5669331017668152E-002
  0.14679999999999999         -4.8427985776023426E-002
  0.14722000000000002         -5.1059669891793204E-002
  0.14763999999999999         -5.3551990607900279E-002
  0.14806000000000002         -5.5894594332475997E-002
  0.14848000000000000         -5.8077657676891929E-002
  0.14890000000000003         -6.0093071190190438E-002