  -4.0000000000000001E-002     0.0000000000000000
  -3.9899999999999998E-002     0.0000000000000000
  -3.9800000000000002E-002    -3.7085021489814392E-017
  -3.9699999999999999E-002    -1.7439373415583618E-016
  -3.9600000000000003E-002    -4.6162528001750919E-016
  -3.9500000000000000E-002    -1.0120073309295339E-015
  -3.9399999999999998E-002    -1.7141893856321131E-015
  -3.9300000000000002E-002    -1.6932841889774034E-015
  -3.9199999999999999E-002    -9.9545217785456698E-016
  -3.9100000000000003E-002     1.1117146496452714E-015
  -3.9000000000000000E-002     2.3200211249471605E-015
  -3.8900000000000004E-002     3.6067713214942704E-015
  -3.8800000000000001E-002     5.7175651440742516E-015
  -3.8699999999999998E-002     7.3119585540970707E-015
  -3.8600000000000002E-002     1.1390287516887913E-014
  -3.8500000000000000E-002     1.2389954954204491E-014
  -3.8400000000000004E-002     1.4317108222171478E-014
  -3.8300000000000001E-002     1.8253790406291825E-014
  -3.8199999999999998E-002     2.3617485937310438E-014
  -3.8100000000000002E-002     3.1937302737324036E-014
  -3.7999999999999999E-002     4.5431008537403714E-014
  -3.7900000000000003E-002     5.9967215383909672E-014
  -3.7800000000000000E-002     7.3752270024658728E-014
  -3.7699999999999997E-002     8.7443473414852008E-014
  -3.7600000000000001E-002     9.7234212055683639E-014
  -3.7499999999999999E-002     1.1342281416382508E-013
  -3.7400000000000003E-002     1.3008919028806298E-013
  -3.7300000000000000E-002     1.5066545016803601E-013
  -3.7200000000000004E-002     1.7304777402693539E-013
  -3.7100000000000001E-002     1.9864794217113596E-013
  -3.6999999999999998E-002     2.1418844887814703E-013
  -3.6900000000000002E-002     2.1964454723338162E-013
  -3.6799999999999999E-002     2.2841846686674772E-013
  -3.6700000000000003E-002     2.2384635920032203E-013
  -3.6600000000000001E-002     2.0358511426156467E-013
  -3.6499999999999998E-002     1.8017804316681346E-013
  -3.6400000000000002E-002     1.5266059900584383E-013
  -3.6299999999999999E-002     1.3124596624346924E-013
  -3.6200000000000003E-002     1.2050993883350181E-013
  -3.6100000000000000E-002     9.8481369814693714E-014
  -3.6000000000000004E-002     9.1369416915267065E-014
  -3.5900000000000001E-002     1.0064595912327029E-013
  -3.5799999999999998E-002     8.8881145824358521E-014
  -3.5700000000000003E-002     4.3308587917073246E-014
  -3.5600000000000000E-002    -1.9035730565615527E-014
  -3.5500000000000004E-002    -1.0739749611550845E-013
  -3.5400000000000001E-002    -1.6898965950543077E-013
  -3.5299999999999998E-002    -2.3813126492390480E-013
  -3.5200000000000002E-002    -2.9676201817110948E-013
  -3.5099999999999999E-002    -3.5832263805407605E-013
  -3.5000000000000003E-002    -4.2653380827317733E-013
  -3.4900000000000000E-002    -5.1269286125560365E-013
  -3.4799999999999998E-002    -6.1123762301606988E-013
  -3.4700000000000002E-002    -7.3379518607252781E-013
  -3.4599999999999999E-002    -8.5132725521908093E-013
  -3.4500000000000003E-002    -9.8274405106735241E-013
  -3.4400000000000000E-002    -1.0704925444346425E-012
  -3.4299999999999997E-002    -1.1340625704139851E-012
  -3.4200000000000001E-002    -1.1045080865537682E-012
  -3.4099999999999998E-002    -1.0554730917392008E-012
  -3.4000000000000002E-002    -1.0391907603532480E-012
  -3.3900000000000000E-002    -1.0180649726021507E-012
  -3.3799999999999997E-002    -1.0605406526933980E-012
  -3.3700000000000001E-002    -1.1691554842319096E-012
  -3.3599999999999998E-002    -1.2933810923307365E-012
  -3.3500000000000002E-002    -1.4619909016050370E-012
  -3.3399999999999999E-002    -1.6479432835697638E-012
  -3.3300000000000003E-002    -1.8310880155886222E-012
  -3.3200000000000000E-002    -1.9750034940813066E-012
  -3.3099999999999997E-002    -1.9995370376807431E-012
  -3.3000000000000002E-002    -1.7676957987655673E-012
  -3.2899999999999999E-002    -1.4799868145246031E-012
  -3.2800000000000003E-002    -1.1449568506835539E-012
  -3.2700000000000000E-002    -6.6553457623436119E-013
  -3.2600000000000004E-002    -1.7405448284914249E-013
  -3.2500000000000001E-002     2.7371816835666807E-013
  -3.2399999999999998E-002     7.6639925959340327E-013
  -3.2300000000000002E-002     1.3557574117181725E-012
  -3.2199999999999999E-002     1.9965207872368884E-012
  -3.2100000000000004E-002     2.6229005946343253E-012
  -3.2000000000000001E-002     3.0480910764157931E-012
  -3.1899999999999998E-002     3.4975685542226742E-012
  -3.1800000000000002E-002     3.9635118104230926E-012
  -3.1699999999999999E-002     4.2253531402913769E-012
  -3.1600000000000003E-002     4.4328694361051024E-012
  -3.1500000000000000E-002     4.5348867890038225E-012
  -3.1399999999999997E-002     4.3579042284525027E-012
  -3.1300000000000001E-002     3.9955387089174454E-012
  -3.1199999999999999E-002     3.3912035506122873E-012
  -3.1100000000000003E-002     2.7823511723756855E-012
  -3.1000000000000000E-002     2.1875121072184589E-012
  -3.0900000000000000E-002     1.4748776202069824E-012
  -3.0800000000000001E-002     9.5292133558966263E-013
  -3.0699999999999998E-002     5.5319166131564956E-013
  -3.0600000000000002E-002     3.3257888088465692E-013
  -3.0499999999999999E-002    -4.2465644444888290E-014
  -3.0400000000000000E-002    -4.3720092108255615E-013
  -3.0300000000000001E-002    -4.6075941456322211E-013
  -3.0200000000000001E-002    -6.6074229421175801E-013
  -3.0100000000000002E-002    -7.6872411431186394E-013
  -2.9999999999999999E-002    -9.2522745107764814E-013
  -2.9899999999999999E-002    -1.2238462196792477E-012
  -2.9800000000000000E-002    -1.5713851660853484E-012
  -2.9700000000000001E-002    -2.0826660708517242E-012
  -2.9600000000000001E-002    -2.7415650045298223E-012
  -2.9499999999999998E-002    -4.0052032870829812E-012
  -2.9400000000000003E-002    -5.4144249847509762E-012
  -2.9300000000000000E-002    -7.5529547893804505E-012
  -2.9200000000000000E-002    -9.8729366695970988E-012
  -2.9100000000000001E-002    -1.2152901948669914E-011
  -2.8999999999999998E-002    -1.4912076781725681E-011
  -2.8900000000000002E-002    -1.7882971145577464E-011
  -2.8799999999999999E-002    -2.0227099509217972E-011
  -2.8700000000000000E-002    -2.2101397101348397E-011
  -2.8600000000000000E-002    -2.3443485000496089E-011
  -2.8500000000000001E-002    -2.3938457119343504E-011
  -2.8400000000000002E-002    -2.4149555619135121E-011
  -2.8299999999999999E-002    -2.3415977490337525E-011
  -2.8200000000000003E-002    -2.3005540181197937E-011
  -2.8100000000000000E-002    -2.3154381190160223E-011
  -2.8000000000000001E-002    -2.2709256350395002E-011
  -2.7900000000000001E-002    -2.1505686120804057E-011
  -2.7799999999999998E-002    -1.9777153872913011E-011
  -2.7700000000000002E-002    -1.7645832711687959E-011
  -2.7600000000000000E-002    -1.5995772414956200E-011
  -2.7500000000000000E-002    -1.4411374871237115E-011
  -2.7400000000000001E-002    -1.1237405103670106E-011
  -2.7299999999999998E-002    -7.8133836206584206E-012
  -2.7200000000000002E-002    -4.9704897316094065E-012
  -2.7099999999999999E-002    -3.1145593916426240E-012
  -2.7000000000000000E-002    -2.1000874650400903E-012
  -2.6900000000000000E-002    -1.2890256353634277E-012
  -2.6800000000000001E-002     1.7262263667106037E-012
  -2.6700000000000002E-002     5.5439923485334219E-012
  -2.6599999999999999E-002     1.0150328494384908E-011
  -2.6500000000000003E-002     1.4619978838670278E-011
  -2.6400000000000000E-002     2.0027575084458071E-011
  -2.6300000000000000E-002     2.6905708563895736E-011
  -2.6200000000000001E-002     3.2121749704572267E-011
  -2.6099999999999998E-002     3.6204511610904433E-011
  -2.6000000000000002E-002     4.1615232093672461E-011
  -2.5899999999999999E-002     4.2500773733689101E-011
  -2.5800000000000000E-002     4.1905055814250858E-011
  -2.5700000000000001E-002     4.2171714037531061E-011
  -2.5599999999999998E-002     3.8323628992475989E-011
  -2.5500000000000002E-002     3.2241969510904411E-011
  -2.5399999999999999E-002     2.6450688861423544E-011
  -2.5300000000000000E-002     1.9752957949870087E-011
  -2.5200000000000000E-002     1.6381616549376865E-011
  -2.5100000000000001E-002     1.1218267634283130E-011
  -2.5000000000000001E-002     8.2810190996096544E-012
  -2.4899999999999999E-002     6.2196628056176984E-012
  -2.4800000000000003E-002     1.0082504275921167E-011
  -2.4700000000000000E-002     1.2098065604870811E-011
  -2.4600000000000000E-002     1.6080140691210332E-011
  -2.4500000000000001E-002     1.7666172344443787E-011
  -2.4399999999999998E-002     1.8574187327091707E-011
  -2.4299999999999999E-002     1.9164189332676607E-011
  -2.4199999999999999E-002     2.4044570154369005E-011
  -2.4100000000000000E-002     3.4018628192189482E-011
  -2.4000000000000000E-002     4.5073427629160889E-011
  -2.3900000000000001E-002     5.7554502830292620E-011
  -2.3800000000000002E-002     6.8446137646560601E-011
  -2.3699999999999999E-002     7.0900924020733669E-011
  -2.3599999999999999E-002     7.5797437770752651E-011
  -2.3500000000000000E-002     8.4765264252162353E-011
  -2.3400000000000001E-002     8.9082893839353972E-011
  -2.3300000000000001E-002     8.2748571883506372E-011
  -2.3199999999999998E-002     7.7576917112409660E-011
  -2.3099999999999999E-002     7.2496592062876175E-011
  -2.3000000000000000E-002     6.6809092980069096E-011
  -2.2900000000000000E-002     5.8690712012587909E-011
  -2.2800000000000001E-002     5.3871216515455345E-011
  -2.2700000000000001E-002     4.3634346136300906E-011
  -2.2599999999999999E-002     2.9079950253363407E-011
  -2.2499999999999999E-002     2.3624227574181589E-011
  -2.2400000000000000E-002     6.7662334068963048E-012
  -2.2300000000000000E-002    -8.5601811012844808E-013
  -2.2200000000000001E-002    -6.0104894152035460E-012
  -2.2100000000000002E-002    -9.5985329059966595E-012
  -2.1999999999999999E-002    -1.7212859609871956E-011
  -2.1899999999999999E-002    -2.0571997230711681E-011
  -2.1800000000000000E-002    -2.7509963057559261E-011
  -2.1700000000000001E-002    -4.2595545146628666E-011
  -2.1600000000000001E-002    -6.7569394524014115E-011
  -2.1499999999999998E-002    -1.0505923214720880E-010
  -2.1399999999999999E-002    -1.3792368636078578E-010
  -2.1299999999999999E-002    -1.6764978294503408E-010
  -2.1200000000000000E-002    -1.9241784554591135E-010
  -2.1100000000000001E-002    -2.0802698452726531E-010
  -2.1000000000000001E-002    -2.2824615808492155E-010
  -2.0899999999999998E-002    -2.4618754257410558E-010
  -2.0799999999999999E-002    -2.6316238077583876E-010
  -2.0700000000000000E-002    -2.8084684577933672E-010
  -2.0600000000000000E-002    -3.1255592558565581E-010
  -2.0500000000000001E-002    -3.4769909174059421E-010
  -2.0400000000000001E-002    -3.8417752312724929E-010
  -2.0299999999999999E-002    -4.0582834315294747E-010
  -2.0199999999999999E-002    -4.2304743042009818E-010
  -2.0100000000000000E-002    -4.5161022144135643E-010
  -2.0000000000000000E-002    -4.8759984938584466E-010
  -1.9900000000000001E-002    -5.2983134546380484E-010
  -1.9799999999999998E-002    -5.8261873103759854E-010
  -1.9699999999999999E-002    -6.3140098705005698E-010
  -1.9599999999999999E-002    -6.8469002689752756E-010
  -1.9500000000000000E-002    -7.5071876493026934E-010
  -1.9400000000000001E-002    -8.0538409275021650E-010
  -1.9300000000000001E-002    -8.6570789425977068E-010
  -1.9199999999999998E-002    -9.4210772516589714E-010
  -1.9099999999999999E-002    -1.0418278462154262E-009
  -1.9000000000000000E-002    -1.1331573457340482E-009
  -1.8900000000000000E-002    -1.2125397352846790E-009
  -1.8800000000000001E-002    -1.2875771560061366E-009
  -1.8700000000000001E-002    -1.3318938174577966E-009
  -1.8599999999999998E-002    -1.3143320876096709E-009
  -1.8499999999999999E-002    -1.2747147781766444E-009
  -1.8400000000000000E-002    -1.1684909706488611E-009
  -1.8300000000000000E-002    -1.0021247165425962E-009
  -1.8200000000000001E-002    -8.4058515703588910E-010
  -1.8100000000000002E-002    -6.9005345881834046E-010
  -1.7999999999999999E-002    -5.1075682572232495E-010
  -1.7899999999999999E-002    -3.1895031060713563E-010
  -1.7800000000000000E-002    -1.2986739461595675E-010
  -1.7700000000000000E-002     8.5382784176246673E-011
  -1.7600000000000001E-002     2.9700503167973125E-010
  -1.7499999999999998E-002     4.7518233792231968E-010
  -1.7399999999999999E-002     6.0827637371474452E-010
  -1.7299999999999999E-002     6.8178090950610226E-010
  -1.7200000000000000E-002     7.1780165145085562E-010
  -1.7100000000000001E-002     7.6189304865081908E-010
  -1.7000000000000001E-002     8.1411843932954753E-010
  -1.6899999999999998E-002     8.6122914355613034E-010
  -1.6799999999999999E-002     9.3360597031022508E-010
  -1.6700000000000000E-002     9.6570007546148418E-010
  -1.6600000000000000E-002     9.5791752308116429E-010
  -1.6500000000000001E-002     9.0775964523004404E-010
  -1.6400000000000001E-002     8.0790857337476041E-010
  -1.6299999999999999E-002     7.1453437611168624E-010
  -1.6199999999999999E-002     6.2269972511685978E-010
  -1.6100000000000000E-002     5.1962095737323466E-010
  -1.6000000000000000E-002     3.9814054830777934E-010
  -1.5900000000000001E-002     2.8947155783498602E-010
  -1.5799999999999998E-002     1.4220888355787054E-010
  -1.5699999999999999E-002    -2.0334012251765898E-012
  -1.5599999999999999E-002    -9.4119462223929418E-011
  -1.5500000000000000E-002    -1.4375356460760713E-010
  -1.5400000000000000E-002    -1.2901013590749244E-010
  -1.5300000000000001E-002    -1.1621075629575373E-010
  -1.5199999999999998E-002    -1.2316150876934273E-010
  -1.5099999999999999E-002    -5.1831542530189623E-011
  -1.4999999999999999E-002     1.8852083089049287E-011
  -1.4900000000000000E-002     1.0907585945574283E-010
  -1.4800000000000001E-002     1.5524084795437432E-010
  -1.4700000000000001E-002     2.2378457420479947E-010
  -1.4599999999999998E-002     3.0478983226167600E-010
  -1.4499999999999999E-002     4.1054346033853051E-010
  -1.4400000000000000E-002     5.0748555358026692E-010
  -1.4300000000000000E-002     5.6626781042012908E-010
  -1.4200000000000001E-002     5.8125099178241157E-010
  -1.4099999999999998E-002     6.7184491303606819E-010
  -1.3999999999999999E-002     6.9486078002611862E-010
  -1.3899999999999999E-002     7.4151917939246914E-010
  -1.3800000000000000E-002     8.8703194789374606E-010
  -1.3700000000000000E-002     1.1398986199395722E-009
  -1.3600000000000001E-002     1.4486739585706232E-009
  -1.3499999999999998E-002     1.8369734622325495E-009
  -1.3399999999999999E-002     2.3390136494327862E-009
  -1.3299999999999999E-002     2.7844795358333840E-009
  -1.3200000000000000E-002     3.2525846460629282E-009
  -1.3100000000000001E-002     3.6000116221401868E-009
  -1.3000000000000001E-002     3.8581347006072519E-009
  -1.2899999999999998E-002     4.2253582854812066E-009
  -1.2799999999999999E-002     4.6689390131859909E-009
  -1.2699999999999999E-002     4.9788879685763732E-009
  -1.2600000000000000E-002     5.1772430786911627E-009
  -1.2500000000000001E-002     5.2077080425760869E-009
  -1.2399999999999998E-002     5.1365698361394152E-009
  -1.2299999999999998E-002     5.0267789930558138E-009
  -1.2199999999999999E-002     4.8419059872628623E-009
  -1.2100000000000000E-002     4.6260204555892415E-009
  -1.2000000000000000E-002     4.4311718738754280E-009
  -1.1900000000000001E-002     4.2299879154938935E-009
  -1.1799999999999998E-002     4.1368597436530763E-009
  -1.1699999999999999E-002     4.0431169523458266E-009
  -1.1599999999999999E-002     3.9968623966046835E-009
  -1.1500000000000000E-002     4.0379846133475894E-009
  -1.1400000000000000E-002     4.2195384963861216E-009
  -1.1300000000000001E-002     4.4288031020300878E-009
  -1.1199999999999998E-002     4.6914720996937831E-009
  -1.1099999999999999E-002     4.9957313841275663E-009
  -1.0999999999999999E-002     5.3712616576717664E-009
  -1.0900000000000000E-002     5.7771241124271455E-009
  -1.0800000000000001E-002     6.1393299333190043E-009
  -1.0699999999999998E-002     6.5375975744075276E-009
  -1.0599999999999998E-002     6.9901906485370091E-009
  -1.0499999999999999E-002     7.4585067011412320E-009
  -1.0400000000000000E-002     7.9116304618764843E-009
  -1.0300000000000000E-002     8.2738136342186408E-009
  -1.0200000000000001E-002     8.5335072341763407E-009
  -1.0099999999999998E-002     8.6588354264449663E-009
  -9.9999999999999985E-003     8.6871629889628821E-009
  -9.8999999999999991E-003     8.6395566256669554E-009
  -9.7999999999999997E-003     8.4644726783267288E-009
  -9.7000000000000003E-003     8.2004127932577831E-009
  -9.6000000000000009E-003     7.7932877928788002E-009
  -9.4999999999999980E-003     7.3296715363824205E-009
  -9.3999999999999986E-003     6.7409828830022889E-009
  -9.2999999999999992E-003     6.0096456699909595E-009
  -9.1999999999999998E-003     5.2330912936326968E-009
  -9.1000000000000004E-003     4.4141028610056310E-009
  -9.0000000000000011E-003     3.5386058527819841E-009
  -8.8999999999999982E-003     2.5958315497121021E-009
  -8.7999999999999988E-003     1.5992973612100059E-009
  -8.6999999999999994E-003     5.5662846554227485E-010
  -8.5999999999999965E-003    -6.3342309175595801E-010
  -8.5000000000000006E-003    -1.8905517151779350E-009
  -8.3999999999999977E-003    -3.2212701395195609E-009
  -8.3000000000000018E-003    -4.5704324769246796E-009
  -8.1999999999999990E-003    -5.9046838529752677E-009
  -8.0999999999999961E-003    -7.2101604686736209E-009
  -8.0000000000000002E-003    -8.4790352516961320E-009
  -7.8999999999999973E-003    -9.6660413007043644E-009
  -7.8000000000000014E-003    -1.0727410959532335E-008
  -7.6999999999999985E-003    -1.1583759729205667E-008
  -7.6000000000000026E-003    -1.2265586768478443E-008
  -7.4999999999999997E-003    -1.2798047066553409E-008
  -7.3999999999999969E-003    -1.3115665886687111E-008
  -7.3000000000000009E-003    -1.3301832524348356E-008
  -7.1999999999999981E-003    -1.3287734468292456E-008
  -7.1000000000000021E-003    -1.3066127735328337E-008
  -6.9999999999999993E-003    -1.2639510771350615E-008
  -6.8999999999999964E-003    -1.2090263012964897E-008
  -6.8000000000000005E-003    -1.1462314652987970E-008
  -6.6999999999999976E-003    -1.0771589842306639E-008
  -6.6000000000000017E-003    -1.0038531783607141E-008
  -6.4999999999999988E-003    -9.3377270360406328E-009
  -6.3999999999999960E-003    -8.6605247417992359E-009
  -6.3000000000000000E-003    -8.0341600039446348E-009
  -6.1999999999999972E-003    -7.4076984546422864E-009
  -6.1000000000000013E-003    -6.7488912236512988E-009
  -5.9999999999999984E-003    -6.0696696557727137E-009
  -5.9000000000000025E-003    -5.2809254746932766E-009
  -5.7999999999999996E-003    -4.3397831994695935E-009
  -5.6999999999999967E-003    -3.1828653046517275E-009
  -5.6000000000000008E-003    -1.8900401244081877E-009
  -5.4999999999999979E-003    -5.2800780414585802E-010
  -5.4000000000000020E-003     8.8244928031500081E-010
  -5.2999999999999992E-003     2.2696231560814795E-009
  -5.1999999999999963E-003     3.5700520317760720E-009
  -5.1000000000000004E-003     4.8788333373295245E-009
  -4.9999999999999975E-003     6.2462217620407046E-009
  -4.9000000000000016E-003     7.6855544151044342E-009
  -4.7999999999999987E-003     9.1498026932868015E-009
  -4.6999999999999958E-003     1.0643481651584352E-008
  -4.5999999999999999E-003     1.2125994430789433E-008
  -4.4999999999999971E-003     1.3582477365048362E-008
  -4.4000000000000011E-003     1.4922786562010515E-008
  -4.2999999999999983E-003     1.6002209335397310E-008
  -4.2000000000000023E-003     1.6896972709901092E-008
  -4.0999999999999995E-003     1.7605422897304379E-008
  -3.9999999999999966E-003     1.8136484314368317E-008
  -3.9000000000000007E-003     1.8237830801126620E-008
  -3.7999999999999978E-003     1.7919902006724442E-008
  -3.7000000000000019E-003     1.7205156410682321E-008
  -3.5999999999999990E-003     1.6136191050009074E-008
  -3.4999999999999962E-003     1.4709898188414172E-008
  -3.4000000000000002E-003     1.2925040593358972E-008
  -3.2999999999999974E-003     1.0784321879953040E-008
  -3.2000000000000015E-003     8.2731892447895916E-009
  -3.0999999999999986E-003     5.5064957038553075E-009
  -2.9999999999999957E-003     2.6348994097702416E-009
  -2.8999999999999998E-003    -3.2245081604820314E-010
  -2.7999999999999969E-003    -3.5109857243753595E-009
  -2.7000000000000010E-003    -6.7820100646542869E-009
  -2.5999999999999981E-003    -1.0234781022688821E-008
  -2.5000000000000022E-003    -1.3673552956561252E-008
  -2.3999999999999994E-003    -1.7000772345454607E-008
  -2.2999999999999965E-003    -2.0087330909746015E-008
  -2.2000000000000006E-003    -2.2890187523216809E-008
  -2.0999999999999977E-003    -2.5369812917119816E-008
  -2.0000000000000018E-003    -2.7540071556586554E-008
  -1.8999999999999989E-003    -2.9330184503351120E-008
  -1.7999999999999960E-003    -3.0608280354726958E-008
  -1.7000000000000001E-003    -3.1445203774183028E-008
  -1.5999999999999973E-003    -3.1991405080589175E-008
  -1.5000000000000013E-003    -3.2201285193877993E-008
  -1.3999999999999985E-003    -3.2088202317481773E-008
  -1.2999999999999956E-003    -3.1562983338062622E-008
  -1.1999999999999997E-003    -3.0418711105539842E-008
  -1.0999999999999968E-003    -2.9046583804870352E-008
  -1.0000000000000009E-003    -2.7290656845480044E-008
  -8.9999999999999802E-004    -2.4990084668274903E-008
  -8.0000000000000210E-004    -2.2543639843775054E-008
  -6.9999999999999923E-004    -1.9799809791720691E-008
  -5.9999999999999637E-004    -1.6956727577621677E-008
  -5.0000000000000044E-004    -1.4135625114874983E-008
  -3.9999999999999758E-004    -1.1417281342573915E-008
  -3.0000000000000165E-004    -8.8480023308079581E-009
  -1.9999999999999879E-004    -6.5295280293753422E-009
  -9.9999999999995925E-005    -4.4571852875208151E-009
   0.0000000000000000         -2.3357507039634129E-009
   1.0000000000000286E-004    -3.2307728714542350E-010
   1.9999999999999879E-004     1.3694357869908913E-009
   3.0000000000000165E-004     2.9146576263627821E-009
   4.0000000000000452E-004     4.3517092152001169E-009
   5.0000000000000044E-004     5.7359215155372567E-009
   6.0000000000000331E-004     6.7494068112239347E-009
   6.9999999999999923E-004     7.4878210298834347E-009
   8.0000000000000210E-004     7.8573343387233763E-009
   8.9999999999999802E-004     8.0636430865865805E-009
   1.0000000000000009E-003     8.0994251305810394E-009
   1.1000000000000038E-003     7.9025603838545067E-009
   1.1999999999999997E-003     7.6367943080413170E-009
   1.3000000000000025E-003     7.4120269921706949E-009
   1.3999999999999985E-003     7.1148225089245898E-009
   1.5000000000000013E-003     6.9186523177222625E-009
   1.6000000000000042E-003     6.9224563858938382E-009
   1.7000000000000001E-003     7.0376326988252913E-009
   1.8000000000000030E-003     7.1538845958230013E-009
   1.8999999999999989E-003     7.4612174216781568E-009
   2.0000000000000018E-003     8.0272162250594192E-009
   2.1000000000000046E-003     9.0717851009003425E-009
   2.2000000000000006E-003     1.0135327244142900E-008
   2.3000000000000034E-003     1.1419289513980857E-008
   2.3999999999999994E-003     1.2867321430576339E-008
   2.5000000000000022E-003     1.4363895850522113E-008
   2.5999999999999981E-003     1.5709568756960834E-008
   2.7000000000000010E-003     1.6802644609015260E-008
   2.8000000000000039E-003     1.7701673016290442E-008
   2.8999999999999998E-003     1.8211590457894999E-008
   3.0000000000000027E-003     1.8267837020857769E-008
   3.0999999999999986E-003     1.7655864326115989E-008
   3.2000000000000015E-003     1.6439724248584753E-008
   3.3000000000000043E-003     1.4592085761933049E-008
   3.4000000000000002E-003     1.2135981997118961E-008
   3.5000000000000031E-003     8.9842870920620044E-009
   3.5999999999999990E-003     5.5007625121561432E-009
   3.7000000000000019E-003     1.6851221529279314E-009
   3.7999999999999978E-003    -2.2986046399608995E-009
   3.9000000000000007E-003    -6.2671166034533599E-009
   4.0000000000000036E-003    -1.0156565366514769E-008
   4.0999999999999995E-003    -1.3757158079386045E-008
   4.2000000000000023E-003    -1.6910627564925562E-008
   4.2999999999999983E-003    -1.9388279426379995E-008
   4.4000000000000011E-003    -2.1171041808543123E-008
   4.5000000000000040E-003    -2.2089173157269215E-008
   4.5999999999999999E-003    -2.2236232410932644E-008
   4.7000000000000028E-003    -2.1392539295561619E-008
   4.7999999999999987E-003    -1.9540568274578618E-008
   4.9000000000000016E-003    -1.6774084343751383E-008
   5.0000000000000044E-003    -1.3162605227989843E-008
   5.1000000000000004E-003    -8.8176133061779183E-009
   5.2000000000000032E-003    -3.8378176192566116E-009
   5.2999999999999992E-003     1.3683729704894176E-009
   5.4000000000000020E-003     6.7089440669576561E-009
   5.4999999999999979E-003     1.2079307332157896E-008
   5.6000000000000008E-003     1.7252435924319798E-008
   5.7000000000000037E-003     2.2058577187067385E-008
   5.7999999999999996E-003     2.6221291804517932E-008
   5.9000000000000025E-003     2.9708591142707519E-008
   5.9999999999999984E-003     3.2287839957234610E-008
   6.1000000000000013E-003     3.4057418218935709E-008
   6.2000000000000041E-003     3.4982129193394940E-008
   6.3000000000000000E-003     3.4972078566397613E-008
   6.4000000000000029E-003     3.4023354800183370E-008
   6.4999999999999988E-003     3.2288802742641565E-008
   6.6000000000000017E-003     2.9981450211380434E-008
   6.7000000000000046E-003     2.7272967884073296E-008
   6.8000000000000005E-003     2.4166808998415945E-008
   6.9000000000000034E-003     2.0939380007689579E-008
   6.9999999999999993E-003     1.7990593903505214E-008
   7.1000000000000021E-003     1.5391712793189072E-008
   7.1999999999999981E-003     1.3293610656717192E-008
   7.3000000000000009E-003     1.1819951239999682E-008
   7.4000000000000038E-003     1.0987516674276776E-008
   7.4999999999999997E-003     1.0887886148225334E-008
   7.6000000000000026E-003     1.1518061171500449E-008
   7.6999999999999985E-003     1.2818921035773201E-008
   7.8000000000000014E-003     1.4738946063630465E-008
   7.9000000000000042E-003     1.7098296112294520E-008
   8.0000000000000002E-003     1.9660445715885544E-008
   8.1000000000000030E-003     2.2121248832718265E-008
   8.1999999999999990E-003     2.4288151934115376E-008
   8.3000000000000018E-003     2.6010329889913919E-008
   8.4000000000000047E-003     2.6988976387087860E-008
   8.5000000000000006E-003     2.7157080140227663E-008
   8.6000000000000035E-003     2.6480872605816330E-008
   8.6999999999999994E-003     2.4962446332210675E-008
   8.8000000000000023E-003     2.2589269121908728E-008
   8.8999999999999982E-003     1.9272277995696641E-008
   9.0000000000000011E-003     1.4928062341823534E-008
   9.1000000000000039E-003     9.7490424622037608E-009
   9.1999999999999998E-003     3.7710869982277018E-009
   9.3000000000000027E-003    -2.9002196200167418E-009
   9.3999999999999986E-003    -1.0092875868394913E-008
   9.5000000000000015E-003    -1.7674198105055439E-008
   9.6000000000000044E-003    -2.5332468567285105E-008
   9.7000000000000003E-003    -3.2827568219317982E-008
   9.8000000000000032E-003    -4.0006028712014086E-008
   9.8999999999999991E-003    -4.6745260107172726E-008
   1.0000000000000002E-002    -5.2959265417484858E-008
   1.0100000000000005E-002    -5.8433091254528335E-008
   1.0200000000000001E-002    -6.2997088434713078E-008
   1.0300000000000004E-002    -6.6558428102325706E-008
   1.0400000000000000E-002    -6.8971544919804728E-008
   1.0500000000000002E-002    -7.0225368631327001E-008
   1.0599999999999998E-002    -7.0267795138079236E-008
   1.0700000000000001E-002    -6.9219602494285937E-008
   1.0800000000000004E-002    -6.7279451343438268E-008
   1.0900000000000000E-002    -6.4553979939319106E-008
   1.1000000000000003E-002    -6.1089494352017937E-008
   1.1099999999999999E-002    -5.6952274007926462E-008
   1.1200000000000002E-002    -5.2219057522506773E-008
   1.1300000000000004E-002    -4.6997637781487356E-008
   1.1400000000000000E-002    -4.1402298478487864E-008
   1.1500000000000003E-002    -3.5634830197750489E-008
   1.1599999999999999E-002    -2.9843175042287839E-008
   1.1700000000000002E-002    -2.4247110985697873E-008
   1.1800000000000005E-002    -1.8973636883856670E-008
   1.1900000000000001E-002    -1.4141771309539308E-008
   1.2000000000000004E-002    -9.8184855801264348E-009
   1.2100000000000000E-002    -6.1392477768151821E-009
   1.2200000000000003E-002    -3.2199067856453212E-009
   1.2299999999999998E-002    -1.0306867581633128E-009
   1.2400000000000001E-002     5.0340248636260299E-010
   1.2500000000000004E-002     1.5166550237921683E-009
   1.2600000000000000E-002     2.0864796557162890E-009
   1.2700000000000003E-002     2.3576276486636516E-009
   1.2799999999999999E-002     2.5069000209043679E-009
   1.2900000000000002E-002     2.5215964871705410E-009
   1.3000000000000005E-002     2.5759763211397058E-009
   1.3100000000000001E-002     2.8046318600871700E-009
   1.3200000000000003E-002     3.2450890863344739E-009
   1.3299999999999999E-002     4.0924490463112306E-009
   1.3400000000000002E-002     5.3566124869064424E-009
   1.3500000000000005E-002     7.0369625682076276E-009
   1.3600000000000001E-002     9.0586329548614231E-009
   1.3700000000000004E-002     1.1404209132592769E-008
   1.3800000000000000E-002     1.4032387696261139E-008
   1.3900000000000003E-002     1.6679129188901243E-008
   1.3999999999999999E-002     1.9357948133347236E-008
   1.4100000000000001E-002     2.1869638544558256E-008
   1.4200000000000004E-002     2.4090896388884175E-008
   1.4300000000000000E-002     2.5812560977556132E-008
   1.4400000000000003E-002     2.6801584951385848E-008