  -8.0000000000000002E-002     0.0000000000000000
  -7.9579999999999998E-002     0.0000000000000000
  -7.9160000000000008E-002     0.0000000000000000
  -7.8740000000000004E-002     0.0000000000000000
  -7.8320000000000001E-002     0.0000000000000000
  -7.7899999999999997E-002     0.0000000000000000
  -7.7480000000000007E-002     0.0000000000000000
  -7.7060000000000003E-002     0.0000000000000000
  -7.6640000000000000E-002     0.0000000000000000
  -7.6219999999999996E-002     0.0000000000000000
  -7.5800000000000006E-002     0.0000000000000000
  -7.5380000000000003E-002     0.0000000000000000
  -7.4959999999999999E-002    -5.2950729548496801E-038
  -7.4539999999999995E-002    -7.8184121608267643E-040
  -7.4120000000000005E-002     1.9938577757438609E-036
  -7.3700000000000002E-002     4.5799344887950887E-036
  -7.3279999999999998E-002    -2.4255094532601456E-035
  -7.2860000000000008E-002    -1.1829327637899338E-034
  -7.2440000000000004E-002     3.0852558487808993E-035
  -7.2020000000000001E-002     1.3707996026688950E-033
  -7.1599999999999997E-002     3.1709551582879860E-033
  -7.1180000000000007E-002    -3.3345160909482935E-033
  -7.0760000000000003E-002    -3.1268923235928433E-032
  -7.0340000000000000E-002    -5.2994671830472809E-032
  -6.9919999999999996E-002     6.3042245009447341E-032
  -6.9500000000000006E-002     4.3687108717780233E-031
  -6.9080000000000003E-002     6.5937737223127554E-031
  -6.8659999999999999E-002    -6.4040432419056663E-031
  -6.8239999999999995E-002    -4.3788711370377292E-030
  -6.7820000000000005E-002    -6.6685623578536167E-030
  -6.7400000000000002E-002     3.6543597040918737E-030
  -6.6979999999999998E-002     3.3501302102760972E-029
  -6.6560000000000008E-002     5.5951810467102106E-029
  -6.6140000000000004E-002    -3.9995957597528754E-030
  -6.5720000000000001E-002    -1.9869748624525168E-028
  -6.5299999999999997E-002    -3.8683912336018280E-028
  -6.4879999999999993E-002    -1.4395492091672154E-028
  -6.4460000000000003E-002     8.9522680310588301E-028
  -6.4040000000000000E-002     2.1802258022467492E-027
  -6.3619999999999996E-002     1.6845337006211415E-027
  -6.3200000000000006E-002    -2.7869970230612533E-027
  -6.2780000000000002E-002    -9.8743712829761225E-027
  -6.2359999999999999E-002    -1.1515960090033695E-026
  -6.1940000000000002E-002     3.3342957875340170E-027
  -6.1520000000000005E-002     3.4805715874438067E-026
  -6.1100000000000002E-002     5.7016003786309695E-026
  -6.0679999999999998E-002     2.3983118350679143E-026
  -6.0260000000000001E-002    -8.6835705413237108E-026
  -5.9840000000000004E-002    -2.1377430654889817E-025
  -5.9420000000000001E-002    -2.0086715356234707E-025
  -5.8999999999999997E-002     9.3181796354394933E-026
  -5.8580000000000000E-002     5.9221837057823154E-025
  -5.8160000000000003E-002     8.8045629534050497E-025
  -5.7740000000000000E-002     3.9284405803192585E-025
  -5.7319999999999996E-002    -1.0370074855034149E-024
  -5.6899999999999999E-002    -2.6247179387926865E-024
  -5.6480000000000002E-002    -2.7230073353515329E-024
  -5.6059999999999999E-002     4.7358049954378693E-026
  -5.5640000000000002E-002     5.0929702124232147E-024
  -5.5220000000000005E-002     8.9922170345292958E-024
  -5.4800000000000001E-002     6.9612044634722287E-024
  -5.4379999999999998E-002    -3.3368944198176275E-024
  -5.3960000000000001E-002    -1.7935018184255116E-023
  -5.3540000000000004E-002    -2.6301262960219332E-023
  -5.3120000000000001E-002    -1.6913615192005910E-023
  -5.2699999999999997E-002     1.3220775512301812E-023
  -5.2280000000000000E-002     5.1321784475933727E-023
  -5.1860000000000003E-002     7.0950534115552718E-023
  -5.1440000000000000E-002     4.5983194660593395E-023
  -5.1019999999999996E-002    -2.9233151699794059E-023
  -5.0599999999999999E-002    -1.2586761289200368E-022
  -5.0180000000000002E-002    -1.8500928478186909E-022
  -4.9759999999999999E-002    -1.4450248481268980E-022
  -4.9340000000000002E-002     2.0721251470519523E-023
  -4.8920000000000005E-002     2.6477014305187978E-022
  -4.8500000000000001E-002     4.6630683343542861E-022
  -4.8079999999999998E-002     4.6833222706230702E-022
  -4.7660000000000001E-002     1.5886548724332937E-022
  -4.7239999999999997E-002    -4.3495085351424300E-022
  -4.6820000000000001E-002    -1.0883227735088337E-021
  -4.6399999999999997E-002    -1.4109925718750138E-021
  -4.5980000000000000E-002    -1.0020351631253483E-021
  -4.5560000000000003E-002     2.9920012533656623E-022
  -4.5140000000000000E-002     2.1709832344122344E-021
  -4.4720000000000003E-002     3.7387193065429711E-021
  -4.4299999999999999E-002     3.8220358833641857E-021
  -4.3880000000000002E-002     1.5196743520706878E-021
  -4.3459999999999999E-002    -3.0589744292284556E-021
  -4.3040000000000002E-002    -8.3074842704222549E-021
  -4.2619999999999998E-002    -1.1322719937244982E-020
  -4.2200000000000001E-002    -9.0231814524847723E-021
  -4.1779999999999998E-002     4.4625604297792206E-023
  -4.1360000000000001E-002     1.3980853118034074E-020
  -4.0939999999999997E-002     2.6975871101140519E-020
  -4.0520000000000000E-002     3.0818601451320259E-020
  -4.0099999999999997E-002     1.8554946499668999E-020
  -3.9680000000000000E-002    -1.0838027085543218E-020
  -3.9260000000000003E-002    -4.8995880297848012E-020
  -3.8840000000000000E-002    -7.8465518130245652E-020
  -3.8420000000000003E-002    -7.8296104993582583E-020
  -3.7999999999999999E-002    -3.4166643291848908E-020
  -3.7580000000000002E-002     5.0564705010302008E-020
  -3.7159999999999999E-002     1.4858940359537315E-019
  -3.6740000000000002E-002     2.1269504636663634E-019
  -3.6319999999999998E-002     1.9241371627778463E-019
  -3.5900000000000001E-002     5.9699674658940870E-020
  -3.5479999999999998E-002    -1.6628538786646280E-019
  -3.5060000000000001E-002    -4.0881918419517053E-019
  -3.4639999999999997E-002    -5.4910976364054452E-019
  -3.4220000000000000E-002    -4.7005668250268304E-019
  -3.3799999999999997E-002    -1.1697160570370385E-019
  -3.3380000000000000E-002     4.4915856595206427E-019
  -3.2960000000000003E-002     1.0357518310400972E-018
  -3.2539999999999999E-002     1.3622277675299431E-018
  -3.2120000000000003E-002     1.1636340255949606E-018
  -3.1699999999999999E-002     3.2525887755673143E-019
  -3.1280000000000002E-002    -1.0062375630000049E-018
  -3.0859999999999999E-002    -2.3969951034089386E-018
  -3.0440000000000002E-002    -3.2269766004403829E-018
  -3.0019999999999998E-002    -2.9124412538169176E-018
  -2.9600000000000001E-002    -1.1851127183060395E-018
  -2.9179999999999998E-002     1.6837633795121330E-018
  -2.8760000000000001E-002     4.8347055996068101E-018
  -2.8339999999999997E-002     7.0209910580468625E-018
  -2.7920000000000000E-002     7.0393629606009977E-018
  -2.7499999999999997E-002     4.2584046465218764E-018
  -2.7080000000000000E-002    -9.6884322325848706E-019
  -2.6659999999999996E-002    -7.2245426517355774E-018
  -2.6239999999999999E-002    -1.2395457118296958E-017
  -2.5820000000000003E-002    -1.4427037044243240E-017
  -2.5399999999999999E-002    -1.2195636410617476E-017
  -2.4980000000000002E-002    -6.1049820771137672E-018
  -2.4559999999999998E-002     1.9550425089174259E-018
  -2.4140000000000002E-002     9.4240473971804898E-018
  -2.3719999999999998E-002     1.4429681824516258E-017
  -2.3300000000000001E-002     1.7082383183144103E-017
  -2.2879999999999998E-002     1.9904495014417827E-017
  -2.2460000000000001E-002     2.6740694398698117E-017
  -2.2039999999999997E-002     4.0048954211602608E-017
  -2.1620000000000000E-002     5.7315755100874060E-017
  -2.1199999999999997E-002     6.8188316696921146E-017
  -2.0780000000000000E-002     5.4372133970416058E-017
  -2.0359999999999996E-002    -5.9703236739542618E-018
  -1.9939999999999999E-002    -1.2884255196197840E-016
  -1.9519999999999996E-002    -3.1163096085813189E-016
  -1.9099999999999999E-002    -5.2078781081241740E-016
  -1.8680000000000002E-002    -6.8556623941701365E-016
  -1.8259999999999998E-002    -7.0361813276091064E-016
  -1.7840000000000002E-002    -4.6234853924035720E-016
  -1.7420000000000005E-002     1.2421465408229252E-016
  -1.7000000000000001E-002     1.0689481858710743E-015
  -1.6579999999999998E-002     2.2672497453500692E-015
  -1.6159999999999994E-002     3.4704512235153519E-015
  -1.5740000000000004E-002     4.2931343794745473E-015
  -1.5320000000000000E-002     4.2660370162630262E-015
  -1.4899999999999997E-002     2.9369528905219597E-015
  -1.4479999999999993E-002     9.1823469850562268E-018
  -1.4060000000000003E-002    -4.5066989654892916E-015
  -1.3639999999999999E-002    -1.0163312328816326E-014
  -1.3219999999999996E-002    -1.6010167055902986E-014
  -1.2799999999999992E-002    -2.0628498741551413E-014
  -1.2380000000000002E-002    -2.2292521096389187E-014
  -1.1959999999999998E-002    -1.9260929444357382E-014
  -1.1539999999999995E-002    -1.0175137843948819E-014
  -1.1120000000000005E-002     5.4884497548861890E-015
  -1.0700000000000001E-002     2.6990657468519359E-014
  -1.0279999999999997E-002     5.2022017226540820E-014
  -9.8599999999999938E-003     7.6615300090423787E-014
  -9.4400000000000039E-003     9.5364941282637740E-014
  -9.0200000000000002E-003     1.0200833325691326E-013
  -8.5999999999999965E-003     9.0372946687367460E-014
  -8.1799999999999928E-003     5.5626332771345798E-014
  -7.7600000000000030E-003    -4.3101798865076987E-015
  -7.3399999999999993E-003    -8.7398747826285000E-014
  -6.9199999999999956E-003    -1.8644751758231492E-013
  -6.4999999999999919E-003    -2.8869952337198956E-013
  -6.0800000000000021E-003    -3.7632716617756503E-013
  -5.6599999999999984E-003    -4.2802638795854506E-013
  -5.2399999999999947E-003    -4.2175627677428599E-013
  -4.8200000000000048E-003    -3.3846558521208133E-013
  -4.4000000000000011E-003    -1.6641253327849995E-013
  -3.9799999999999974E-003     9.4537942481108973E-014
  -3.5599999999999937E-003     4.2942084877300579E-013
  -3.1400000000000039E-003     8.0631827592994554E-013
  -2.7200000000000002E-003     1.1768937839767902E-012
  -2.2999999999999965E-003     1.4798131066142627E-012
  -1.8799999999999928E-003     1.6471510610117077E-012
  -1.4600000000000030E-003     1.6133944881843470E-012
  -1.0399999999999993E-003     1.3261374846925882E-012
  -6.1999999999999555E-004     7.5712208693634074E-013
  -1.9999999999999185E-004    -8.8007889879306866E-014
   2.1999999999999797E-004    -1.1629272893046020E-012
   6.4000000000000168E-004    -2.3783083174963680E-012
   1.0600000000000054E-003    -3.6049969311688431E-012
   1.4799999999999952E-003    -4.6830753253631816E-012
   1.8999999999999989E-003    -5.4364624044398905E-012
   2.3200000000000026E-003    -5.6919569359597002E-012
   2.7400000000000063E-003    -5.3009744583250663E-012
   3.1599999999999961E-003    -4.1617699848283669E-012
   3.5799999999999998E-003    -2.2396863751366113E-012
   4.0000000000000036E-003     4.1702600436797847E-013
   4.4200000000000073E-003     3.6680487974645024E-012
   4.8399999999999971E-003     7.2802736379277329E-012
   5.2600000000000008E-003     1.0936670189248605E-011
   5.6800000000000045E-003     1.4255117714610469E-011
   6.1000000000000082E-003     1.6816662418646178E-011
   6.5199999999999980E-003     1.8201669125392583E-011
   6.9400000000000017E-003     1.8031360799060887E-011
   7.3600000000000054E-003     1.6011308031483260E-011
   7.7799999999999953E-003     1.1972767461441830E-011
   8.1999999999999990E-003     5.9074949376488238E-012
   8.6200000000000027E-003    -2.0082169060622843E-012
   9.0400000000000064E-003    -1.1403706475468673E-011
   9.4599999999999962E-003    -2.1720480235538218E-011
   9.8799999999999999E-003    -3.2235637654719198E-011
   1.0300000000000004E-002    -4.2100767005102010E-011
   1.0720000000000007E-002    -5.0393329781132562E-011
   1.1139999999999997E-002    -5.6176227356806373E-011
   1.1560000000000001E-002    -5.8560784881485048E-011
   1.1980000000000005E-002    -5.6768696345416489E-011
   1.2400000000000008E-002    -5.0189471492209521E-011
   1.2819999999999998E-002    -3.8431469081652703E-011
   1.3240000000000002E-002    -2.1365980469213413E-011
   1.3660000000000005E-002     8.3485793703794951E-013
   1.4079999999999995E-002     2.7665334515418312E-011
   1.4499999999999999E-002     5.8258235834095619E-011
   1.4920000000000003E-002     9.1363140821874868E-011
   1.5340000000000006E-002     1.2533455773097269E-010
   1.5759999999999996E-002     1.5813591965479024E-010
   1.6180000000000000E-002     1.8736754220332574E-010
   1.6600000000000004E-002     2.1032705927606856E-010
   1.7020000000000007E-002     2.2411042538104695E-010
   1.7439999999999997E-002     2.2575838284445779E-010
   1.7860000000000001E-002     2.1244893527194846E-010
   1.8280000000000005E-002     1.8173114011245718E-010
   1.8700000000000008E-002     1.3178867901801885E-010
   1.9119999999999998E-002     6.1716192509783883E-011
   1.9540000000000002E-002    -2.8213154274421075E-011
   1.9960000000000006E-002    -1.3631384476146917E-010
   2.0380000000000009E-002    -2.5931324342144940E-010
   2.0799999999999999E-002    -3.9226074697171564E-010
   2.1220000000000003E-002    -5.2854118526541168E-010
   2.1640000000000006E-002    -6.6000782165266104E-010
   2.2059999999999996E-002    -7.7724315467731497E-010
   2.2480000000000000E-002    -8.6994712957587050E-010
   2.2900000000000004E-002    -9.2744404389398195E-010
   2.3320000000000007E-002    -9.3929123503445868E-010
   2.3739999999999997E-002    -8.9596273822383620E-010
   2.4160000000000001E-002    -7.8957624443376395E-010
   2.4580000000000005E-002    -6.1462526452093119E-010
   2.5000000000000008E-002    -3.6867827479899308E-010
   2.5419999999999998E-002    -5.3007808072703399E-011
   2.5840000000000002E-002     3.2688177102505006E-010
   2.6260000000000006E-002     7.6085180732133080E-010
   2.6680000000000009E-002     1.2338660151413093E-009
   2.7099999999999999E-002     1.7258718571292955E-009
   2.7520000000000003E-002     2.2118197394582608E-009
   2.7940000000000006E-002     2.6618108499555074E-009
   2.8359999999999996E-002     3.0413602748002893E-009
   2.8780000000000000E-002     3.3117596962349630E-009
   2.9200000000000004E-002     3.4305312994159465E-009
   2.9620000000000007E-002     3.3519626570402273E-009
   3.0039999999999997E-002     3.0277207700133895E-009
   3.0460000000000001E-002     2.4075364838766524E-009
   3.0880000000000005E-002     1.4399430808051011E-009
   3.1300000000000008E-002     7.3041717841736203E-011
   3.1719999999999998E-002    -1.7447605918277662E-009
   3.2140000000000002E-002    -4.0640944744973794E-009
   3.2560000000000006E-002    -6.9341353351835644E-009
   3.2980000000000009E-002    -1.0402353792184089E-008
   3.3399999999999999E-002    -1.4514590388844538E-008
   3.3820000000000003E-002    -1.9315538911087982E-008
   3.4240000000000007E-002    -2.4849678675033065E-008
   3.4659999999999996E-002    -3.1162691166511275E-008
   3.5080000000000000E-002    -3.8303322736893345E-008
   3.5500000000000004E-002    -4.6325630993695943E-008
   3.5920000000000007E-002    -5.5291598064239290E-008
   3.6339999999999997E-002    -6.5273897009139237E-008
   3.6760000000000001E-002    -7.6358923291317091E-008
   3.7180000000000005E-002    -8.8649801541358936E-008
   3.7600000000000008E-002    -1.0226945044585210E-007
   3.8019999999999998E-002    -1.1736359201589684E-007
   3.8440000000000002E-002    -1.3410370112345407E-007
   3.8860000000000006E-002    -1.5268989488816258E-007
   3.9280000000000009E-002    -1.7335391415870725E-007
   3.9699999999999999E-002    -1.9636200791713119E-007
   4.0120000000000003E-002    -2.2201807800021461E-007
   4.0540000000000007E-002    -2.5066684792588293E-007
   4.0960000000000010E-002    -2.8269696098475070E-007
   4.1380000000000000E-002    -3.1854448808621649E-007
   4.1800000000000004E-002    -3.5869644798288086E-007
   4.2220000000000008E-002    -4.0369452111005486E-007
   4.2639999999999997E-002    -4.5413861935706624E-007
   4.3060000000000001E-002    -5.1069109792968402E-007
   4.3480000000000005E-002    -5.7408073103680540E-007
   4.3900000000000008E-002    -6.4510731327362990E-007
   4.4319999999999998E-002    -7.2464596412523064E-007
   4.4740000000000002E-002    -8.1365227839828849E-007
   4.5159999999999992E-002    -9.1316720673536758E-007
   4.5579999999999996E-002    -1.0243231546551175E-006
   4.5999999999999999E-002    -1.1483500634796380E-006
   4.6420000000000003E-002    -1.2865826280710419E-006
   4.6840000000000007E-002    -1.4404675543640082E-006
   4.7260000000000010E-002    -1.6115706328378593E-006
   4.7680000000000014E-002    -1.8015857471468081E-006
   4.8099999999999990E-002    -2.0123438913115369E-006
   4.8519999999999994E-002    -2.2458239660878937E-006
   4.8939999999999997E-002    -2.5041623092879273E-006
   4.9360000000000001E-002    -2.7896628015025368E-006
   4.9780000000000005E-002    -3.1048079850795381E-006
   5.0200000000000009E-002    -3.4522697512420668E-006
   5.0620000000000012E-002    -3.8349218484284995E-006
   5.1040000000000016E-002    -4.2558512710012622E-006
   5.1459999999999992E-002    -4.7183697977580657E-006
   5.1879999999999996E-002    -5.2260274382731286E-006
   5.2299999999999999E-002    -5.7826218360783797E-006
   5.2720000000000003E-002    -6.3922129821250774E-006
   5.3140000000000007E-002    -7.0591387382233791E-006
   5.3560000000000010E-002    -7.7880253768273915E-006
   5.3980000000000014E-002    -8.5838043363888673E-006
   5.4400000000000018E-002    -9.4517220264245902E-006
   5.4819999999999994E-002    -1.0397352652523947E-005
   5.5239999999999997E-002    -1.1426616139695075E-005
   5.5660000000000001E-002    -1.2545787263143313E-005
   5.6080000000000005E-002    -1.3761501802610728E-005
   5.6500000000000009E-002    -1.5080768694102044E-005
   5.6920000000000012E-002    -1.6510968949057741E-005
   5.7340000000000016E-002    -1.8059858588486984E-005
   5.7759999999999992E-002    -1.9735581566646504E-005
   5.8179999999999996E-002    -2.1546662480231266E-005
   5.8599999999999999E-002    -2.3501997112603725E-005
   5.9020000000000003E-002    -2.5610847705641269E-005
   5.9440000000000007E-002    -2.7882821990118114E-005
   5.9860000000000010E-002    -3.0327869559036619E-005
   6.0280000000000014E-002    -3.2956270605804109E-005
   6.0700000000000018E-002    -3.5778601101028824E-005
   6.1119999999999994E-002    -3.8805719626084896E-005
   6.1539999999999997E-002    -4.2048720263188699E-005
   6.1960000000000001E-002    -4.5518898435086446E-005
   6.2380000000000005E-002    -4.9227707463060182E-005
   6.2800000000000009E-002    -5.3186735887321425E-005
   6.3220000000000012E-002    -5.7407648507134184E-005
   6.3640000000000016E-002    -6.1902136100292391E-005
   6.4059999999999992E-002    -6.6681836756253351E-005
   6.4479999999999996E-002    -7.1758277796376871E-005
   6.4899999999999999E-002    -7.7142829049102346E-005
   6.5320000000000003E-002    -8.2846626523542450E-005
   6.5740000000000007E-002    -8.8880470216852274E-005
   6.6160000000000010E-002    -9.5254738790324375E-005
   6.6580000000000014E-002    -1.0197929328307070E-004
   6.7000000000000018E-002    -1.0906341834570273E-004
   6.7419999999999994E-002    -1.1651570381315248E-004
   6.7839999999999998E-002    -1.2434393618717543E-004
   6.8260000000000001E-002    -1.3255494860212990E-004
   6.8680000000000005E-002    -1.4115448902384624E-004
   6.9100000000000009E-002    -1.5014718709111747E-004
   6.9520000000000012E-002    -1.5953631257826053E-004
   6.9940000000000016E-002    -1.6932369709403907E-004
   7.0359999999999992E-002    -1.7950954939077702E-004
   7.0779999999999996E-002    -1.9009232866814594E-004
   7.1199999999999999E-002    -2.0106858322507465E-004
   7.1620000000000003E-002    -2.1243274850491086E-004
   7.2040000000000007E-002    -2.2417706997161622E-004
   7.2460000000000011E-002    -2.3629132427546818E-004
   7.2880000000000014E-002    -2.4876276912937469E-004
   7.3300000000000018E-002    -2.6157596009859443E-004
   7.3719999999999994E-002    -2.7471251723634841E-004
   7.4139999999999998E-002    -2.8815099370608978E-004
   7.4560000000000001E-002    -3.0186675668892108E-004
   7.4980000000000005E-002    -3.1583184716608498E-004
   7.5400000000000009E-002    -3.3001480551280463E-004
   7.5820000000000012E-002    -3.4438060306013311E-004
   7.6240000000000016E-002    -3.5889044660948366E-004
   7.6659999999999992E-002    -3.7350164252935463E-004
   7.7079999999999996E-002    -3.8816768421577917E-004
   7.7499999999999999E-002    -4.0283798863637163E-004
   7.7920000000000003E-002    -4.1745799472301542E-004
   7.8340000000000007E-002    -4.3196899681138221E-004
   7.8760000000000011E-002    -4.4630808683080743E-004
   7.9180000000000014E-002    -4.6040841491528918E-004
   7.9600000000000018E-002    -4.7419902504257220E-004
   8.0019999999999994E-002    -4.8760501871165717E-004
   8.0439999999999998E-002    -5.0054753060837891E-004
   8.0860000000000001E-002    -5.1294381918318924E-004
   8.1280000000000005E-002    -5.2470738582085683E-004
   8.1700000000000009E-002    -5.3574830611054182E-004
   8.2120000000000012E-002    -5.4597340465030529E-004
   8.2540000000000016E-002    -5.5528623597841324E-004
   8.2959999999999992E-002    -5.6358757232660847E-004
   8.3379999999999996E-002    -5.7077547085285425E-004
   8.3799999999999999E-002    -5.7674599721520932E-004
   8.4220000000000003E-002    -5.8139337337388209E-004
   8.4640000000000007E-002    -5.8461041701031793E-004
   8.5060000000000011E-002    -5.8628883043407342E-004
   8.5480000000000014E-002    -5.8631953377999185E-004
   8.5900000000000018E-002    -5.8459338546479887E-004
   8.6319999999999994E-002    -5.8100156091203572E-004
   8.6739999999999998E-002    -5.7543646371947213E-004
   8.7160000000000001E-002    -5.6779213977830440E-004
   8.7580000000000005E-002    -5.5796460246098798E-004
   8.8000000000000009E-002    -5.4585272090050530E-004
   8.8420000000000012E-002    -5.3135860156692540E-004
   8.8840000000000016E-002    -5.1438891899780381E-004
   8.9259999999999992E-002    -4.9485502870491951E-004
   8.9679999999999996E-002    -4.7267392362132423E-004
   9.0100000000000000E-002    -4.4776861919999198E-004
   9.0520000000000003E-002    -4.2006886558415964E-004
   9.0940000000000007E-002    -3.8951198694754977E-004
   9.1360000000000011E-002    -3.5604367833202288E-004
   9.1780000000000014E-002    -3.1961877276348572E-004
   9.2200000000000018E-002    -2.8020204572128652E-004
   9.2619999999999994E-002    -2.3776877256471740E-004
   9.3039999999999998E-002    -1.9230512479612643E-004
   9.3460000000000001E-002    -1.4380889671787483E-004
   9.3880000000000005E-002    -9.2290109967914250E-005
   9.4300000000000009E-002    -3.7771714493362270E-005
   9.4720000000000013E-002     1.9709883736041317E-005
   9.5140000000000016E-002     8.0104481563084688E-005
   9.5559999999999992E-002     1.4334797159797904E-004
   9.5979999999999996E-002     2.0936181664401020E-004
   9.6400000000000000E-002     2.7805258651146314E-004
   9.6820000000000003E-002     3.4931150691604705E-004
   9.7240000000000007E-002     4.2301401208691305E-004
   9.7660000000000011E-002     4.9901999352441548E-004
   9.8080000000000014E-002     5.7717405948410380E-004
   9.8500000000000018E-002     6.5730539066908655E-004
   9.8919999999999994E-002     7.3922836181649623E-004
   9.9339999999999998E-002     8.2274204016253097E-004
   9.9760000000000001E-002     9.0763057688996384E-004
  0.10018000000000001          9.9366348074170067E-004
  0.10060000000000001          1.0805963634644056E-003
  0.10102000000000001          1.1681716701098454E-003
  0.10144000000000002          1.2561192069161819E-003
  0.10185999999999999          1.3441562285082392E-003
  0.10228000000000000          1.4319887779745233E-003
  0.10270000000000000          1.5193119262191699E-003
  0.10312000000000000          1.6058115626809380E-003
  0.10354000000000001          1.6911657445908375E-003
  0.10396000000000001          1.7750448118182471E-003
  0.10438000000000001          1.8571136021866294E-003
  0.10480000000000002          1.9370320208781941E-003
  0.10521999999999999          2.0144567382483717E-003
  0.10564000000000000          2.0890418935251968E-003
  0.10606000000000000          2.1604408192016510E-003
  0.10648000000000001          2.2283087775758744E-003
  0.10690000000000001          2.2923033750914274E-003
  0.10732000000000001          2.3520863096875731E-003
  0.10774000000000002          2.4073245418375958E-003
  0.10815999999999999          2.4576916246360015E-003
  0.10858000000000000          2.5028698348906757E-003
  0.10900000000000000          2.5425530470617043E-003
  0.10942000000000000          2.5764469373716296E-003
  0.10984000000000001          2.6042716130920238E-003
  0.11026000000000001          2.6257622850237848E-003
  0.11068000000000001          2.6406707583585803E-003
  0.11110000000000002          2.6487668771156599E-003
  0.11151999999999999          2.6498406770386596E-003
  0.11194000000000000          2.6437038422462648E-003
  0.11236000000000000          2.6301913710605153E-003
  0.11278000000000001          2.6091608434371141E-003
  0.11320000000000001          2.5804945823590473E-003
  0.11362000000000001          2.5441012823878275E-003
  0.11404000000000002          2.4999164262732455E-003
  0.11446000000000002          2.4479055400621510E-003
  0.11488000000000000          2.3880628382268909E-003
  0.11530000000000000          2.3204113786024806E-003
  0.11572000000000000          2.2450044200156179E-003
  0.11614000000000001          2.1619250807331141E-003
  0.11656000000000001          2.0712877995529505E-003
  0.11698000000000001          1.9732393168898129E-003
  0.11740000000000002          1.8679568721350758E-003
  0.11781999999999999          1.7556480990923123E-003
  0.11824000000000000          1.6365499152746629E-003
  0.11866000000000000          1.5109291679376421E-003
  0.11908000000000001          1.3790825214458349E-003
  0.11950000000000001          1.2413367260567514E-003
  0.11992000000000001          1.0980464825617526E-003
  0.12034000000000002          9.4959281960985522E-004
  0.12076000000000002          7.9638123028591933E-004
  0.12118000000000000          6.3884121932414849E-004
  0.12160000000000000          4.7742557013472168E-004
  0.12202000000000000          3.1260893012975417E-004
  0.12244000000000001          1.4488604236338734E-004
  0.12286000000000001         -2.5231315870985275E-005
  0.12328000000000001         -1.9721686740212146E-004
  0.12370000000000002         -3.7053156568475084E-004
  0.12411999999999999         -5.4462481408219863E-004
  0.12454000000000000         -7.1893571030056378E-004
  0.12496000000000000         -8.9289594270828773E-004
  0.12537999999999999         -1.0659332944394624E-003
  0.12580000000000002         -1.2374742979901004E-003
  0.12622000000000000         -1.4069469107861532E-003
  0.12664000000000003         -1.5737823060383532E-003
  0.12706000000000001         -1.7374162880038257E-003
  0.12747999999999998         -1.8972914074041338E-003
  0.12790000000000001         -2.0528610867044605E-003
  0.12831999999999999         -2.2035926070066380E-003
  0.12874000000000002         -2.3489692711177227E-003
  0.12916000000000000         -2.4884927681014862E-003
  0.12958000000000003         -2.6216850645286020E-003
  0.13000000000000000         -2.7480895338540057E-003
  0.13041999999999998         -2.8672735288921424E-003
  0.13084000000000001         -2.9788313511037745E-003
  0.13125999999999999         -3.0823866293955963E-003
  0.13168000000000002         -3.1775945036385447E-003
  0.13210000000000000         -3.2641417775009806E-003
  0.13252000000000003         -3.3417475174952155E-003
  0.13294000000000000         -3.4101645922221938E-003
  0.13336000000000003         -3.4691810038007405E-003
  0.13378000000000001         -3.5186230904323823E-003
  0.13419999999999999         -3.5583560162573457E-003
  0.13462000000000002         -3.5882837679725387E-003
  0.13503999999999999         -3.6083484673316720E-003
  0.13546000000000002         -3.6185295458972377E-003
  0.13588000000000000         -3.6188439561265855E-003
  0.13630000000000003         -3.6093496592170958E-003
  0.13672000000000001         -3.5901437327050564E-003
  0.13713999999999998         -3.5613617537360752E-003
  0.13756000000000002         -3.5231757040739436E-003
  0.13797999999999999         -3.4757902396351280E-003
  0.13840000000000002         -3.4194449149054064E-003
  0.13882000000000000         -3.3544136496672979E-003
  0.13924000000000003         -3.2810040336765712E-003
  0.13966000000000001         -3.1995545817675992E-003
  0.14007999999999998         -3.1104316847306223E-003
  0.14050000000000001         -3.0140266274657729E-003
  0.14091999999999999         -2.9107551090866669E-003
  0.14134000000000002         -2.8010556144396821E-003
  0.14176000000000000         -2.6853886047783940E-003
  0.14218000000000003         -2.5642329009991018E-003
  0.14260000000000000         -2.4380816187229400E-003
  0.14301999999999998         -2.3074394784488449E-003
  0.14344000000000001         -2.1728198397071206E-003
  0.14385999999999999         -2.0347447746856318E-003
  0.14428000000000002         -1.8937425481388836E-003
  0.14470000000000000         -1.7503451500622109E-003
  0.14512000000000003         -1.6050841990145896E-003
  0.14554000000000000         -1.4584876409245826E-003
  0.14596000000000003         -1.3110782797655012E-003
  0.14638000000000001         -1.1633722042449636E-003
  0.14679999999999999         -1.0158773080159954E-003
  0.14722000000000002         -8.6909002819003179E-004
  0.14763999999999999         -7.2349281183543401E-004
  0.14806000000000002         -5.7955113910770841E-004
  0.14848000000000000         -4.3771209174909632E-004
  0.14890000000000003         -2.9840344207231515E-004