  -8.0000000000000002E-002     0.0000000000000000
  -7.9579999999999998E-002     0.0000000000000000
  -7.9160000000000008E-002     0.0000000000000000
  -7.8740000000000004E-002     0.0000000000000000
  -7.8320000000000001E-002     0.0000000000000000
  -7.7899999999999997E-002     0.0000000000000000
  -7.7480000000000007E-002     0.0000000000000000
  -7.7060000000000003E-002     0.0000000000000000
  -7.6640000000000000E-002     0.0000000000000000
  -7.6219999999999996E-002     0.0000000000000000
  -7.5800000000000006E-002     0.0000000000000000
  -7.5380000000000003E-002     0.0000000000000000
  -7.4959999999999999E-002     0.0000000000000000
  -7.4539999999999995E-002     0.0000000000000000
  -7.4120000000000005E-002     0.0000000000000000
  -7.3700000000000002E-002     0.0000000000000000
  -7.3279999999999998E-002     0.0000000000000000
  -7.2860000000000008E-002     0.0000000000000000
  -7.2440000000000004E-002     0.0000000000000000
  -7.2020000000000001E-002     0.0000000000000000
  -7.1599999999999997E-002     0.0000000000000000
  -7.1180000000000007E-002     0.0000000000000000
  -7.0760000000000003E-002     0.0000000000000000
  -7.0340000000000000E-002     0.0000000000000000
  -6.9919999999999996E-002     0.0000000000000000
  -6.9500000000000006E-002     0.0000000000000000
  -6.9080000000000003E-002     0.0000000000000000
  -6.8659999999999999E-002    -6.1269553317556393E-047
  -6.8239999999999995E-002    -6.6090101275448617E-047
  -6.7820000000000005E-002    -1.9943638503333606E-046
  -6.7400000000000002E-002    -3.7933870001444497E-046
  -6.6979999999999998E-002    -5.7904342856920337E-046
  -6.6560000000000008E-002    -5.7301779325493520E-046
  -6.6140000000000004E-002    -2.6919581590880607E-047
  -6.5720000000000001E-002     1.7987637759731885E-045
  -6.5299999999999997E-002     6.6207455094891632E-045
  -6.4879999999999993E-002     1.6398633352499418E-044
  -6.4460000000000003E-002     3.3163278431488477E-044
  -6.4040000000000000E-002     5.4028576773846440E-044
  -6.3619999999999996E-002     7.2542387986940800E-044
  -6.3200000000000006E-002     6.2662641786540610E-044
  -6.2780000000000002E-002    -2.3151694592340024E-044
  -6.2359999999999999E-002    -2.6238933960473385E-043
  -6.1940000000000002E-002    -7.5274221544974865E-043
  -6.1520000000000005E-002    -1.5645390709612004E-042
  -6.1100000000000002E-002    -2.6432535200330738E-042
  -6.0679999999999998E-002    -3.6257131338100243E-042
  -6.0260000000000001E-002    -3.6034317756630003E-042
  -5.9840000000000004E-002    -8.8852632432890144E-043
  -5.9420000000000001E-002     7.0150503284856190E-042
  -5.8999999999999997E-002     2.2909408987759924E-041
  -5.8580000000000000E-002     4.8440043373971618E-041
  -5.8160000000000003E-002     8.1242484671577437E-041
  -5.7740000000000000E-002     1.1064038578454344E-040
  -5.7319999999999996E-002     1.1268824861021096E-040
  -5.6899999999999999E-002     4.6824974183990791E-041
  -5.6480000000000002E-002    -1.4161450579898153E-040
  -5.6059999999999999E-002    -5.0698012785888535E-040
  -5.5640000000000002E-002    -1.0704973804152541E-039
  -5.5220000000000005E-002    -1.7655358519084585E-039
  -5.4800000000000001E-002    -2.3657913619135431E-039
  -5.4379999999999998E-002    -2.4165771310183074E-039
  -5.3960000000000001E-002    -1.2107311903631265E-039
  -5.3540000000000004E-002     2.1270514564933813E-039
  -5.3120000000000001E-002     8.3713103134849056E-039
  -5.2699999999999997E-002     1.7680462896484251E-038
  -5.2280000000000000E-002     2.8833763055509263E-038
  -5.1860000000000003E-002     3.8341877388118036E-038
  -5.1440000000000000E-002     3.9737166699682019E-038
  -5.1019999999999996E-002     2.3566776571919189E-038
  -5.0599999999999999E-002    -2.1210504741036344E-038
  -5.0180000000000002E-002    -1.0370208969873131E-037
  -4.9759999999999999E-002    -2.2500168933973192E-037
  -4.9340000000000002E-002    -3.6986257595478485E-037
  -4.8920000000000005E-002    -4.9770313775489123E-037
  -4.8500000000000001E-002    -5.3623040787746714E-037
  -4.8079999999999998E-002    -3.8274637816542090E-037
  -4.7660000000000001E-002     8.0597753916638326E-038
  -4.7239999999999997E-002     9.5170422090455070E-037
  -4.6820000000000001E-002     2.2507392958548843E-036
  -4.6399999999999997E-002     3.8434855974281190E-036
  -4.5980000000000000E-002     5.3602484789674915E-036
  -4.5560000000000003E-002     6.1381939019456364E-036
  -4.5140000000000000E-002     5.2285063696298916E-036
  -4.4720000000000003E-002     1.5182363012459587E-036
  -4.4299999999999999E-002    -5.9868638243847483E-036
  -4.3880000000000002E-002    -1.7695446587523061E-035
  -4.3459999999999999E-002    -3.2805957070559823E-035
  -4.3040000000000002E-002    -4.8627935345706772E-035
  -4.2619999999999998E-002    -6.0050631572977836E-035
  -4.2200000000000001E-002    -5.9459615988057466E-035
  -4.1779999999999998E-002    -3.7468675862510377E-035
  -4.1360000000000001E-002     1.5178164419268559E-035
  -4.0939999999999997E-002     1.0432332921404451E-034
  -4.0520000000000000E-002     2.2783836618658612E-034
  -4.0099999999999997E-002     3.7040702169725746E-034
  -3.9680000000000000E-002     4.9891855155071460E-034
  -3.9260000000000003E-002     5.6043000065039267E-034
  -3.8840000000000000E-002     4.8517149726403768E-034
  -3.8420000000000003E-002     1.9712302594300715E-034
  -3.7999999999999999E-002    -3.6602710109020160E-034
  -3.7580000000000002E-002    -1.2235248261828181E-033
  -3.7159999999999999E-002    -2.3157094129602525E-033
  -3.6740000000000002E-002    -3.4685766362049055E-033
  -3.6319999999999998E-002    -4.3699447890035860E-033
  -3.5900000000000001E-002    -4.5720426937816921E-033
  -3.5479999999999998E-002    -3.5367401623330623E-033
  -3.5060000000000001E-002    -7.3697226516109179E-034
  -3.4639999999999997E-002     4.1803355376564123E-033
  -3.4220000000000000E-002     1.1179308973815607E-032
  -3.3799999999999997E-002     1.9598377376267595E-032
  -3.3380000000000000E-002     2.7946290314425863E-032
  -3.2960000000000003E-002     3.3808254480257241E-032
  -3.2539999999999999E-002     3.3954009418258965E-032
  -3.2120000000000003E-002     2.4736769466294045E-032
  -3.1699999999999999E-002     2.8434186434533870E-033
  -3.1280000000000002E-002    -3.3604426661508834E-032
  -3.0859999999999999E-002    -8.3692506206805762E-032
  -3.0440000000000002E-002    -1.4231352908846442E-031
  -3.0019999999999998E-002    -1.9906741845949068E-031
  -2.9600000000000001E-002    -2.3791572858808250E-031
  -2.9179999999999998E-002    -2.3809651120446113E-031
  -2.8760000000000001E-002    -1.7676109286188850E-031
  -2.8339999999999997E-002    -3.3606722930420012E-032
  -2.7920000000000000E-002     2.0256589257072068E-031
  -2.7499999999999997E-002     5.2596007609617283E-031
  -2.7080000000000000E-002     9.0577852801367637E-031
  -2.6659999999999996E-002     1.2800031394438266E-030
  -2.6239999999999999E-002     1.5534158608258474E-030
  -2.5820000000000003E-002     1.6025918442849200E-030
  -2.5399999999999999E-002     1.2903459308317060E-030
  -2.4980000000000002E-002     4.9116027515196775E-031
  -2.4559999999999998E-002    -8.7266568132266529E-031
  -2.4140000000000002E-002    -2.7870932176961243E-030
  -2.3719999999999998E-002    -5.1008649959240445E-030
  -2.3300000000000001E-002    -7.4882803278533888E-030
  -2.2879999999999998E-002    -9.4330919616882740E-030
  -2.2460000000000001E-002    -1.0248061899849678E-029
  -2.2039999999999997E-002    -9.1437684078028934E-030
  -2.1620000000000000E-002    -5.3560002007149630E-030
  -2.1199999999999997E-002     1.6677816118571156E-030
  -2.0780000000000000E-002     1.2035435751851031E-029
  -2.0359999999999996E-002     2.5159827509397543E-029
  -1.9939999999999999E-002     3.9538502094741596E-029
  -1.9519999999999996E-002     5.2627095994433777E-029
  -1.9099999999999999E-002     6.0880247108820809E-029
  -1.8680000000000002E-002     6.0032283162554633E-029
  -1.8259999999999998E-002     4.5671934820907012E-029
  -1.7840000000000002E-002     1.4127566268537367E-029
  -1.7420000000000005E-002    -3.6381359413484882E-029
  -1.7000000000000001E-002    -1.0444640109732535E-028
  -1.6579999999999998E-002    -1.8423450020567619E-028
  -1.6159999999999994E-002    -2.6460551339172465E-028
  -1.5740000000000004E-002    -3.2893377550447259E-028
  -1.5320000000000000E-002    -3.5599423324249145E-028
  -1.4899999999999997E-002    -3.2222002388659064E-028
  -1.4479999999999993E-002    -2.0548802073457013E-028
  -1.4060000000000003E-002     9.6553394736782757E-030
  -1.3639999999999999E-002     3.2574840684264807E-028
  -1.3219999999999996E-002     7.2595995275696503E-028
  -1.2799999999999992E-002     1.1686529914284541E-027
  -1.2380000000000002E-002     1.5845102129000010E-027
  -1.1959999999999998E-002     1.8779291231255871E-027
  -1.1539999999999995E-002     1.9342904815598489E-027
  -1.1120000000000005E-002     1.6342237222863908E-027
  -1.0700000000000001E-002     8.7505896606892901E-028
  -1.0279999999999997E-002    -4.0163790995751153E-028
  -9.8599999999999938E-003    -2.1792410202484476E-027
  -9.4400000000000039E-003    -4.3365898646704971E-027
  -9.0200000000000002E-003    -6.6261607605047390E-027
  -8.5999999999999965E-003    -8.6673342700451892E-027
  -8.1799999999999928E-003    -9.9623387669058606E-027
  -7.7600000000000030E-003    -9.9413176240589940E-027
  -7.3399999999999993E-003    -8.0397963533623041E-027
  -6.9199999999999956E-003    -3.8072974278966191E-027
  -6.4999999999999919E-003     2.9609446193255558E-027
  -6.0800000000000021E-003     1.2084247085023048E-026
  -5.6599999999999984E-003     2.2871878055440169E-026
  -5.2399999999999947E-003     3.4042447030578594E-026
  -4.8200000000000048E-003     4.3719411800505831E-026
  -4.4000000000000011E-003     4.9533392531946739E-026
  -3.9799999999999974E-003     4.8853795595913916E-026
  -3.5599999999999937E-003     3.9157840242677885E-026
  -3.1400000000000039E-003     1.8523131374409689E-026
  -2.7200000000000002E-003    -1.3797238554443737E-026
  -2.2999999999999965E-003    -5.6787533904362346E-026
  -1.8799999999999928E-003    -1.0716860346877129E-025
  -1.4600000000000030E-003    -1.5910244060262263E-025
  -1.0399999999999993E-003    -2.0422941725692228E-025
  -6.1999999999999555E-004    -2.3215148942805703E-025
  -1.9999999999999185E-004    -2.3144183662485034E-025
   2.1999999999999797E-004    -1.9119946111716207E-025
   6.4000000000000168E-004    -1.0308013019150865E-025
   1.0600000000000054E-003     3.6362435390964756E-026
   1.4799999999999952E-003     2.2330826426579921E-025
   1.8999999999999989E-003     4.4465352714400307E-025
   2.3200000000000026E-003     6.7679966244917428E-025
   2.7400000000000063E-003     8.8572672938479403E-025
   3.1599999999999961E-003     1.0287868163305099E-024
   3.5799999999999998E-003     1.0585220685933228E-024
   4.0000000000000036E-003     9.2859009046713184E-025
   4.4200000000000073E-003     6.0158323838425854E-025
   4.8399999999999971E-003     5.8128993378624138E-026
   5.2600000000000008E-003    -6.9370688923936074E-025
   5.6800000000000045E-003    -1.6101205530553782E-024
   6.1000000000000082E-003    -2.6060120064302085E-024
   6.5199999999999980E-003    -3.5539860141689324E-024
   6.9400000000000017E-003    -4.2895904869680365E-024
   7.3600000000000054E-003    -4.6240602204188575E-024
   7.7799999999999953E-003    -4.3650794227532480E-024
   8.1999999999999990E-003    -3.3450734075824671E-024
   8.6200000000000027E-003    -1.4551518806614649E-024
   9.0400000000000064E-003     1.3185611401920621E-024
   9.4599999999999962E-003     4.8609807754653075E-024
   9.8799999999999999E-003     8.9023363552782310E-024
   1.0300000000000004E-002     1.3007251395894411E-023
   1.0720000000000007E-002     1.6585009115047387E-023
   1.1139999999999997E-002     1.8926294206250328E-023
   1.1560000000000001E-002     1.9269434433445454E-023
   1.1980000000000005E-002     1.6895658881186244E-023
   1.2400000000000008E-002     1.1248678337817923E-023
   1.2819999999999998E-002     2.0685634215041116E-024
   1.3240000000000002E-002    -1.0475137450965205E-023
   1.3660000000000005E-002    -2.5670678878807071E-023
   1.4079999999999995E-002    -4.2194508648376402E-023
   1.4499999999999999E-002    -5.8108472308210355E-023
   1.4920000000000003E-002    -7.0944288068314772E-023
   1.5340000000000006E-002    -7.7890382866519244E-023
   1.5759999999999996E-002    -7.6085271264712645E-023
   1.6180000000000000E-002    -6.3008093313230188E-023
   1.6600000000000004E-002    -3.6939117755645168E-023
   1.7020000000000007E-002     2.5531611689349035E-024
   1.7439999999999997E-002     5.4160690710950178E-023
   1.7860000000000001E-002     1.1449309946894157E-022
   1.8280000000000005E-002     1.7792505948316918E-022
   1.8700000000000008E-002     2.3670999673919386E-022
   1.9119999999999998E-002     2.8141951266039553E-022
   1.9540000000000002E-002     3.0174353954774573E-022
   1.9960000000000006E-002     2.8763936322706215E-022
   2.0380000000000009E-002     2.3077242484632461E-022
   2.0799999999999999E-002     1.2612969992552873E-022
   2.1220000000000003E-002    -2.6366719069670282E-023
   2.1640000000000006E-002    -2.2046078221432779E-022
   2.2059999999999996E-002    -4.4263209883238657E-022
   2.2480000000000000E-002    -6.7187549430728587E-022
   2.2900000000000004E-002    -8.8041340564107442E-022
   2.3320000000000007E-002    -1.0354830086861052E-021
   2.3739999999999997E-002    -1.1022453104263017E-021
   2.4160000000000001E-002    -1.0477192878199097E-021
   2.4580000000000005E-002    -8.4548721309706780E-022
   2.5000000000000008E-002    -4.8075476823449545E-022
   2.5419999999999998E-002     4.4785715849927409E-023
   2.5840000000000002E-002     7.0895596676491517E-022
   2.6260000000000006E-002     1.4666833766675054E-021
   2.6680000000000009E-002     2.2498062094683865E-021
   2.7099999999999999E-002     2.9697101729258221E-021
   2.7520000000000003E-002     3.5230571214607909E-021
   2.7940000000000006E-002     3.8006462697256120E-021
   2.8359999999999996E-002     3.6990325288791459E-021
   2.8780000000000000E-002     3.1341647089201953E-021
   2.9200000000000004E-002     2.0558013734051993E-021
   2.9620000000000007E-002     4.6129352507412913E-022
   3.0039999999999997E-002    -1.5931219198529294E-021
   3.0460000000000001E-002    -3.9852192544386008E-021
   3.0880000000000005E-002    -6.5256099483301066E-021
   3.1300000000000008E-002    -8.9639174170866879E-021
   3.1719999999999998E-002    -1.1002979518013250E-020
   3.2140000000000002E-002    -1.2321233382465650E-020
   3.2560000000000006E-002    -1.2602478288827599E-020
   3.2980000000000009E-002    -1.1571297725082768E-020
   3.3399999999999999E-002    -9.0313560441962218E-021
   3.3820000000000003E-002    -4.9033971512609955E-021
   3.4240000000000007E-002     7.4152680233865925E-022
   3.4659999999999996E-002     7.6573505924291280E-021
   3.5080000000000000E-002     1.5411491267441568E-020
   3.5500000000000004E-002     2.3389649409934576E-020
   3.5920000000000007E-002     3.0820070345055702E-020
   3.6339999999999997E-002     3.6817898536149028E-020
   3.6760000000000001E-002     4.0449626491749643E-020
   3.7180000000000005E-002     4.0815092373816441E-020
   3.7600000000000008E-002     3.7142187208278546E-020
   3.8019999999999998E-002     2.8888057749699243E-020
   3.8440000000000002E-002     1.5839057780896810E-020
   3.8860000000000006E-002    -1.8009338746871965E-021
   3.9280000000000009E-002    -2.3343272857973788E-020
   3.9699999999999999E-002    -4.7578531813183311E-020
   4.0120000000000003E-002    -7.2780950145671794E-020
   4.0540000000000007E-002    -9.6761170311983901E-020
   4.0960000000000010E-002    -1.1697115094789010E-019
   4.1380000000000000E-002    -1.3066222125957912E-019
   4.1800000000000004E-002    -1.3509343976326397E-019
   4.2220000000000008E-002    -1.2778108167538931E-019
   4.2639999999999997E-002    -1.0677673752544297E-019
   4.3060000000000001E-002    -7.0954041962736801E-020
   4.3480000000000005E-002    -2.0284628354112501E-020
   4.3900000000000008E-002     4.3927701089447098E-020
   4.4319999999999998E-002     1.1887696326136202E-019
   4.4740000000000002E-002     2.0018043251919936E-019
   4.5159999999999992E-002     2.8192423876569898E-019
   4.5579999999999996E-002     3.5684787309071883E-019
   4.5999999999999999E-002     4.1668375773278972E-019
   4.6420000000000003E-002     4.5265588255603319E-019
   4.6840000000000007E-002     4.5612831010376641E-019
   4.7260000000000010E-002     4.1938181205236133E-019
   4.7680000000000014E-002     3.3648651131765870E-019
   4.8099999999999990E-002     2.0421686231010242E-019
   4.8519999999999994E-002     2.2937281265934965E-020
   4.8939999999999997E-002    -2.0260964427908597E-019
   4.9360000000000001E-002    -4.6271536520458015E-019
   4.9780000000000005E-002    -7.4240784030770131E-019
   5.0200000000000009E-002    -1.0215415211854055E-018
   5.0620000000000012E-002    -1.2753637107505910E-018
   5.1040000000000016E-002    -1.4756230984033148E-018
   5.1459999999999992E-002    -1.5922504814287917E-018
   5.1879999999999996E-002    -1.5956131764240083E-018
   5.2299999999999999E-002    -1.4592557406875541E-018
   5.2720000000000003E-002    -1.1630296305202149E-018
   5.3140000000000007E-002    -6.9635788184476134E-019
   5.3560000000000010E-002    -6.1409091632615629E-020
   5.3980000000000014E-002     7.2417872647668082E-019
   5.4400000000000018E-002     1.6253950537262001E-018
   5.4819999999999994E-002     2.5891421433370271E-018
   5.5239999999999997E-002     3.5450567001021076E-018
   5.5660000000000001E-002     4.4081376988324557E-018
   5.6080000000000005E-002     5.0833025672004051E-018
   5.6500000000000009E-002     5.4718615498906463E-018
   5.6920000000000012E-002     5.4796311980050124E-018
   5.7340000000000016E-002     5.0262240421912172E-018
   5.7759999999999992E-002     4.0548641490439680E-018
   5.8179999999999996E-002     2.5418322765826553E-018
   5.8599999999999999E-002     5.0459803775430438E-019
   5.9020000000000003E-002    -1.9923882544433691E-018
   5.9440000000000007E-002    -4.8351384588042817E-018
   5.9860000000000010E-002    -7.8614497841477444E-018
   6.0280000000000014E-002    -1.0866494175971989E-017
   6.0700000000000018E-002    -1.3612781268183799E-017
   6.1119999999999994E-002    -1.5843915374209162E-017
   6.1539999999999997E-002    -1.7301346743237185E-017
   6.1960000000000001E-002    -1.7742910493223250E-017
   6.2380000000000005E-002    -1.6961686524454003E-017
   6.2800000000000009E-002    -1.4803894613646722E-017
   6.3220000000000012E-002    -1.1184171812814427E-017
   6.3640000000000016E-002    -6.0975521623757600E-018
   6.4059999999999992E-002     3.7244863586473086E-019
   6.4479999999999996E-002     8.0497286906239980E-018
   6.4899999999999999E-002     1.6665008801662020E-017
   6.5320000000000003E-002     2.5857764305102784E-017
   6.5740000000000007E-002     3.5179775952445071E-017
   6.6160000000000010E-002     4.4099688568565528E-017
   6.6580000000000014E-002     5.2008582493778139E-017
   6.7000000000000018E-002     5.8226823254508531E-017
   6.7419999999999994E-002     6.2014898019685752E-017
   6.7839999999999998E-002     6.2590411706186845E-017
   6.8260000000000001E-002     5.9155995027987826E-017
   6.8680000000000005E-002     5.0940878494593559E-017
   6.9100000000000009E-002     3.7262288549461520E-017
   6.9520000000000012E-002     1.7606366377222478E-017
   6.9940000000000016E-002    -8.2697351962656872E-018
   7.0359999999999992E-002    -4.0219037816638029E-017
   7.0779999999999996E-002    -7.7577157944690126E-017
   7.1199999999999999E-002    -1.1903874581095940E-016
   7.1620000000000003E-002    -1.6255487000573744E-016
   7.2040000000000007E-002    -2.0527242435820943E-016
   7.2460000000000011E-002    -2.4353722905786482E-016
   7.2880000000000014E-002    -2.7298124411918752E-016
   7.3300000000000018E-002    -2.8871666188313502E-016
   7.3719999999999994E-002    -2.8564033399377689E-016
   7.4139999999999998E-002    -2.5885132903299869E-016
   7.4560000000000001E-002    -2.0417499792446521E-016
   7.4980000000000005E-002    -1.1875521951057778E-016
   7.5400000000000009E-002    -1.6818626340658209E-018
   7.5820000000000012E-002     1.4540444841989479E-016
   7.6240000000000016E-002     3.1780435727026651E-016
   7.6659999999999992E-002     5.0740858875740568E-016
   7.7079999999999996E-002     7.0258865469381162E-016
   7.7499999999999999E-002     8.8838143117071434E-016
   7.7920000000000003E-002     1.0470335318201910E-015
   7.8340000000000007E-002     1.1589055823816116E-015
   7.8760000000000011E-002     1.2037677484904741E-015
   7.9180000000000014E-002     1.1624045499008533E-015
   7.9600000000000018E-002     1.0184950499083805E-015
   8.0019999999999994E-002     7.6062538663587214E-016
   8.0439999999999998E-002     3.8429497607915942E-016
   8.0860000000000001E-002    -1.0625310309122407E-016
   8.1280000000000005E-002    -6.9656879369138390E-016
   8.1700000000000009E-002    -1.3610792951288827E-015
   8.2120000000000012E-002    -2.0629370405788477E-015
   8.2540000000000016E-002    -2.7547177250826536E-015
   8.2959999999999992E-002    -3.3801611724917772E-015
   8.3379999999999996E-002    -3.8768914074289393E-015
   8.3799999999999999E-002    -4.1802094594176221E-015
   8.4220000000000003E-002    -4.2277105977960371E-015
   8.4640000000000007E-002    -3.9646683741750165E-015
   8.5060000000000011E-002    -3.3497367815373073E-015
   8.5480000000000014E-002    -2.3607186621998065E-015
   8.5900000000000018E-002    -9.9988540669033151E-016
   8.6319999999999994E-002     7.0160018906507062E-016
   8.6739999999999998E-002     2.6807957828541213E-015
   8.7160000000000001E-002     4.8418868588546497E-015
   8.7580000000000005E-002     7.0575943323052042E-015
   8.8000000000000009E-002     9.1731486057574128E-015
   8.8420000000000012E-002     1.1013205553994489E-014
   8.8840000000000016E-002     1.2391568274269462E-014
   8.9259999999999992E-002     1.3123470079776273E-014
   8.9679999999999996E-002     1.3039998313560581E-014
   9.0100000000000000E-002     1.2003626465533663E-014
   9.0520000000000003E-002     9.9242681205405876E-015
   9.0940000000000007E-002     6.7743207246720712E-015
   9.1360000000000011E-002     2.6012393566361872E-015
   9.1780000000000014E-002    -2.4632979113688149E-015
   9.2200000000000018E-002    -8.1994032299707373E-015
   9.2619999999999994E-002    -1.4301370913711840E-014
   9.3039999999999998E-002    -2.0386690504790943E-014
   9.3460000000000001E-002    -2.6013147958625485E-014
   9.3880000000000005E-002    -3.0702848585345592E-014
   9.4300000000000009E-002    -3.3973076614967715E-014
   9.4720000000000013E-002    -3.5372509399265288E-014
   9.5140000000000016E-002    -3.4520681839598562E-014
   9.5559999999999992E-002    -3.1147698071571245E-014
   9.5979999999999996E-002    -2.5131991878867307E-014
   9.6400000000000000E-002    -1.6531843563708147E-014
   9.6820000000000003E-002    -5.6078127751501528E-015
   9.7240000000000007E-002     7.1678595163624896E-015
   9.7660000000000011E-002     2.1116428517907709E-014
   9.8080000000000014E-002     3.5374852927026272E-014
   9.8500000000000018E-002     4.8937255977239665E-014
   9.8919999999999994E-002     6.0712500285041678E-014
   9.9339999999999998E-002     6.9597980800156282E-014
   9.9760000000000001E-002     7.4565701716152229E-014
  0.10018000000000001          7.4754946170939093E-014
  0.10060000000000001          6.9566098702224347E-014
  0.10102000000000001          5.8748910745523017E-014
  0.10144000000000002          4.2474278356470826E-014
  0.10185999999999999          2.1384319942344275E-014
  0.10228000000000000         -3.3882600576268409E-015
  0.10270000000000000         -3.0237146886023201E-014
  0.10312000000000000         -5.7142823671816186E-014
  0.10354000000000001         -8.1774643566893917E-014
  0.10396000000000001         -1.0163920399481263E-013
  0.10438000000000001         -1.1426518312514789E-013
  0.10480000000000002         -1.1741902372554776E-013
  0.10521999999999999         -1.0934161367419923E-013
  0.10564000000000000         -8.8984891052606117E-014
  0.10606000000000000         -5.6235798005273006E-014
  0.10648000000000001         -1.2103600507962407E-014
  0.10690000000000001          4.1151454311266827E-014
  0.10732000000000001          9.9964992426479279E-014
  0.10774000000000002          1.5951623061239527E-013
  0.10815999999999999          2.1388359357954682E-013
  0.10858000000000000          2.5632336509016764E-013
  0.10900000000000000          2.7966576968941701E-013
  0.10942000000000000          2.7683267196058065E-013
  0.10984000000000001          2.4144767531633440E-013
  0.11026000000000001          1.6850629760920159E-013
  0.11068000000000001          5.5093313124439083E-014
  0.11110000000000002         -9.8928956816461873E-014
  0.11151999999999999         -2.9029465886657183E-013
  0.11194000000000000         -5.1184672316341752E-013
  0.11236000000000000         -7.5223175866189763E-013
  0.11278000000000001         -9.9584941142403261E-013
  0.11320000000000001         -1.2230954160001842E-012
  0.11362000000000001         -1.4109463586754566E-012
  0.11404000000000002         -1.5339149508733080E-012
  0.11446000000000002         -1.5653485123388431E-012
  0.11488000000000000         -1.4791134834981238E-012
  0.11530000000000000         -1.2515382779883967E-012
  0.11572000000000000         -8.6360533339885097E-013
  0.11614000000000001         -3.0327397620170830E-013
  0.11656000000000001          4.3222982040761236E-013
  0.11698000000000001          1.3342639717870874E-012
  0.11740000000000002          2.3809098036530599E-012
  0.11781999999999999          3.5356188388971076E-012
  0.11824000000000000          4.7465381762143083E-012
  0.11866000000000000          5.9466454221139758E-012
  0.11908000000000001          7.0548073309729674E-012
  0.11950000000000001          7.9779725204043118E-012
  0.11992000000000001          8.6144057026295944E-012
  0.12034000000000002          8.8581305759733330E-012
  0.12076000000000002          8.6043724388986774E-012
  0.12118000000000000          7.7559173624080982E-012
  0.12160000000000000          6.2302757161737300E-012
  0.12202000000000000          3.9671044579734549E-012
  0.12244000000000001          9.3591617264144082E-013
  0.12286000000000001         -2.8566868254919962E-012
  0.12328000000000001         -7.3605664621336507E-012
  0.12370000000000002         -1.2476891431323225E-011
  0.12411999999999999         -1.8054669331343585E-011
  0.12454000000000000         -2.3889743095215521E-011
  0.12496000000000000         -2.9726262327610960E-011
  0.12537999999999999         -3.5261394068551288E-011
  0.12580000000000002         -4.0152926188357531E-011
  0.12622000000000000         -4.4030855509979839E-011
  0.12664000000000003         -4.6511612012005056E-011
  0.12706000000000001         -4.7215944658635471E-011
  0.12747999999999998         -4.5788999977838612E-011
  0.12790000000000001         -4.1922736581192154E-011
  0.12831999999999999         -3.5379583078749788E-011
  0.12874000000000002         -2.6016226288593438E-011
  0.12916000000000000         -1.3806892776607628E-011
  0.12958000000000003          1.1354874117792633E-012
  0.13000000000000000          1.8541084074325700E-011
  0.13041999999999998          3.7969585149607542E-011
  0.13084000000000001          5.8801166026112884E-011
  0.13125999999999999          8.0234922435840962E-011
  0.13168000000000002          1.0129268966315474E-010
  0.13210000000000000          1.2083165817162289E-010
  0.13252000000000003          1.3756337997439116E-010
  0.13294000000000000          1.5008031284665352E-010
  0.13336000000000003          1.5688780810423054E-010
  0.13378000000000001          1.5644210298694994E-010
  0.13419999999999999          1.4719193861373679E-010
  0.13462000000000002          1.2762057897903999E-010
  0.13503999999999999          9.6288536339007559E-011
  0.13546000000000002          5.1872600774772826E-011
  0.13588000000000000         -6.8005399189543364E-012
  0.13630000000000003         -8.0728102814228662E-011
  0.13672000000000001         -1.7071517343438705E-010
  0.13713999999999998         -2.7737265844506284E-010
  0.13756000000000002         -4.0112634278527829E-010
  0.13797999999999999         -5.4224711502615942E-010
  0.13840000000000002         -7.0089034400193590E-010
  0.13882000000000000         -8.7715664141003867E-010
  0.13924000000000003         -1.0711680638756077E-009
  0.13966000000000001         -1.2831556310037577E-009
  0.14007999999999998         -1.5135620310531097E-009
  0.14050000000000001         -1.7631597414800222E-009
  0.14091999999999999         -2.0331670507904490E-009
  0.14134000000000002         -2.3253802879382146E-009
  0.14176000000000000         -2.6423080884980147E-009
  0.14218000000000003         -2.9873000072648459E-009
  0.14260000000000000         -3.3646754489891164E-009
  0.14301999999999998         -3.7798517598752210E-009
  0.14344000000000001         -4.2394722541934351E-009
  0.14385999999999999         -4.7515052058296542E-009
  0.14428000000000002         -5.3253480567062847E-009
  0.14470000000000000         -5.9719295943456509E-009
  0.14512000000000003         -6.7037954515804147E-009
  0.14554000000000000         -7.5351822755580582E-009
  0.14596000000000003         -8.4820821971885049E-009
  0.14638000000000001         -9.5623446042250770E-009
  0.14679999999999999         -1.0795676189495593E-008
  0.14722000000000002         -1.2203772150871963E-008
  0.14763999999999999         -1.3810339163794073E-008
  0.14806000000000002         -1.5641150769598237E-008
  0.14848000000000000         -1.7724149474344967E-008
  0.14890000000000003         -2.0089466284223605E-008
  0.14932000000000001         -2.2769611746332390E-008