  -4.0000000000000001E-002    -9.0167688904330134E-004
  -3.9899999999999998E-002    -2.7373104821890593E-003
  -3.9800000000000002E-002    -4.6115550212562084E-003
  -3.9699999999999999E-002    -6.4728497527539730E-003
  -3.9600000000000003E-002    -8.2712927833199501E-003
  -3.9500000000000000E-002    -9.9605601280927658E-003
  -3.9399999999999998E-002    -1.1499678716063499E-002
  -3.9300000000000002E-002    -1.2854591943323612E-002
  -3.9199999999999999E-002    -1.3999453745782375E-002
  -3.9100000000000003E-002    -1.4917599037289619E-002
  -3.9000000000000000E-002    -1.5602159313857555E-002
  -3.8900000000000004E-002    -1.6056295484304428E-002
  -3.8800000000000001E-002    -1.6293050721287727E-002
  -3.8699999999999998E-002    -1.6334809362888336E-002
  -3.8600000000000002E-002    -1.6212407499551773E-002
  -3.8500000000000000E-002    -1.5963926911354065E-002
  -3.8400000000000004E-002    -1.5633210539817810E-002
  -3.8300000000000001E-002    -1.5268170274794102E-002
  -3.8199999999999998E-002    -1.4918955974280834E-002
  -3.8100000000000002E-002    -1.4636049047112465E-002
  -3.7999999999999999E-002    -1.4468367211520672E-002
  -3.7900000000000003E-002    -1.4461454004049301E-002
  -3.7800000000000000E-002    -1.4655819162726402E-002
  -3.7699999999999997E-002    -1.5085502527654171E-002
  -3.7600000000000001E-002    -1.5776911750435829E-002
  -3.7499999999999999E-002    -1.6747977584600449E-002
  -3.7400000000000003E-002    -1.8007673323154449E-002
  -3.7300000000000000E-002    -1.9555896520614624E-002
  -3.7200000000000004E-002    -2.1383721381425858E-002
  -3.7100000000000001E-002    -2.3474024608731270E-002
  -3.6999999999999998E-002    -2.5802435353398323E-002
  -3.6900000000000002E-002    -2.8338583186268806E-002
  -3.6799999999999999E-002    -3.1047591939568520E-002
  -3.6700000000000003E-002    -3.3891752362251282E-002
  -3.6600000000000001E-002    -3.6832306534051895E-002
  -3.6499999999999998E-002    -3.9831284433603287E-002
  -3.6400000000000002E-002    -4.2853292077779770E-002
  -3.6299999999999999E-002    -4.5867212116718292E-002
  -3.6200000000000003E-002    -4.8847723752260208E-002
  -3.6100000000000000E-002    -5.1776587963104248E-002
  -3.6000000000000004E-002    -5.4643660783767700E-002
  -3.5900000000000001E-002    -5.7447582483291626E-002
  -3.5799999999999998E-002    -6.0196109116077423E-002
  -3.5700000000000003E-002    -6.2906101346015930E-002
  -3.5600000000000000E-002    -6.5603151917457581E-002
  -3.5500000000000004E-002    -6.8320855498313904E-002
  -3.5400000000000001E-002    -7.1099817752838135E-002
  -3.5299999999999998E-002    -7.3986351490020752E-002
  -3.5200000000000002E-002    -7.7030979096889496E-002
  -3.5099999999999999E-002    -8.0286815762519836E-002
  -3.5000000000000003E-002    -8.3807826042175293E-002
  -3.4900000000000000E-002    -8.7647087872028351E-002
  -3.4799999999999998E-002    -9.1855116188526154E-002
  -3.4700000000000002E-002    -9.6478343009948730E-002
  -3.4599999999999999E-002   -0.10155774652957916
  -3.4500000000000003E-002   -0.10712771862745285
  -3.4400000000000000E-002   -0.11321526765823364
  -3.4299999999999997E-002   -0.11983951926231384
  -3.4200000000000001E-002   -0.12701155245304108
  -3.4099999999999998E-002   -0.13473457098007202
  -3.4000000000000002E-002   -0.14300444722175598
  -3.3900000000000000E-002   -0.15181052684783936
  -3.3799999999999997E-002   -0.16113676130771637
  -3.3700000000000001E-002   -0.17096309363842010
  -3.3599999999999998E-002   -0.18126690387725830
  -3.3500000000000002E-002   -0.19202469289302826
  -3.3399999999999999E-002   -0.20321381092071533
  -3.3300000000000003E-002   -0.21481408178806305
  -3.3200000000000000E-002   -0.22680938243865967
  -3.3099999999999997E-002   -0.23918911814689636
  -3.3000000000000002E-002   -0.25194945931434631
  -3.2899999999999999E-002   -0.26509433984756470
  -3.2800000000000003E-002   -0.27863612771034241
  -3.2700000000000000E-002   -0.29259595274925232
  -3.2600000000000004E-002   -0.30700385570526123
  -3.2500000000000001E-002   -0.32189849019050598
  -3.2399999999999998E-002   -0.33732649683952332
  -3.2300000000000002E-002   -0.35334172844886780
  -3.2199999999999999E-002   -0.37000408768653870
  -3.2100000000000004E-002   -0.38737824559211731
  -3.2000000000000001E-002   -0.40553218126296997
  -3.1899999999999998E-002   -0.42453563213348389
  -3.1800000000000002E-002   -0.44445860385894775
  -3.1699999999999999E-002   -0.46536982059478760
  -3.1600000000000003E-002   -0.48733544349670410
  -3.1500000000000000E-002   -0.51041775941848755
  -3.1399999999999997E-002   -0.53467422723770142
  -3.1300000000000001E-002   -0.56015670299530029
  -3.1199999999999999E-002   -0.58691096305847168
  -3.1100000000000003E-002   -0.61497670412063599
  -3.1000000000000000E-002   -0.64438748359680176
  -3.0900000000000000E-002   -0.67517131567001343
  -3.0800000000000001E-002   -0.70735138654708862
  -3.0699999999999998E-002   -0.74094688892364502
  -3.0600000000000002E-002   -0.77597427368164062
  -3.0499999999999999E-002   -0.81244862079620361
  -3.0400000000000000E-002   -0.85038506984710693
  -3.0300000000000001E-002   -0.88980013132095337
  -3.0200000000000001E-002   -0.93071323633193970
  -3.0100000000000002E-002   -0.97314822673797607
  -2.9999999999999999E-002    -1.0171343088150024
  -2.9899999999999999E-002    -1.0627070665359497
  -2.9800000000000000E-002    -1.1099095344543457
  -2.9700000000000001E-002    -1.1587923765182495
  -2.9600000000000001E-002    -1.2094144821166992
  -2.9499999999999998E-002    -1.2618427276611328
  -2.9400000000000003E-002    -1.3161514997482300
  -2.9300000000000000E-002    -1.3724222183227539
  -2.9200000000000000E-002    -1.4307426214218140
  -2.9100000000000001E-002    -1.4912055730819702
  -2.8999999999999998E-002    -1.5539076328277588
  -2.8900000000000002E-002    -1.6189479827880859
  -2.8799999999999999E-002    -1.6864271163940430
  -2.8700000000000000E-002    -1.7564451694488525
  -2.8600000000000000E-002    -1.8291006088256836
  -2.8500000000000001E-002    -1.9044889211654663
  -2.8400000000000002E-002    -1.9827020168304443
  -2.8299999999999999E-002    -2.0638272762298584
  -2.8200000000000003E-002    -2.1479465961456299
  -2.8100000000000000E-002    -2.2351362705230713
  -2.8000000000000001E-002    -2.3254666328430176
  -2.7900000000000001E-002    -2.4190027713775635
  -2.7799999999999998E-002    -2.5158047676086426
  -2.7700000000000002E-002    -2.6159284114837646
  -2.7600000000000000E-002    -2.7194261550903320
  -2.7500000000000000E-002    -2.8263480663299561
  -2.7400000000000001E-002    -2.9367430210113525
  -2.7299999999999998E-002    -3.0506601333618164
  -2.7200000000000002E-002    -3.1681499481201172
  -2.7099999999999999E-002    -3.2892651557922363
  -2.7000000000000000E-002    -3.4140627384185791
  -2.6900000000000000E-002    -3.5426044464111328
  -2.6800000000000001E-002    -3.6749570369720459
  -2.6700000000000002E-002    -3.8111932277679443
  -2.6599999999999999E-002    -3.9513919353485107
  -2.6500000000000003E-002    -4.0956377983093262
  -2.6400000000000000E-002    -4.2440214157104492
  -2.6300000000000000E-002    -4.3966379165649414
  -2.6200000000000001E-002    -4.5535879135131836
  -2.6099999999999998E-002    -4.7149748802185059
  -2.6000000000000002E-002    -4.8809037208557129
  -2.5899999999999999E-002    -5.0514802932739258
  -2.5800000000000000E-002    -5.2268099784851074
  -2.5700000000000001E-002    -5.4069957733154297
  -2.5599999999999998E-002    -5.5921368598937988
  -2.5500000000000002E-002    -5.7823276519775391
  -2.5399999999999999E-002    -5.9776558876037598
  -2.5300000000000000E-002    -6.1782026290893555
  -2.5200000000000000E-002    -6.3840403556823730
  -2.5100000000000001E-002    -6.5952320098876953
  -2.5000000000000001E-002    -6.8118319511413574
  -2.4899999999999999E-002    -7.0338869094848633
  -2.4800000000000003E-002    -7.2614345550537109
  -2.4700000000000000E-002    -7.4945030212402344
  -2.4600000000000000E-002    -7.7331123352050781
  -2.4500000000000001E-002    -7.9772768020629883
  -2.4399999999999998E-002    -8.2270040512084961
  -2.4299999999999999E-002    -8.4822988510131836
  -2.4199999999999999E-002    -8.7431621551513672
  -2.4100000000000000E-002    -9.0095911026000977
  -2.4000000000000000E-002    -9.2815809249877930
  -2.3900000000000001E-002    -9.5591278076171875
  -2.3800000000000002E-002    -9.8422279357910156
  -2.3699999999999999E-002    -10.130877494812012
  -2.3599999999999999E-002    -10.425073623657227
  -2.3500000000000000E-002    -10.724814414978027
  -2.3400000000000001E-002    -11.030098915100098
  -2.3300000000000001E-002    -11.340924263000488
  -2.3199999999999998E-002    -11.657287597656250
  -2.3099999999999999E-002    -11.979183197021484
  -2.3000000000000000E-002    -12.306603431701660
  -2.2900000000000000E-002    -12.639533996582031
  -2.2800000000000001E-002    -12.977953910827637
  -2.2700000000000001E-002    -13.321836471557617
  -2.2599999999999999E-002    -13.671143531799316
  -2.2499999999999999E-002    -14.025824546813965
  -2.2400000000000000E-002    -14.385815620422363
  -2.2300000000000000E-002    -14.751041412353516
  -2.2200000000000001E-002    -15.121408462524414
  -2.2100000000000002E-002    -15.496806144714355
  -2.1999999999999999E-002    -15.877109527587891
  -2.1899999999999999E-002    -16.262176513671875
  -2.1800000000000000E-002    -16.651847839355469
  -2.1700000000000001E-002    -17.045946121215820
  -2.1600000000000001E-002    -17.444280624389648
  -2.1499999999999998E-002    -17.846641540527344
  -2.1399999999999999E-002    -18.252807617187500
  -2.1299999999999999E-002    -18.662544250488281
  -2.1200000000000000E-002    -19.075603485107422
  -2.1100000000000001E-002    -19.491727828979492
  -2.1000000000000001E-002    -19.910650253295898
  -2.0899999999999998E-002    -20.332094192504883
  -2.0799999999999999E-002    -20.755775451660156
  -2.0700000000000000E-002    -21.181404113769531
  -2.0600000000000000E-002    -21.608682632446289
  -2.0500000000000001E-002    -22.037309646606445
  -2.0400000000000001E-002    -22.466978073120117
  -2.0299999999999999E-002    -22.897373199462891
  -2.0199999999999999E-002    -23.328176498413086
  -2.0100000000000000E-002    -23.759061813354492
  -2.0000000000000000E-002    -24.189691543579102
  -1.9900000000000001E-002    -24.619718551635742
  -1.9799999999999998E-002    -25.048788070678711
  -1.9699999999999999E-002    -25.476530075073242
  -1.9599999999999999E-002    -25.902563095092773
  -1.9500000000000000E-002    -26.326492309570312
  -1.9400000000000001E-002    -26.747901916503906
  -1.9300000000000001E-002    -27.166362762451172
  -1.9199999999999998E-002    -27.581422805786133
  -1.9099999999999999E-002    -27.992610931396484
  -1.9000000000000000E-002    -28.399438858032227
  -1.8900000000000000E-002    -28.801397323608398
  -1.8800000000000001E-002    -29.197959899902344
  -1.8700000000000001E-002    -29.588579177856445
  -1.8599999999999998E-002    -29.972684860229492
  -1.8499999999999999E-002    -30.349689483642578
  -1.8400000000000000E-002    -30.718992233276367
  -1.8300000000000000E-002    -31.079973220825195
  -1.8200000000000001E-002    -31.432004928588867
  -1.8100000000000002E-002    -31.774450302124023
  -1.7999999999999999E-002    -32.106658935546875
  -1.7899999999999999E-002    -32.427974700927734
  -1.7800000000000000E-002    -32.737735748291016
  -1.7700000000000000E-002    -33.035274505615234
  -1.7600000000000001E-002    -33.319919586181641
  -1.7499999999999998E-002    -33.590999603271484
  -1.7399999999999999E-002    -33.847854614257812
  -1.7299999999999999E-002    -34.089817047119141
  -1.7200000000000000E-002    -34.316207885742188
  -1.7100000000000001E-002    -34.526359558105469
  -1.7000000000000001E-002    -34.719608306884766
  -1.6899999999999998E-002    -34.895290374755859
  -1.6799999999999999E-002    -35.052742004394531
  -1.6700000000000000E-002    -35.191299438476562
  -1.6600000000000000E-002    -35.310298919677734
  -1.6500000000000001E-002    -35.409072875976562
  -1.6400000000000001E-002    -35.486957550048828
  -1.6299999999999999E-002    -35.543281555175781
  -1.6199999999999999E-002    -35.577377319335938
  -1.6100000000000000E-002    -35.588569641113281
  -1.6000000000000000E-002    -35.576171875000000
  -1.5900000000000001E-002    -35.539505004882812
  -1.5799999999999998E-002    -35.477886199951172
  -1.5699999999999999E-002    -35.390625000000000
  -1.5599999999999999E-002    -35.277034759521484
  -1.5500000000000000E-002    -35.136436462402344
  -1.5400000000000000E-002    -34.968147277832031
  -1.5300000000000001E-002    -34.771488189697266
  -1.5199999999999998E-002    -34.545783996582031
  -1.5099999999999999E-002    -34.290370941162109
  -1.4999999999999999E-002    -34.004600524902344
  -1.4900000000000000E-002    -33.687835693359375
  -1.4800000000000001E-002    -33.339458465576172
  -1.4700000000000001E-002    -32.958869934082031
  -1.4599999999999998E-002    -32.545494079589844
  -1.4499999999999999E-002    -32.098789215087891
  -1.4400000000000000E-002    -31.618221282958984
  -1.4300000000000000E-002    -31.103288650512695
  -1.4200000000000001E-002    -30.553531646728516
  -1.4099999999999998E-002    -29.968515396118164
  -1.3999999999999999E-002    -29.347827911376953
  -1.3899999999999999E-002    -28.691091537475586
  -1.3800000000000000E-002    -27.997970581054688
  -1.3700000000000000E-002    -27.268163681030273
  -1.3600000000000001E-002    -26.501392364501953
  -1.3499999999999998E-002    -25.697412490844727
  -1.3399999999999999E-002    -24.856019973754883
  -1.3299999999999999E-002    -23.977035522460938
  -1.3200000000000000E-002    -23.060306549072266
  -1.3100000000000001E-002    -22.105716705322266
  -1.3000000000000001E-002    -21.113182067871094
  -1.2899999999999998E-002    -20.082645416259766
  -1.2799999999999999E-002    -19.014085769653320
  -1.2699999999999999E-002    -17.907512664794922
  -1.2600000000000000E-002    -16.762962341308594
  -1.2500000000000001E-002    -15.580510139465332
  -1.2399999999999998E-002    -14.360256195068359
  -1.2299999999999998E-002    -13.102342605590820
  -1.2199999999999999E-002    -11.806955337524414
  -1.2100000000000000E-002    -10.474312782287598
  -1.2000000000000000E-002    -9.1046781539916992
  -1.1900000000000001E-002    -7.6983613967895508
  -1.1799999999999998E-002    -6.2557082176208496
  -1.1699999999999999E-002    -4.7771081924438477
  -1.1599999999999999E-002    -3.2630121707916260
  -1.1500000000000000E-002    -1.7139147520065308
  -1.1400000000000000E-002   -0.13035897910594940
  -1.1300000000000001E-002     1.4870557785034180
  -1.1199999999999998E-002     3.1376745700836182
  -1.1099999999999999E-002     4.8207874298095703
  -1.0999999999999999E-002     6.5356254577636719
  -1.0900000000000000E-002     8.2813777923583984
  -1.0800000000000001E-002     10.057177543640137
  -1.0699999999999998E-002     11.862092971801758
  -1.0599999999999998E-002     13.695141792297363
  -1.0499999999999999E-002     15.555292129516602
  -1.0400000000000000E-002     17.441465377807617
  -1.0300000000000000E-002     19.352531433105469
  -1.0200000000000001E-002     21.287317276000977
  -1.0099999999999998E-002     23.244606018066406
  -9.9999999999999985E-003     25.223140716552734
  -9.8999999999999991E-003     27.221612930297852
  -9.7999999999999997E-003     29.238677978515625
  -9.7000000000000003E-003     31.272958755493164
  -9.6000000000000009E-003     33.323036193847656
  -9.4999999999999980E-003     35.387458801269531
  -9.3999999999999986E-003     37.464744567871094
  -9.2999999999999992E-003     39.553375244140625
  -9.1999999999999998E-003     41.651805877685547
  -9.1000000000000004E-003     43.758457183837891
  -9.0000000000000011E-003     45.871711730957031
  -8.8999999999999982E-003     47.989917755126953
  -8.7999999999999988E-003     50.111396789550781
  -8.6999999999999994E-003     52.234447479248047
  -8.5999999999999965E-003     54.357326507568359
  -8.5000000000000006E-003     56.478256225585938
  -8.3999999999999977E-003     58.595436096191406
  -8.3000000000000018E-003     60.707038879394531
  -8.1999999999999990E-003     62.811199188232422
  -8.0999999999999961E-003     64.906028747558594
  -8.0000000000000002E-003     66.989616394042969
  -7.8999999999999973E-003     69.060020446777344
  -7.8000000000000014E-003     71.115287780761719
  -7.6999999999999985E-003     73.153442382812500
  -7.6000000000000026E-003     75.172492980957031
  -7.4999999999999997E-003     77.170440673828125
  -7.3999999999999969E-003     79.145271301269531
  -7.3000000000000009E-003     81.094963073730469
  -7.1999999999999981E-003     83.017494201660156
  -7.1000000000000021E-003     84.910842895507812
  -6.9999999999999993E-003     86.772987365722656
  -6.8999999999999964E-003     88.601913452148438
  -6.8000000000000005E-003     90.395622253417969
  -6.6999999999999976E-003     92.152137756347656
  -6.6000000000000017E-003     93.869491577148438
  -6.4999999999999988E-003     95.545738220214844
  -6.3999999999999960E-003     97.178955078125000
  -6.3000000000000000E-003     98.767242431640625
  -6.1999999999999972E-003     100.30873107910156
  -6.1000000000000013E-003     101.80158233642578
  -5.9999999999999984E-003     103.24398803710938
  -5.9000000000000025E-003     104.63417816162109
  -5.7999999999999996E-003     105.97041320800781
  -5.6999999999999967E-003     107.25098419189453
  -5.6000000000000008E-003     108.47422790527344
  -5.4999999999999979E-003     109.63851928710938
  -5.4000000000000020E-003     110.74227142333984
  -5.2999999999999992E-003     111.78393554687500
  -5.1999999999999963E-003     112.76200866699219
  -5.1000000000000004E-003     113.67503356933594
  -4.9999999999999975E-003     114.52159118652344
  -4.9000000000000016E-003     115.30031585693359
  -4.7999999999999987E-003     116.00989532470703
  -4.6999999999999958E-003     116.64907836914062
  -4.5999999999999999E-003     117.21665191650391
  -4.4999999999999971E-003     117.71145629882812
  -4.4000000000000011E-003     118.13240814208984
  -4.2999999999999983E-003     118.47848510742188
  -4.2000000000000023E-003     118.74871826171875
  -4.0999999999999995E-003     118.94221496582031
  -3.9999999999999966E-003     119.05815887451172
  -3.9000000000000007E-003     119.09579467773438
  -3.7999999999999978E-003     119.05445861816406
  -3.7000000000000019E-003     118.93356323242188
  -3.5999999999999990E-003     118.73258972167969
  -3.4999999999999962E-003     118.45111083984375
  -3.4000000000000002E-003     118.08878326416016
  -3.2999999999999974E-003     117.64534759521484
  -3.2000000000000015E-003     117.12063598632812
  -3.0999999999999986E-003     116.51454162597656
  -2.9999999999999957E-003     115.82706451416016
  -2.8999999999999998E-003     115.05828857421875
  -2.7999999999999969E-003     114.20837402343750
  -2.7000000000000010E-003     113.27758026123047
  -2.5999999999999981E-003     112.26623535156250
  -2.5000000000000022E-003     111.17475128173828
  -2.3999999999999994E-003     110.00362396240234
  -2.2999999999999965E-003     108.75344085693359
  -2.2000000000000006E-003     107.42486572265625
  -2.0999999999999977E-003     106.01863098144531
  -2.0000000000000018E-003     104.53556060791016
  -1.8999999999999989E-003     102.97653961181641
  -1.7999999999999960E-003     101.34252166748047
  -1.7000000000000001E-003     99.634567260742188
  -1.5999999999999973E-003     97.853790283203125
  -1.5000000000000013E-003     96.001365661621094
  -1.3999999999999985E-003     94.078567504882812
  -1.2999999999999956E-003     92.086730957031250
  -1.1999999999999997E-003     90.027259826660156
  -1.0999999999999968E-003     87.901626586914062
  -1.0000000000000009E-003     85.711395263671875
  -8.9999999999999802E-004     83.458198547363281
  -8.0000000000000210E-004     81.143714904785156
  -6.9999999999999923E-004     78.769699096679688
  -5.9999999999999637E-004     76.337989807128906
  -5.0000000000000044E-004     73.850494384765625
  -3.9999999999999758E-004     71.309173583984375
  -3.0000000000000165E-004     68.716056823730469
  -1.9999999999999879E-004     66.073226928710938
  -9.9999999999995925E-005     63.382835388183594
   0.0000000000000000          60.647079467773438
   1.0000000000000286E-004     57.868190765380859
   1.9999999999999879E-004     55.048480987548828
   3.0000000000000165E-004     52.190311431884766
   4.0000000000000452E-004     49.296047210693359
   5.0000000000000044E-004     46.368122100830078
   6.0000000000000331E-004     43.409015655517578
   6.9999999999999923E-004     40.421207427978516
   8.0000000000000210E-004     37.407207489013672
   8.9999999999999802E-004     34.369556427001953
   1.0000000000000009E-003     31.310829162597656
   1.1000000000000038E-003     28.233589172363281
   1.1999999999999997E-003     25.140415191650391
   1.3000000000000025E-003     22.033912658691406
   1.3999999999999985E-003     18.916679382324219
   1.5000000000000013E-003     15.791324615478516
   1.6000000000000042E-003     12.660454750061035
   1.7000000000000001E-003     9.5266685485839844
   1.8000000000000030E-003     6.3925600051879883
   1.8999999999999989E-003     3.2607181072235107
   2.0000000000000018E-003    0.13374298810958862
   2.1000000000000046E-003    -2.9857761859893799
   2.2000000000000006E-003    -6.0952920913696289
   2.3000000000000034E-003    -9.1922597885131836
   2.3999999999999994E-003    -12.274144172668457
   2.5000000000000022E-003    -15.338426589965820
   2.5999999999999981E-003    -18.382598876953125
   2.7000000000000010E-003    -21.404193878173828
   2.8000000000000039E-003    -24.400774002075195
   2.8999999999999998E-003    -27.369918823242188
   3.0000000000000027E-003    -30.309238433837891
   3.0999999999999986E-003    -33.216392517089844
   3.2000000000000015E-003    -36.089065551757812
   3.3000000000000043E-003    -38.924976348876953
   3.4000000000000002E-003    -41.721897125244141
   3.5000000000000031E-003    -44.477653503417969
   3.5999999999999990E-003    -47.190113067626953
   3.7000000000000019E-003    -49.857204437255859
   3.7999999999999978E-003    -52.476902008056641
   3.9000000000000007E-003    -55.047245025634766
   4.0000000000000036E-003    -57.566345214843750
   4.0999999999999995E-003    -60.032371520996094
   4.2000000000000023E-003    -62.443557739257812
   4.2999999999999983E-003    -64.798217773437500
   4.4000000000000011E-003    -67.094749450683594
   4.5000000000000040E-003    -69.331596374511719
   4.5999999999999999E-003    -71.507278442382812
   4.7000000000000028E-003    -73.620407104492188
   4.7999999999999987E-003    -75.669654846191406
   4.9000000000000016E-003    -77.653762817382812
   5.0000000000000044E-003    -79.571563720703125
   5.1000000000000004E-003    -81.421958923339844
   5.2000000000000032E-003    -83.203933715820312
   5.2999999999999992E-003    -84.916557312011719
   5.4000000000000020E-003    -86.558944702148438
   5.4999999999999979E-003    -88.130302429199219
   5.6000000000000008E-003    -89.629928588867188
   5.7000000000000037E-003    -91.057174682617188
   5.7999999999999996E-003    -92.411460876464844
   5.9000000000000025E-003    -93.692291259765625
   5.9999999999999984E-003    -94.899238586425781
   6.1000000000000013E-003    -96.031944274902344
   6.2000000000000041E-003    -97.090133666992188
   6.3000000000000000E-003    -98.073608398437500
   6.4000000000000029E-003    -98.982238769531250
   6.4999999999999988E-003    -99.815971374511719
   6.6000000000000017E-003    -100.57482147216797
   6.7000000000000046E-003    -101.25887298583984
   6.8000000000000005E-003    -101.86830139160156
   6.9000000000000034E-003    -102.40335083007812
   6.9999999999999993E-003    -102.86433410644531
   7.1000000000000021E-003    -103.25164794921875
   7.1999999999999981E-003    -103.56575012207031
   7.3000000000000009E-003    -103.80717468261719
   7.4000000000000038E-003    -103.97653961181641
   7.4999999999999997E-003    -104.07452392578125
   7.6000000000000026E-003    -104.10187530517578
   7.6999999999999985E-003    -104.05941009521484
   7.8000000000000014E-003    -103.94801330566406
   7.9000000000000042E-003    -103.76863098144531
   8.0000000000000002E-003    -103.52227020263672
   8.1000000000000030E-003    -103.20999908447266
   8.1999999999999990E-003    -102.83293151855469
   8.3000000000000018E-003    -102.39224243164062
   8.4000000000000047E-003    -101.88915252685547
   8.5000000000000006E-003    -101.32492828369141
   8.6000000000000035E-003    -100.70088195800781
   8.6999999999999994E-003    -100.01837158203125
   8.8000000000000023E-003    -99.278785705566406
   8.8999999999999982E-003    -98.483535766601562
   9.0000000000000011E-003    -97.634086608886719
   9.1000000000000039E-003    -96.731933593750000
   9.1999999999999998E-003    -95.778587341308594
   9.3000000000000027E-003    -94.775596618652344
   9.3999999999999986E-003    -93.724533081054688
   9.5000000000000015E-003    -92.626983642578125
   9.6000000000000044E-003    -91.484558105468750
   9.7000000000000003E-003    -90.298889160156250
   9.8000000000000032E-003    -89.071632385253906
   9.8999999999999991E-003    -87.804458618164062
   1.0000000000000002E-002    -86.499053955078125
   1.0100000000000005E-002    -85.157119750976562
   1.0200000000000001E-002    -83.780372619628906
   1.0300000000000004E-002    -82.370544433593750
   1.0400000000000000E-002    -80.929374694824219
   1.0500000000000002E-002    -79.458610534667969
   1.0599999999999998E-002    -77.960014343261719
   1.0700000000000001E-002    -76.435340881347656
   1.0800000000000004E-002    -74.886344909667969
   1.0900000000000000E-002    -73.314796447753906
   1.1000000000000003E-002    -71.722457885742188
   1.1099999999999999E-002    -70.111076354980469
   1.1200000000000002E-002    -68.482398986816406
   1.1300000000000004E-002    -66.838165283203125
   1.1400000000000000E-002    -65.180091857910156
   1.1500000000000003E-002    -63.509883880615234
   1.1599999999999999E-002    -61.829231262207031
   1.1700000000000002E-002    -60.139801025390625
   1.1800000000000005E-002    -58.443225860595703
   1.1900000000000001E-002    -56.741119384765625
   1.2000000000000004E-002    -55.035072326660156
   1.2100000000000000E-002    -53.326633453369141
   1.2200000000000003E-002    -51.617328643798828
   1.2299999999999998E-002    -49.908653259277344
   1.2400000000000001E-002    -48.202068328857422
   1.2500000000000004E-002    -46.499000549316406
   1.2600000000000000E-002    -44.800838470458984
   1.2700000000000003E-002    -43.108928680419922
   1.2799999999999999E-002    -41.424591064453125
   1.2900000000000002E-002    -39.749122619628906
   1.3000000000000005E-002    -38.083770751953125
   1.3100000000000001E-002    -36.429748535156250
   1.3200000000000003E-002    -34.788238525390625
   1.3299999999999999E-002    -33.160385131835938
   1.3400000000000002E-002    -31.547296524047852
   1.3500000000000005E-002    -29.950044631958008
   1.3600000000000001E-002    -28.369668960571289
   1.3700000000000004E-002    -26.807176589965820
   1.3800000000000000E-002    -25.263536453247070
   1.3900000000000003E-002    -23.739671707153320
   1.3999999999999999E-002    -22.236476898193359
   1.4100000000000001E-002    -20.754814147949219
   1.4200000000000004E-002    -19.295497894287109
   1.4300000000000000E-002    -17.859302520751953
   1.4400000000000003E-002    -16.446962356567383
   1.4499999999999999E-002    -15.059170722961426
   1.4600000000000002E-002    -13.696582794189453
   1.4700000000000005E-002    -12.359811782836914
   1.4800000000000001E-002    -11.049422264099121
   1.4900000000000004E-002    -9.7659349441528320
   1.4999999999999999E-002    -8.5098266601562500
   1.5100000000000002E-002    -7.2815308570861816
   1.5200000000000005E-002    -6.0814347267150879
   1.5300000000000001E-002    -4.9098806381225586
   1.5400000000000004E-002    -3.7671763896942139
   1.5500000000000000E-002    -2.6535856723785400
   1.5600000000000003E-002    -1.5693259239196777
   1.5699999999999999E-002   -0.51457428932189941
   1.5800000000000002E-002    0.51052546501159668
   1.5900000000000004E-002     1.5058714151382446
   1.6000000000000000E-002     2.4713969230651855
   1.6100000000000003E-002     3.4070692062377930
   1.6199999999999999E-002     4.3128890991210938
   1.6300000000000002E-002     5.1888847351074219
   1.6400000000000005E-002     6.0351195335388184
   1.6500000000000001E-002     6.8516802787780762
   1.6600000000000004E-002     7.6386814117431641
   1.6700000000000000E-002     8.3962640762329102
   1.6800000000000002E-002     9.1245956420898438
   1.6900000000000005E-002     9.8238611221313477
   1.7000000000000001E-002     10.494271278381348
   1.7100000000000004E-002     11.136065483093262
   1.7200000000000000E-002     11.749496459960938
   1.7300000000000003E-002     12.334838867187500
   1.7399999999999999E-002     12.892392158508301
   1.7500000000000002E-002     13.422481536865234
   1.7600000000000005E-002     13.925448417663574
   1.7700000000000000E-002     14.401653289794922
   1.7800000000000003E-002     14.851478576660156
   1.7899999999999999E-002     15.275324821472168
   1.8000000000000002E-002     15.673613548278809
   1.8100000000000005E-002     16.046783447265625
   1.8200000000000001E-002     16.395294189453125
   1.8300000000000004E-002     16.719627380371094
   1.8400000000000000E-002     17.020273208618164
   1.8500000000000003E-002     17.297737121582031
   1.8600000000000005E-002     17.552543640136719
   1.8700000000000001E-002     17.785232543945312
   1.8800000000000004E-002     17.996355056762695
   1.8900000000000000E-002     18.186466217041016
   1.9000000000000003E-002     18.356136322021484
   1.9099999999999999E-002     18.505939483642578
   1.9200000000000002E-002     18.636451721191406
   1.9300000000000005E-002     18.748262405395508