  -8.0000000000000002E-002     0.0000000000000000
  -7.9579999999999998E-002     0.0000000000000000
  -7.9160000000000008E-002     0.0000000000000000
  -7.8740000000000004E-002     0.0000000000000000
  -7.8320000000000001E-002     0.0000000000000000
  -7.7899999999999997E-002     0.0000000000000000
  -7.7480000000000007E-002     0.0000000000000000
  -7.7060000000000003E-002     0.0000000000000000
  -7.6640000000000000E-002     0.0000000000000000
  -7.6219999999999996E-002     0.0000000000000000
  -7.5800000000000006E-002     0.0000000000000000
  -7.5380000000000003E-002     0.0000000000000000
  -7.4959999999999999E-002     0.0000000000000000
  -7.4539999999999995E-002     0.0000000000000000
  -7.4120000000000005E-002     0.0000000000000000
  -7.3700000000000002E-002     0.0000000000000000
  -7.3279999999999998E-002     0.0000000000000000
  -7.2860000000000008E-002     0.0000000000000000
  -7.2440000000000004E-002     0.0000000000000000
  -7.2020000000000001E-002     0.0000000000000000
  -7.1599999999999997E-002     0.0000000000000000
  -7.1180000000000007E-002     0.0000000000000000
  -7.0760000000000003E-002    -7.5979144405347180E-046
  -7.0340000000000000E-002    -1.5877327294702599E-045
  -6.9919999999999996E-002    -2.1015517769012820E-045
  -6.9500000000000006E-002    -5.9707624107212628E-045
  -6.9080000000000003E-002    -1.4685381192387739E-044
  -6.8659999999999999E-002    -4.0851896071669349E-044
  -6.8239999999999995E-002    -9.6518144282609798E-044
  -6.7820000000000005E-002    -1.9411809100006602E-043
  -6.7400000000000002E-002    -3.4584703766187463E-043
  -6.6979999999999998E-002    -4.9989877671349909E-043
  -6.6560000000000008E-002    -4.3948379938724381E-043
  -6.6140000000000004E-002     4.2643007387757810E-043
  -6.5720000000000001E-002     3.2941267132200935E-042
  -6.5299999999999997E-002     1.0124160783638954E-041
  -6.4879999999999993E-002     2.3297416763518787E-041
  -6.4460000000000003E-002     4.3982279008763533E-041
  -6.4040000000000000E-002     6.7936364273703961E-041
  -6.3619999999999996E-002     7.7701009241783217E-041
  -6.3200000000000006E-002     3.1457186547668891E-041
  -6.2780000000000002E-002    -1.4771212878640790E-040
  -6.2359999999999999E-002    -5.7141694924411081E-040
  -6.1940000000000002E-002    -1.3537039134906813E-039
  -6.1520000000000005E-002    -2.5166616991423099E-039
  -6.1100000000000002E-002    -3.8027430480664167E-039
  -6.0679999999999998E-002    -4.3854753858517355E-039
  -6.0260000000000001E-002    -2.5363022936060069E-039
  -5.9840000000000004E-002     4.5689022077330943E-039
  -5.9420000000000001E-002     2.0537407661609382E-038
  -5.8999999999999997E-002     4.8384942244148157E-038
  -5.8580000000000000E-002     8.7466466891758159E-038
  -5.8160000000000003E-002     1.2833018496125964E-037
  -5.7740000000000000E-002     1.4596970600988759E-037
  -5.7319999999999996E-002     9.3659228548969562E-038
  -5.6899999999999999E-002    -9.7851253069027598E-038
  -5.6480000000000002E-002    -5.0802984101872070E-037
  -5.6059999999999999E-002    -1.1913774082435996E-036
  -5.5640000000000002E-002    -2.1109365230203126E-036
  -5.5220000000000005E-002    -3.0400290907637581E-036
  -5.4800000000000001E-002    -3.4496237426253083E-036
  -5.4379999999999998E-002    -2.4278310982597105E-036
  -5.3960000000000001E-002     1.2848481297398351E-036
  -5.3540000000000004E-002     9.0272576469786152E-036
  -5.3120000000000001E-002     2.1590513948067834E-035
  -5.2699999999999997E-002     3.8154921841757780E-035
  -5.2280000000000000E-002     5.4854816716860189E-035
  -5.1860000000000003E-002     6.3294889665232701E-035
  -5.1440000000000000E-002     4.9709843531024937E-035
  -5.1019999999999996E-002    -4.1320448719887561E-036
  -5.0599999999999999E-002    -1.1689238164488779E-034
  -5.0180000000000002E-002    -2.9918908826825211E-034
  -4.9759999999999999E-002    -5.4016419244753203E-034
  -4.9340000000000002E-002    -7.9035011319301320E-034
  -4.8920000000000005E-002    -9.4499992669233340E-034
  -4.8500000000000001E-002    -8.3581201329724707E-034
  -4.8079999999999998E-002    -2.4274160365969785E-034
  -4.7660000000000001E-002     1.0603043791252082E-033
  -4.7239999999999997E-002     3.2139984080923732E-033
  -4.6820000000000001E-002     6.1330979781640354E-033
  -4.6399999999999997E-002     9.3311802441290685E-033
  -4.5980000000000000E-002     1.1751724124943945E-032
  -4.5560000000000003E-002     1.1679620496294686E-032
  -4.5140000000000000E-002     6.8385577141251668E-033
  -4.4720000000000003E-002    -5.2047300825079511E-033
  -4.4299999999999999E-002    -2.6226681401832022E-032
  -4.3880000000000002E-002    -5.6093764747788851E-032
  -4.3459999999999999E-002    -9.1182506581181028E-032
  -4.3040000000000002E-002    -1.2279817050261874E-031
  -4.2619999999999998E-002    -1.3617682103791865E-031
  -4.2200000000000001E-002    -1.1090258704459651E-031
  -4.1779999999999998E-002    -2.3707015376973424E-032
  -4.1360000000000001E-002     1.4548691840440454E-031
  -4.0939999999999997E-002     4.0390322439317301E-031
  -4.0520000000000000E-002     7.3323927557326503E-031
  -4.0099999999999997E-002     1.0760771441408969E-030
  -3.9680000000000000E-002     1.3253353700094282E-030
  -3.9260000000000003E-002     1.3225848123448412E-030
  -3.8840000000000000E-002     8.7229966949414862E-031
  -3.8420000000000003E-002    -2.2105662333326278E-031
  -3.7999999999999999E-002    -2.0888040981431491E-030
  -3.7580000000000002E-002    -4.7081019265484844E-030
  -3.7159999999999999E-002    -7.7969428638578153E-030
  -3.6740000000000002E-002    -1.0716903281736754E-029
  -3.6319999999999998E-002    -1.2419642516604362E-029
  -3.5900000000000001E-002    -1.1483983422196214E-029
  -3.5479999999999998E-002    -6.2940117971093753E-030
  -3.5060000000000001E-002     4.6007147207926737E-030
  -3.4639999999999997E-002     2.1929874576446724E-029
  -3.4220000000000000E-002     4.4988791264911827E-029
  -3.3799999999999997E-002     7.0874585131406863E-029
  -3.3380000000000000E-002     9.3864817866287392E-029
  -3.2960000000000003E-002     1.0521292595125305E-028
  -3.2539999999999999E-002     9.3688994341830938E-029
  -3.2120000000000003E-002     4.7187175330733017E-029
  -3.1699999999999999E-002    -4.4381894638532179E-029
  -3.1280000000000002E-002    -1.8492309431044785E-028
  -3.0859999999999999E-002    -3.6708624599646455E-028
  -3.0440000000000002E-002    -5.6714641047307548E-028
  -3.0019999999999998E-002    -7.4122048858139881E-028
  -2.9600000000000001E-002    -8.2467663153221735E-028
  -2.9179999999999998E-002    -7.3683593059764844E-028
  -2.8760000000000001E-002    -3.9288679465287836E-028
  -2.8339999999999997E-002     2.7586962994274238E-028
  -2.7920000000000000E-002     1.2938787856256889E-027
  -2.7499999999999997E-002     2.6080894663846355E-027
  -2.7080000000000000E-002     4.0553375986965639E-027
  -2.6659999999999996E-002     5.3392292629151939E-027
  -2.6239999999999999E-002     6.0280073540420261E-027
  -2.5820000000000003E-002     5.5859949423608576E-027
  -2.5399999999999999E-002     3.4497169567762070E-027
  -2.4980000000000002E-002    -8.4528498157181089E-028
  -2.4559999999999998E-002    -7.4904159349509165E-027
  -2.4140000000000002E-002    -1.6199951019409236E-026
  -2.3719999999999998E-002    -2.6010998343861228E-026
  -2.3300000000000001E-002    -3.5139197613244407E-026
  -2.2879999999999998E-002    -4.0956062199710344E-026
  -2.2460000000000001E-002    -4.0159634426205203E-026
  -2.2039999999999997E-002    -2.9201607994188587E-026
  -2.1620000000000000E-002    -5.0053893308915982E-027
  -2.1199999999999997E-002     3.4041679627389262E-026
  -2.0780000000000000E-002     8.6912704498167796E-026
  -2.0359999999999996E-002     1.4876407634423039E-025
  -1.9939999999999999E-002     2.1003218645090867E-025
  -1.9519999999999996E-002     2.5615713085470244E-025
  -1.9099999999999999E-002     2.6831974172395385E-025
  -1.8680000000000002E-002     2.2554076662131611E-025
  -1.8259999999999998E-002     1.0835214606365880E-025
  -1.7840000000000002E-002    -9.6002778268402346E-026
  -1.7420000000000005E-002    -3.8725132209610923E-025
  -1.7000000000000001E-002    -7.4552078379035474E-025
  -1.6579999999999998E-002    -1.1258577573148895E-024
  -1.6159999999999994E-002    -1.4555907330660524E-024
  -1.5740000000000004E-002    -1.6364976438444282E-024
  -1.5320000000000000E-002    -1.5536295687169410E-024
  -1.4899999999999997E-002    -1.0920594676159312E-024
  -1.4479999999999993E-002    -1.6170148532175704E-025
  -1.4060000000000003E-002     1.2713109802014045E-024
  -1.3639999999999999E-002     3.1503283474057170E-024
  -1.3219999999999996E-002     5.2968843055344095E-024
  -1.2799999999999992E-002     7.3903893581200713E-024
  -1.2380000000000002E-002     8.9681383405759218E-024
  -1.1959999999999998E-002     9.4548942830663423E-024
  -1.1539999999999995E-002     8.2293490106287963E-024
  -1.1120000000000005E-002     4.7303627138956975E-024
  -1.0700000000000001E-002    -1.4009198416710595E-024
  -1.0279999999999997E-002    -1.0156058171570239E-023
  -9.8599999999999938E-003    -2.0994603045566462E-023
  -9.4400000000000039E-003    -3.2712882000177184E-023
  -9.0200000000000002E-003    -4.3386968096120962E-023
  -8.5999999999999965E-003    -5.0433243058624973E-023
  -8.1799999999999928E-003    -5.0825024604537750E-023
  -7.7600000000000030E-003    -4.1489430067689385E-023
  -7.3399999999999993E-003    -1.9883665339553140E-023
  -6.9199999999999956E-003     1.5285203163143836E-023
  -6.4999999999999919E-003     6.3275081722495486E-023
  -6.0800000000000021E-003     1.2058105369423514E-022
  -5.6599999999999984E-003     1.8042651396963472E-022
  -5.2399999999999947E-003     2.3265873161407787E-022
  -4.8200000000000048E-003     2.6423304725853495E-022
  -4.4000000000000011E-003     2.6043424078010477E-022
  -3.9799999999999974E-003     2.0690403766293921E-022
  -3.5599999999999937E-003     9.2426423588578785E-023
  -3.1400000000000039E-003    -8.7739787317406648E-023
  -2.7200000000000002E-003    -3.2836797113704769E-022
  -2.2999999999999965E-003    -6.1117993036010626E-022
  -1.8799999999999928E-003    -9.0288265911777785E-022
  -1.4600000000000030E-003    -1.1551111780906577E-021
  -1.0399999999999993E-003    -1.3070205851133635E-021
  -6.1999999999999555E-004    -1.2910880273188246E-021
  -1.9999999999999185E-004    -1.0423268693353777E-021
   2.1999999999999797E-004    -5.1060391529790936E-022
   6.4000000000000168E-004     3.2490962807353162E-022
   1.0600000000000054E-003     1.4408387982847807E-021
   1.4799999999999952E-003     2.7566507540917832E-021
   1.8999999999999989E-003     4.1265626277173530E-021
   2.3200000000000026E-003     5.3394842658623964E-021
   2.7400000000000063E-003     6.1299479545481665E-021
   3.1599999999999961E-003     6.2021990542951448E-021
   3.5799999999999998E-003     5.2682087737393880E-021
   4.0000000000000036E-003     3.0983242050205632E-021
   4.4200000000000073E-003    -4.1925355485267163E-022
   4.8399999999999971E-003    -5.2167918187487966E-021
   5.2600000000000008E-003    -1.0992410065037975E-020
   5.6800000000000045E-003    -1.7173954072781962E-020
   6.1000000000000082E-003    -2.2913648787345098E-020
   6.5199999999999980E-003    -2.7125205791722606E-020
   6.9400000000000017E-003    -2.8572229163267784E-020
   7.3600000000000054E-003    -2.6011620262414695E-020
   7.7799999999999953E-003    -1.8388149827921222E-020
   8.1999999999999990E-003    -5.0670991722556622E-021
   8.6200000000000027E-003     1.3918599223788619E-020
   9.0400000000000064E-003     3.7640541721741367E-020
   9.4599999999999962E-003     6.4108234346094702E-020
   9.8799999999999999E-003     9.0210113782449881E-020
   1.0300000000000004E-002     1.1180734481172462E-019
   1.0720000000000007E-002     1.2401673650156347E-019
   1.1139999999999997E-002     1.2170207297872362E-019
   1.1560000000000001E-002     1.0016758284392873E-019
   1.1980000000000005E-002     5.6014837549058133E-020
   1.2400000000000008E-002    -1.1913256651011085E-020
   1.2819999999999998E-002    -1.0161456896176068E-019
   1.3240000000000002E-002    -2.0718173156775542E-019
   1.3660000000000005E-002    -3.1839367515695686E-019
   1.4079999999999995E-002    -4.2081238054911038E-019
   1.4499999999999999E-002    -4.9653015507196622E-019
   1.4920000000000003E-002    -5.2566193060912244E-019
   1.5340000000000006E-002    -4.8859759433310766E-019
   1.5759999999999996E-002    -3.6892194290594524E-019
   1.6180000000000000E-002    -1.5678740218070998E-019
   1.6600000000000004E-002     1.4760855883902471E-019
   1.7020000000000007E-002     5.3090550469196605E-019
   1.7439999999999997E-002     9.6437497261600574E-019
   1.7860000000000001E-002     1.4032129694261360E-018
   1.8280000000000005E-002     1.7878768026207600E-018
   1.8700000000000008E-002     2.0478831648782065E-018
   1.9119999999999998E-002     2.1082599814978592E-018
   1.9540000000000002E-002     1.8985303553807203E-018
   1.9960000000000006E-002     1.3637254525956659E-018
   2.0380000000000009E-002     4.7649293358429323E-019
   2.0799999999999999E-002    -7.5103328523927178E-019
   2.1220000000000003E-002    -2.2572818888397231E-018
   2.1640000000000006E-002    -3.9250978833623232E-018
   2.2059999999999996E-002    -5.5812787166882626E-018
   2.2480000000000000E-002    -7.0034344440480976E-018
   2.2900000000000004E-002    -7.9352767161375354E-018
   2.3320000000000007E-002    -8.1106041405101620E-018
   2.3739999999999997E-002    -7.2852169042523617E-018
   2.4160000000000001E-002    -5.2747023732882800E-018
   2.4580000000000005E-002    -1.9948018050545455E-018
   2.5000000000000008E-002     2.5001975885871858E-018
   2.5419999999999998E-002     7.9864347099753860E-018
   2.5840000000000002E-002     1.4052690508189573E-017
   2.6260000000000006E-002     2.0101493456267117E-017
   2.6680000000000009E-002     2.5373826181993510E-017
   2.7099999999999999E-002     2.9000329214345684E-017
   2.7520000000000003E-002     3.0079347552535308E-017
   2.7940000000000006E-002     2.7778930521335437E-017
   2.8359999999999996E-002     2.1456285353459937E-017
   2.8780000000000000E-002     1.0784448096953604E-017
   2.9200000000000004E-002    -4.1272750317746111E-018
   2.9620000000000007E-002    -2.2635025171979417E-017
   3.0039999999999997E-002    -4.3501259857490896E-017
   3.0460000000000001E-002    -6.4891039092997575E-017
   3.0880000000000005E-002    -8.4437279986979537E-017
   3.1300000000000008E-002    -9.9383581559206255E-017
   3.1719999999999998E-002    -1.0680609585755662E-016
   3.2140000000000002E-002    -1.0390748711909461E-016
   3.2560000000000006E-002    -8.8365833250957943E-017
   3.2980000000000009E-002    -5.8711812475342861E-017
   3.3399999999999999E-002    -1.4698359280314896E-017
   3.3820000000000003E-002     4.2380056066860518E-017
   3.4240000000000007E-002     1.0946483066316852E-016
   3.4659999999999996E-002     1.8165290163682344E-016
   3.5080000000000000E-002     2.5229870092682964E-016
   3.5500000000000004E-002     3.1332703405500868E-016
   3.5920000000000007E-002     3.5576888512756321E-016
   3.6339999999999997E-002     3.7051183651194205E-016
   3.6760000000000001E-002     3.4923110687986417E-016
   3.7180000000000005E-002     2.8544374885952582E-016
   3.7600000000000008E-002     1.7560226105783607E-016
   3.8019999999999998E-002     2.0123455772439374E-017
   3.8440000000000002E-002    -1.7576326548517576E-016
   3.8860000000000006E-002    -4.0147444662314076E-016
   3.9280000000000009E-002    -6.4095192310927745E-016
   3.9699999999999999E-002    -8.7306306066336376E-016
   4.0120000000000003E-002    -1.0725882679124562E-015
   4.0540000000000007E-002    -1.2118195874736218E-015
   4.0960000000000010E-002    -1.2627383230907831E-015
   4.1380000000000000E-002    -1.1996815640605946E-015
   4.1800000000000004E-002    -1.0023420065720373E-015
   4.2220000000000008E-002    -6.5888389518274738E-016
   4.2639999999999997E-002    -1.6891179892115391E-016
   4.3060000000000001E-002     4.5401827124660291E-016
   4.3480000000000005E-002     1.1806629286191272E-015
   4.3900000000000008E-002     1.9654445511574678E-015
   4.4319999999999998E-002     2.7471706744610726E-015
   4.4740000000000002E-002     3.4513251382132144E-015
   4.5159999999999992E-002     3.9940410138789193E-015
   4.5579999999999996E-002     4.2877394539999309E-015
   4.5999999999999999E-002     4.2482745904966643E-015
   4.6420000000000003E-002     3.8032580050361067E-015
   4.6840000000000007E-002     2.9010792944812099E-015
   4.7260000000000010E-002     1.5199900564074309E-015
   4.7680000000000014E-002    -3.2352650605158925E-016
   4.8099999999999990E-002    -2.5679499587250409E-015
   4.8519999999999994E-002    -5.1023887778788421E-015
   4.8939999999999997E-002    -7.7655831103846609E-015
   4.9360000000000001E-002    -1.0349030164444276E-014
   4.9780000000000005E-002    -1.2604813571653603E-014
   5.0200000000000009E-002    -1.4258473448499296E-014
   5.0620000000000012E-002    -1.5026886306856888E-014
   5.1040000000000016E-002    -1.4640722470728569E-014
   5.1459999999999992E-002    -1.2870574132477977E-014
   5.1879999999999996E-002    -9.5553396348602293E-015
   5.2299999999999999E-002    -4.6310230202552536E-015
   5.2720000000000003E-002     1.8424440927121654E-015
   5.3140000000000007E-002     9.6589501139842537E-015
   5.3560000000000010E-002     1.8451392114751319E-014
   5.3980000000000014E-002     2.7687202825903673E-014
   5.4400000000000018E-002     3.6676748530515882E-014
   5.4819999999999994E-002     4.4596742067181313E-014
   5.5239999999999997E-002     5.0529993203898022E-014
   5.5660000000000001E-002     5.3521629355108765E-014
   5.6080000000000005E-002     5.2650790714543624E-014
   5.6500000000000009E-002     4.7115068788600225E-014
   5.6920000000000012E-002     3.6323368357224531E-014
   5.7340000000000016E-002     1.9991393395865202E-014
   5.7759999999999992E-002    -1.7677232949931736E-015
   5.8179999999999996E-002    -2.8366033514936899E-014
   5.8599999999999999E-002    -5.8686101456271255E-014
   5.9020000000000003E-002    -9.1057904907451972E-014
   5.9440000000000007E-002    -1.2327614511531719E-013
   5.9860000000000010E-002    -1.5266467297138393E-013
   6.0280000000000014E-002    -1.7619271795240393E-013
   6.0700000000000018E-002    -1.9064384474181829E-013
   6.1119999999999994E-002    -1.9283512494234815E-013
   6.1539999999999997E-002    -1.7987875668968371E-013
   6.1960000000000001E-002    -1.4947424552091225E-013
   6.2380000000000005E-002    -1.0021417476978726E-013
   6.2800000000000009E-002    -3.1882064474230555E-014
   6.3220000000000012E-002     5.4281774174010491E-014
   6.3640000000000016E-002     1.5537368037324381E-013
   6.4059999999999992E-002     2.6670617656532076E-013
   6.4479999999999996E-002     3.8179952328607407E-013
   6.4899999999999999E-002     4.9250809927655907E-013
   6.5320000000000003E-002     5.8929727496034932E-013
   6.5740000000000007E-002     6.6168028883365267E-013
   6.6160000000000010E-002     6.9881309753279175E-013
   6.6580000000000014E-002     6.9023438176455257E-013
   6.7000000000000018E-002     6.2672590874689229E-013
   6.7419999999999994E-002     5.0125392580914607E-013
   6.7839999999999998E-002     3.0993878835009377E-013
   6.8260000000000001E-002     5.2991654723689915E-014
   6.8680000000000005E-002    -2.6445810087614263E-013
   6.9100000000000009E-002    -6.3172120619535342E-013
   6.9520000000000012E-002    -1.0321789604996949E-012
   6.9940000000000016E-002    -1.4432630075511688E-012
   7.0359999999999992E-002    -1.8368574566762301E-012
   7.0779999999999996E-002    -2.1801791139391509E-012
   7.1199999999999999E-002    -2.4371718346659347E-012
   7.1620000000000003E-002    -2.5704204493807068E-012
   7.2040000000000007E-002    -2.5435559254852224E-012
   7.2460000000000011E-002    -2.3240811796194586E-012
   7.2880000000000014E-002    -1.8865082432523412E-012
   7.3300000000000018E-002    -1.2156438926621447E-012
   7.3719999999999994E-002    -3.0982892167132009E-013
   7.4139999999999998E-002     8.1611688667733675E-013
   7.4560000000000001E-002     2.1285013904233278E-012
   7.4980000000000005E-002     3.5732126743895858E-012
   7.5400000000000009E-002     5.0752871937313558E-012
   7.5820000000000012E-002     6.5398698418545449E-012
   7.6240000000000016E-002     7.8547652371793711E-012
   7.6659999999999992E-002     8.8947373281226793E-012
   7.7079999999999996E-002     9.5276024682288107E-012
   7.7499999999999999E-002     9.6220506551097783E-012
   7.7920000000000003E-002     9.0570055545830272E-012
   7.8340000000000007E-002     7.7321664638821204E-012
   7.8760000000000011E-002     5.5792398003474860E-012
   7.9180000000000014E-002     2.5732280687828819E-012
   7.9600000000000018E-002    -1.2570070602458210E-012
   8.0019999999999994E-002    -5.8197629645507988E-012
   8.0439999999999998E-002    -1.0954020390468319E-011
   8.0860000000000001E-002    -1.6426413616169791E-011
   8.1280000000000005E-002    -2.1932515658310844E-011
   8.1700000000000009E-002    -2.7103170550498465E-011
   8.2120000000000012E-002    -3.1516450258001598E-011
   8.2540000000000016E-002    -3.4715490650610437E-011
   8.2959999999999992E-002    -3.6232160319881626E-011
   8.3379999999999996E-002    -3.5616096385540092E-011
   8.3799999999999999E-002    -3.2468208458113863E-011
   8.4220000000000003E-002    -2.6477323233985247E-011
   8.4640000000000007E-002    -1.7458091384249687E-011
   8.5060000000000011E-002    -5.3880497851012482E-012
   8.5480000000000014E-002     9.5588816423615520E-012
   8.5900000000000018E-002     2.6985217401373010E-011
   8.6319999999999994E-002     4.6251973544118738E-011
   8.6739999999999998E-002     6.6472915681676751E-011
   8.7160000000000001E-002     8.6523608118934010E-011
   8.7580000000000005E-002     1.0506742656677460E-010
   8.8000000000000009E-002     1.2060010821447430E-010
   8.8420000000000012E-002     1.3151333401181529E-010
   8.8840000000000016E-002     1.3617697882518896E-010
   8.9259999999999992E-002     1.3303820606559278E-010
   8.9679999999999996E-002     1.2073430935032829E-010
   9.0100000000000000E-002     9.8214777253122451E-011
   9.0520000000000003E-002     6.4866739061686790E-011
   9.0940000000000007E-002     2.0636589293935304E-011
   9.1360000000000011E-002    -3.3860590785161638E-011
   9.1780000000000014E-002    -9.7252284726703863E-011
   9.2200000000000018E-002    -1.6735016518011486E-010
   9.2619999999999994E-002    -2.4113059052212557E-010
   9.3039999999999998E-002    -3.1476244575605682E-010
   9.3460000000000001E-002    -3.8368903361498020E-010
   9.3880000000000005E-002    -4.4276838710362809E-010
   9.4300000000000009E-002    -4.8647455358513993E-010
   9.4720000000000013E-002    -5.0915791822606296E-010
   9.5140000000000016E-002    -5.0536001463563373E-010
   9.5559999999999992E-002    -4.7017349189386463E-010
   9.5979999999999996E-002    -3.9963456133981974E-010
   9.6400000000000000E-002    -2.9113003873528632E-010
   9.6820000000000003E-002    -1.4379806435305348E-010
   9.7240000000000007E-002     4.1100865078394925E-011
   9.7660000000000011E-002     2.5987077033652894E-010
   9.8080000000000014E-002     5.0615091216522247E-010
   9.8500000000000018E-002     7.7079878313011617E-010
   9.8919999999999994E-002     1.0419112550628451E-009
   9.9339999999999998E-002     1.3050055278136712E-009
   9.9760000000000001E-002     1.5433779202988007E-009
  0.10018000000000001          1.7386498466519248E-009
  0.10060000000000001          1.8715031320191744E-009
  0.10102000000000001          1.9225945823499091E-009
  0.10144000000000002          1.8736318159817126E-009
  0.10185999999999999          1.7085771738184745E-009
  0.10228000000000000          1.4149359002190561E-009
  0.10270000000000000          9.8507379161560814E-010
  0.10312000000000000          4.1749575977246742E-010
  0.10354000000000001         -2.8198775932942714E-010
  0.10396000000000001         -1.0992853679158532E-009
  0.10438000000000001         -2.0113313173212629E-009
  0.10480000000000002         -2.9857487183427251E-009
  0.10521999999999999         -3.9809532125439510E-009
  0.10564000000000000         -4.9467586144879588E-009
  0.10606000000000000         -5.8255420865989709E-009
  0.10648000000000001         -6.5539919148369635E-009
  0.10690000000000001         -7.0654512295764390E-009
  0.10732000000000001         -7.2928309517684669E-009
  0.10774000000000002         -7.1720300801829257E-009
  0.10815999999999999         -6.6457896655136222E-009
  0.10858000000000000         -5.6678266634156313E-009
  0.10900000000000000         -4.2071149582769647E-009
  0.10942000000000000         -2.2520952241076419E-009
  0.10984000000000001          1.8538530963199056E-010
  0.11026000000000001          3.0666621125208155E-009
  0.11068000000000001          6.3236204130909784E-009
  0.11110000000000002          9.8570897596234588E-009
  0.11151999999999999          1.3536513473922095E-008
  0.11194000000000000          1.7201134446425769E-008
  0.11236000000000000          2.0662832087809087E-008
  0.11278000000000001          2.3710796176867253E-008
  0.11320000000000001          2.6118065979005501E-008
  0.11362000000000001          2.7649931978597695E-008
  0.11404000000000002          2.8074085900221843E-008
  0.11446000000000002          2.7172310381658385E-008
  0.11488000000000000          2.4753413527655521E-008
  0.11530000000000000          2.0666958082981977E-008
  0.11572000000000000          1.4817276304281176E-008
  0.11614000000000001          7.1772117470599114E-009
  0.11656000000000001         -2.1992205891604329E-009
  0.11698000000000001         -1.3165912996445376E-008
  0.11740000000000002         -2.5476279543010167E-008
  0.11781999999999999         -3.8778225422772455E-008
  0.11824000000000000         -5.2613184574057887E-008
  0.11866000000000000         -6.6419891528388467E-008
  0.11908000000000001         -7.9543496139814791E-008
  0.11950000000000001         -9.1250337671876478E-008
  0.11992000000000001         -1.0074866914686363E-007
  0.12034000000000002         -1.0721519232729217E-007
  0.12076000000000002         -1.0982719868643138E-007
  0.12118000000000000         -1.0779968107535729E-007
  0.12160000000000000         -1.0042645439326935E-007
  0.12202000000000000         -8.7124171020045847E-008
  0.12244000000000001         -6.7477762236827726E-008
  0.12286000000000001         -4.1285243576548431E-008
  0.12328000000000001         -8.6002854858255795E-009
  0.12370000000000002          3.0229997175767584E-008
  0.12411999999999999          7.4534105198900682E-008
  0.12454000000000000          1.2329459565584896E-007
  0.12496000000000000          1.7513788992065981E-007
  0.12537999999999999          2.2833785623777347E-007
  0.12580000000000002          2.8083473058673778E-007
  0.12622000000000000          3.3027070558636562E-007
  0.12664000000000003          3.7404340960652573E-007
  0.12706000000000001          4.0937727672341653E-007
  0.12747999999999998          4.3341242262435001E-007
  0.12790000000000001          4.4330980664355674E-007
  0.12831999999999999          4.3637109631010600E-007
  0.12874000000000002          4.1016956653852972E-007
  0.12916000000000000          3.6268926656282974E-007
  0.12958000000000003          2.9246698961813495E-007
  0.13000000000000000          1.9873273393611291E-007
  0.13041999999999998          8.1542662264998859E-008
  0.13084000000000001         -5.8102375879207610E-008
  0.13125999999999999         -2.1815817946019030E-007
  0.13168000000000002         -3.9546553302823349E-007
  0.13210000000000000         -5.8571177397822966E-007
  0.13252000000000003         -7.8343157157372469E-007
  0.13294000000000000         -9.8205076317549326E-007
  0.13336000000000003         -1.1739795460713316E-006
  0.13378000000000001         -1.3507553408310012E-006
  0.13419999999999999         -1.5032383432864258E-006
  0.13462000000000002         -1.6218576663058029E-006
  0.13503999999999999         -1.6969062391036500E-006
  0.13546000000000002         -1.7188812908739454E-006
  0.13588000000000000         -1.6788595795739611E-006
  0.13630000000000003         -1.5689056820554150E-006
  0.13672000000000001         -1.3824958083587917E-006
  0.13713999999999998         -1.1149500402194088E-006
  0.13756000000000002         -7.6385611453127373E-007
  0.13797999999999999         -3.2947559819475381E-007
  0.13840000000000002          1.8488945045107953E-007
  0.13882000000000000          7.7257663979419343E-007
  0.13924000000000003          1.4233087752420504E-006
  0.13966000000000001          2.1230140693286089E-006
  0.14007999999999998          2.8537386818347352E-006
  0.14050000000000001          3.5936490222507784E-006
  0.14091999999999999          4.3171363522141971E-006
  0.14134000000000002          4.9950234057947750E-006
  0.14176000000000000          5.5948701589225459E-006
  0.14218000000000003          6.0813793244595076E-006
  0.14260000000000000          6.4168736168374974E-006
  0.14301999999999998          6.5618466889831888E-006
  0.14344000000000001          6.4755588674107901E-006
  0.14385999999999999          6.1166667409315807E-006
  0.14428000000000002          5.4438527477606876E-006
  0.14470000000000000          4.4164219431176337E-006
  0.14512000000000003          2.9948426218295214E-006
  0.14554000000000000          1.1412016872159528E-006
  0.14596000000000003         -1.1804504125272459E-006
  0.14638000000000001         -4.0039236650835163E-006
  0.14679999999999999         -7.3608306281066953E-006
  0.14722000000000002         -1.1280822802704009E-005
  0.14763999999999999         -1.5791945089395641E-005
  0.14806000000000002         -2.0921270832239111E-005
  0.14848000000000000         -2.6695803285703106E-005
  0.14890000000000003         -3.3143595079094817E-005
  0.14932000000000001         -4.0295147866994060E-005