  -4.0000000000000001E-002     0.0000000000000000
  -3.9899999999999998E-002     0.0000000000000000
  -3.9800000000000002E-002     0.0000000000000000
  -3.9699999999999999E-002     0.0000000000000000
  -3.9600000000000003E-002     0.0000000000000000
  -3.9500000000000000E-002     0.0000000000000000
  -3.9399999999999998E-002     9.6397760180213379E-032
  -3.9300000000000002E-002     1.8034584793592440E-030
  -3.9199999999999999E-002     2.4967844196211307E-030
  -3.9100000000000003E-002    -6.2407775613404190E-031
  -3.9000000000000000E-002     1.1743014779629827E-028
  -3.8900000000000004E-002     7.2408181820730964E-028
  -3.8800000000000001E-002     1.6434345401445161E-027
  -3.8699999999999998E-002     1.6522075362271888E-027
  -3.8600000000000002E-002     7.2826591064114063E-027
  -3.8500000000000000E-002     1.9795228739868972E-026
  -3.8400000000000004E-002     4.6414024191214010E-026
  -3.8300000000000001E-002     5.2587957784264751E-026
  -3.8199999999999998E-002     8.2932971617788259E-026
  -3.8100000000000002E-002     1.3951387213334560E-025
  -3.7999999999999999E-002     2.3489159291715780E-025
  -3.7900000000000003E-002     4.3164531094095317E-025
  -3.7800000000000000E-002     8.4909990166549871E-025
  -3.7699999999999997E-002     1.6138374404048520E-024
  -3.7600000000000001E-002     2.4950364867342463E-024
  -3.7499999999999999E-002     3.5133040596503175E-024
  -3.7400000000000003E-002     4.3201103671737495E-024
  -3.7300000000000000E-002     4.4272195343019428E-024
  -3.7200000000000004E-002     5.3095052365282790E-024
  -3.7100000000000001E-002     6.2488058606794639E-024
  -3.6999999999999998E-002     7.1115116408077620E-024
  -3.6900000000000002E-002     8.2943233712089053E-024
  -3.6799999999999999E-002     1.0118733030766212E-023
  -3.6700000000000003E-002     1.2258366774884404E-023
  -3.6600000000000001E-002     1.9002427006040219E-023
  -3.6499999999999998E-002     3.0122798816270896E-023
  -3.6400000000000002E-002     4.0666820960538050E-023
  -3.6299999999999999E-002     4.7030748054129585E-023
  -3.6200000000000003E-002     4.2978562066070121E-023
  -3.6100000000000000E-002     5.0462214105750464E-023
  -3.6000000000000004E-002     4.3725771115495463E-023
  -3.5900000000000001E-002     5.7812984103668138E-023
  -3.5799999999999998E-002     4.4552784489536584E-023
  -3.5700000000000003E-002     4.3959403316629339E-023
  -3.5600000000000000E-002     5.7427426758519558E-023
  -3.5500000000000004E-002     8.5443481019532737E-023
  -3.5400000000000001E-002     7.7222262966132473E-023
  -3.5299999999999998E-002     5.8412726650915085E-023
  -3.5200000000000002E-002    -3.3711204011820065E-023
  -3.5099999999999999E-002    -1.3932620232120875E-022
  -3.5000000000000003E-002    -3.0584826444305429E-022
  -3.4900000000000000E-002    -5.5130729545994414E-022
  -3.4799999999999998E-002    -1.0028556194988736E-021
  -3.4700000000000002E-002    -1.5172479606397215E-021
  -3.4599999999999999E-002    -2.1035719965106339E-021
  -3.4500000000000003E-002    -2.6951850607611273E-021
  -3.4400000000000000E-002    -3.2917963477071011E-021
  -3.4299999999999997E-002    -4.0013638324998790E-021
  -3.4200000000000001E-002    -4.7498403100317602E-021
  -3.4099999999999998E-002    -5.5561047237558469E-021
  -3.4000000000000002E-002    -5.9471600128952593E-021
  -3.3900000000000000E-002    -6.0315659588086964E-021
  -3.3799999999999997E-002    -6.2212746624189049E-021
  -3.3700000000000001E-002    -6.6215226423501664E-021
  -3.3599999999999998E-002    -7.0904573092788732E-021
  -3.3500000000000002E-002    -7.9469398256793115E-021
  -3.3399999999999999E-002    -8.7096916311262680E-021
  -3.3300000000000003E-002    -8.4102352857171661E-021
  -3.3200000000000000E-002    -7.9876550448341067E-021
  -3.3099999999999997E-002    -6.7907077348049698E-021
  -3.3000000000000002E-002    -5.0301196361615565E-021
  -3.2899999999999999E-002    -3.3738621156570947E-021
  -3.2800000000000003E-002    -6.5595346844808193E-022
  -3.2700000000000000E-002     3.9741953114627736E-021
  -3.2600000000000004E-002     7.8335506504806241E-021
  -3.2500000000000001E-002     1.4147080992799767E-020
  -3.2399999999999998E-002     2.0624108753068844E-020
  -3.2300000000000002E-002     2.6810004480636201E-020
  -3.2199999999999999E-002     3.3064822770922552E-020
  -3.2100000000000004E-002     3.8540079879427360E-020
  -3.2000000000000001E-002     4.4252440555702251E-020
  -3.1899999999999998E-002     5.1036213382734987E-020
  -3.1800000000000002E-002     6.0184433523136535E-020
  -3.1699999999999999E-002     7.1894764831564392E-020
  -3.1600000000000003E-002     8.4079600543565051E-020
  -3.1500000000000000E-002     9.6400190811252440E-020
  -3.1399999999999997E-002     1.0872688153595741E-019
  -3.1300000000000001E-002     1.2719827697866401E-019
  -3.1199999999999999E-002     1.4310825595581187E-019
  -3.1100000000000003E-002     1.5260319078866958E-019
  -3.1000000000000000E-002     1.5999790112155808E-019
  -3.0900000000000000E-002     1.6308818326657084E-019
  -3.0800000000000001E-002     1.6347441198914775E-019
  -3.0699999999999998E-002     1.5847198553594503E-019
  -3.0600000000000002E-002     1.4536949633189335E-019
  -3.0499999999999999E-002     1.2979469352389139E-019
  -3.0400000000000000E-002     1.0885920458457175E-019
  -3.0300000000000001E-002     7.4677555508557631E-020
  -3.0200000000000001E-002     4.0624474856658688E-020
  -3.0100000000000002E-002    -2.8893392543186331E-021
  -2.9999999999999999E-002    -8.2624299040400175E-020
  -2.9899999999999999E-002    -1.6850885291699568E-019
  -2.9800000000000000E-002    -2.5323366726304916E-019
  -2.9700000000000001E-002    -3.6160376253635772E-019
  -2.9600000000000001E-002    -4.9455650239200586E-019
  -2.9499999999999998E-002    -6.5342946372988597E-019
  -2.9400000000000003E-002    -8.3175331867800910E-019
  -2.9300000000000000E-002    -1.0046012379710312E-018
  -2.9200000000000000E-002    -1.1654059762319523E-018
  -2.9100000000000001E-002    -1.3089658598775211E-018
  -2.8999999999999998E-002    -1.4339288621965195E-018
  -2.8900000000000002E-002    -1.5178921404664443E-018
  -2.8799999999999999E-002    -1.5505811809011977E-018
  -2.8700000000000000E-002    -1.5274993262933649E-018
  -2.8600000000000000E-002    -1.4537964997391244E-018
  -2.8500000000000001E-002    -1.3390324275777517E-018
  -2.8400000000000002E-002    -1.1759807565804068E-018
  -2.8299999999999999E-002    -9.4055988097141009E-019
  -2.8200000000000003E-002    -6.4045777246019424E-019
  -2.8100000000000000E-002    -2.5502009304282814E-019
  -2.8000000000000001E-002     2.4066450275894106E-019
  -2.7900000000000001E-002     7.9524017057263477E-019
  -2.7799999999999998E-002     1.3786201543211973E-018
  -2.7700000000000002E-002     2.0160306451035345E-018
  -2.7600000000000000E-002     2.6689954401243188E-018
  -2.7500000000000000E-002     3.2831096297250188E-018
  -2.7400000000000001E-002     3.8515742028607548E-018
  -2.7299999999999998E-002     4.3705311891545796E-018
  -2.7200000000000002E-002     4.8218946981033274E-018
  -2.7099999999999999E-002     5.1783694238539735E-018
  -2.7000000000000000E-002     5.4417193290627872E-018
  -2.6900000000000000E-002     5.6166403180672320E-018
  -2.6800000000000001E-002     5.6923786293138124E-018
  -2.6700000000000002E-002     5.6107325941323783E-018
  -2.6599999999999999E-002     5.4383742106656228E-018
  -2.6500000000000003E-002     5.0213304253317000E-018
  -2.6400000000000000E-002     4.4308367917127581E-018
  -2.6300000000000000E-002     3.6943461935685129E-018
  -2.6200000000000001E-002     2.7639475026392808E-018
  -2.6099999999999998E-002     1.6964294597113944E-018
  -2.6000000000000002E-002     4.0207279852369033E-019
  -2.5899999999999999E-002    -1.0403291331811513E-018
  -2.5800000000000000E-002    -2.5694277097913108E-018
  -2.5700000000000001E-002    -4.1802200912632794E-018
  -2.5599999999999998E-002    -5.9786765926663784E-018
  -2.5500000000000002E-002    -7.8548301690065834E-018
  -2.5399999999999999E-002    -9.7809202253363083E-018
  -2.5300000000000000E-002    -1.1625225280141690E-017
  -2.5200000000000000E-002    -1.3330760033843339E-017
  -2.5100000000000001E-002    -1.4859247530775975E-017
  -2.5000000000000001E-002    -1.6009868997727037E-017
  -2.4899999999999999E-002    -1.6878165449807626E-017
  -2.4800000000000003E-002    -1.7376952050454651E-017
  -2.4700000000000000E-002    -1.7665164936925277E-017
  -2.4600000000000000E-002    -1.7565094280779837E-017
  -2.4500000000000001E-002    -1.7211456370939942E-017
  -2.4399999999999998E-002    -1.6314331020150655E-017
  -2.4299999999999999E-002    -1.4976325020315505E-017
  -2.4199999999999999E-002    -1.3215798472310719E-017
  -2.4100000000000000E-002    -1.0985002375276673E-017
  -2.4000000000000000E-002    -8.3019370065231333E-018
  -2.3900000000000001E-002    -5.1381887120089039E-018
  -2.3800000000000002E-002    -1.3876260832403684E-018
  -2.3699999999999999E-002     2.9261220519945898E-018
  -2.3599999999999999E-002     7.4848273179279388E-018
  -2.3500000000000000E-002     1.2566152325907497E-017
  -2.3400000000000001E-002     1.8133496401779325E-017
  -2.3300000000000001E-002     2.4396029534220320E-017
  -2.3199999999999998E-002     3.1468991217448918E-017
  -2.3099999999999999E-002     3.9458824707049668E-017
  -2.3000000000000000E-002     4.8189322334575300E-017
  -2.2900000000000000E-002     5.7761135436961266E-017
  -2.2800000000000001E-002     6.7934093777714019E-017
  -2.2700000000000001E-002     7.8411838395690511E-017
  -2.2599999999999999E-002     8.8783015680990571E-017
  -2.2499999999999999E-002     9.9258609629374425E-017
  -2.2400000000000000E-002     1.0956662340309994E-016
  -2.2300000000000000E-002     1.1922187255951290E-016
  -2.2200000000000001E-002     1.2735979453981779E-016
  -2.2100000000000002E-002     1.3340688186427445E-016
  -2.1999999999999999E-002     1.3655071082245779E-016
  -2.1899999999999999E-002     1.3597921504596735E-016
  -2.1800000000000000E-002     1.3116164898400952E-016
  -2.1700000000000001E-002     1.2256319254330450E-016
  -2.1600000000000001E-002     1.0938193051592910E-016
  -2.1499999999999998E-002     9.0133854560848868E-017
  -2.1399999999999999E-002     6.4981237661912021E-017
  -2.1299999999999999E-002     3.4516212097530964E-017
  -2.1200000000000000E-002    -1.7944101406416428E-018
  -2.1100000000000001E-002    -4.2675604377815285E-017
  -2.1000000000000001E-002    -8.8663650209876719E-017
  -2.0899999999999998E-002    -1.3887688828874471E-016
  -2.0799999999999999E-002    -1.9207581162756571E-016
  -2.0700000000000000E-002    -2.4708517524691417E-016
  -2.0600000000000000E-002    -3.0267375058350696E-016
  -2.0500000000000001E-002    -3.5680524396236514E-016
  -2.0400000000000001E-002    -4.0743245615931388E-016
  -2.0299999999999999E-002    -4.5150498330327402E-016
  -2.0199999999999999E-002    -4.8665886231757721E-016
  -2.0100000000000000E-002    -5.1062248318658543E-016
  -2.0000000000000000E-002    -5.2158748350746996E-016
  -1.9900000000000001E-002    -5.1650041538449745E-016
  -1.9799999999999998E-002    -4.9328684219028291E-016
  -1.9699999999999999E-002    -4.5077785845761540E-016
  -1.9599999999999999E-002    -3.8878222002887268E-016
  -1.9500000000000000E-002    -3.0563611596763087E-016
  -1.9400000000000001E-002    -2.0130974130205847E-016
  -1.9300000000000001E-002    -7.4082176546240951E-017
  -1.9199999999999998E-002     7.2796373914864023E-017
  -1.9099999999999999E-002     2.3875579735075020E-016
  -1.9000000000000000E-002     4.2211730754718407E-016
  -1.8900000000000000E-002     6.2060870553593147E-016
  -1.8800000000000001E-002     8.3178656596195975E-016
  -1.8700000000000001E-002     1.0523367930097977E-015
  -1.8599999999999998E-002     1.2761493674539855E-015
  -1.8499999999999999E-002     1.4984397178128390E-015
  -1.8400000000000000E-002     1.7140836123928247E-015
  -1.8300000000000000E-002     1.9170072955665375E-015
  -1.8200000000000001E-002     2.1011027068722080E-015
  -1.8100000000000002E-002     2.2600287459084538E-015
  -1.7999999999999999E-002     2.3862497840600270E-015
  -1.7899999999999999E-002     2.4728461974225704E-015
  -1.7800000000000000E-002     2.5146059805133915E-015
  -1.7700000000000000E-002     2.5059554447813201E-015
  -1.7600000000000001E-002     2.4380693539489138E-015
  -1.7499999999999998E-002     2.3049286918929834E-015
  -1.7399999999999999E-002     2.1052900142469596E-015
  -1.7299999999999999E-002     1.8379054297213001E-015
  -1.7200000000000000E-002     1.5005268069948736E-015
  -1.7100000000000001E-002     1.0904124062965362E-015
  -1.7000000000000001E-002     6.1326101235585563E-016
  -1.6899999999999998E-002     7.1978570221734896E-017
  -1.6799999999999999E-002    -5.3008772383096288E-016
  -1.6700000000000000E-002    -1.1846489509641949E-015
  -1.6600000000000000E-002    -1.8824862560429517E-015
  -1.6500000000000001E-002    -2.6113854239678260E-015
  -1.6400000000000001E-002    -3.3595454858385528E-015
  -1.6299999999999999E-002    -4.1091012462481178E-015
  -1.6199999999999999E-002    -4.8452270875207291E-015
  -1.6100000000000000E-002    -5.5492914611903442E-015
  -1.6000000000000000E-002    -6.2065403238652141E-015
  -1.5900000000000001E-002    -6.7975122465492241E-015
  -1.5799999999999998E-002    -7.2990252080254447E-015
  -1.5699999999999999E-002    -7.6935689196917616E-015
  -1.5599999999999999E-002    -7.9599048774287202E-015
  -1.5500000000000000E-002    -8.0820114530390057E-015
  -1.5400000000000000E-002    -8.0433172939425347E-015
  -1.5300000000000001E-002    -7.8287621543371259E-015
  -1.5199999999999998E-002    -7.4262292279123066E-015
  -1.5099999999999999E-002    -6.8295466090979081E-015
  -1.4999999999999999E-002    -6.0344799801906063E-015
  -1.4900000000000000E-002    -5.0391222465096582E-015
  -1.4800000000000001E-002    -3.8451670504330987E-015
  -1.4700000000000001E-002    -2.4659316557158967E-015
  -1.4599999999999998E-002    -9.1270076467696607E-016
  -1.4499999999999999E-002     7.9533836766469278E-016
  -1.4400000000000000E-002     2.6344926945271602E-015
  -1.4300000000000000E-002     4.5712724919396916E-015
  -1.4200000000000001E-002     6.5763189097361834E-015
  -1.4099999999999998E-002     8.6073082526411798E-015
  -1.3999999999999999E-002     1.0618504129634738E-014
  -1.3899999999999999E-002     1.2571806151716412E-014
  -1.3800000000000000E-002     1.4412555282799881E-014
  -1.3700000000000000E-002     1.6097583335761279E-014
  -1.3600000000000001E-002     1.7580316203995826E-014
  -1.3499999999999998E-002     1.8821102581176655E-014
  -1.3399999999999999E-002     1.9772169809078623E-014
  -1.3299999999999999E-002     2.0388005113379862E-014
  -1.3200000000000000E-002     2.0633397334463011E-014
  -1.3100000000000001E-002     2.0467365324274012E-014
  -1.3000000000000001E-002     1.9868699377813617E-014
  -1.2899999999999998E-002     1.8817951618612869E-014
  -1.2799999999999999E-002     1.7301132450514914E-014
  -1.2699999999999999E-002     1.5315837994015445E-014
  -1.2600000000000000E-002     1.2872381722280231E-014
  -1.2500000000000001E-002     9.9862228336296092E-015
  -1.2399999999999998E-002     6.6811832826721602E-015
  -1.2299999999999998E-002     2.9992235993072042E-015
  -1.2199999999999999E-002    -1.0137285018783546E-015
  -1.2100000000000000E-002    -5.2982588477114290E-015
  -1.2000000000000000E-002    -9.7919888614617784E-015
  -1.1900000000000001E-002    -1.4419628007909455E-014
  -1.1799999999999998E-002    -1.9105107646193338E-014
  -1.1699999999999999E-002    -2.3765906438460126E-014
  -1.1599999999999999E-002    -2.8313870277757273E-014
  -1.1500000000000000E-002    -3.2649654057833113E-014
  -1.1400000000000000E-002    -3.6698197107033759E-014
  -1.1300000000000001E-002    -4.0356955922698709E-014
  -1.1199999999999998E-002    -4.3532536652063705E-014
  -1.1099999999999999E-002    -4.6135313044913875E-014
  -1.0999999999999999E-002    -4.8100792012645277E-014
  -1.0900000000000000E-002    -4.9352970982966676E-014
  -1.0800000000000001E-002    -4.9826137139830085E-014
  -1.0699999999999998E-002    -4.9461296332525134E-014
  -1.0599999999999998E-002    -4.8201920970283862E-014
  -1.0499999999999999E-002    -4.6009982661906340E-014
  -1.0400000000000000E-002    -4.2855188121066964E-014
  -1.0300000000000000E-002    -3.8721379347263912E-014
  -1.0200000000000001E-002    -3.3620858647023105E-014
  -1.0099999999999998E-002    -2.7557610463328427E-014
  -9.9999999999999985E-003    -2.0553327309959062E-014
  -9.8999999999999991E-003    -1.2649290184632393E-014
  -9.7999999999999997E-003    -3.9032133712754886E-015
  -9.7000000000000003E-003     5.6052426460377006E-015
  -9.6000000000000009E-003     1.5762356494358233E-014
  -9.4999999999999980E-003     2.6429077974515422E-014
  -9.3999999999999986E-003     3.7489796830087949E-014
  -9.2999999999999992E-003     4.8791110312130376E-014
  -9.1999999999999998E-003     6.0158421213291069E-014
  -9.1000000000000004E-003     7.1389380138734554E-014
  -9.0000000000000011E-003     8.2294820914416422E-014
  -8.8999999999999982E-003     9.2654406553833307E-014
  -8.7999999999999988E-003     1.0222442196113762E-013
  -8.6999999999999994E-003     1.1077950216225110E-013
  -8.5999999999999965E-003     1.1808861722674424E-013
  -8.5000000000000006E-003     1.2389473670083861E-013
  -8.3999999999999977E-003     1.2795833999584144E-013
  -8.3000000000000018E-003     1.3006014722236753E-013
  -8.1999999999999990E-003     1.2995465435098469E-013
  -8.0999999999999961E-003     1.2742614580694978E-013
  -8.0000000000000002E-003     1.2228397819075837E-013
  -7.8999999999999973E-003     1.1435850096747080E-013
  -7.8000000000000014E-003     1.0350415999543089E-013
  -7.6999999999999985E-003     8.9632714770325472E-014
  -7.6000000000000026E-003     7.2693688904761772E-014
  -7.4999999999999997E-003     5.2791423305314361E-014
  -7.3999999999999969E-003     2.9985078141151270E-014
  -7.3000000000000009E-003     4.4311203029046269E-015
  -7.1999999999999981E-003    -2.3620364155265208E-014
  -7.1000000000000021E-003    -5.3875500116923672E-014
  -6.9999999999999993E-003    -8.5940105129956451E-014
  -6.8999999999999964E-003    -1.1936262254205049E-013
  -6.8000000000000005E-003    -1.5364279130642561E-013
  -6.6999999999999976E-003    -1.8814158943888243E-013
  -6.6000000000000017E-003    -2.2221379467404767E-013
  -6.4999999999999988E-003    -2.5508406693332264E-013
  -6.3999999999999960E-003    -2.8596840607325591E-013
  -6.3000000000000000E-003    -3.1407252558228460E-013
  -6.1999999999999972E-003    -3.3861197808356114E-013
  -6.1000000000000013E-003    -3.5869064337647194E-013
  -5.9999999999999984E-003    -3.7350846157288564E-013
  -5.9000000000000025E-003    -3.8225423260734859E-013
  -5.7999999999999996E-003    -3.8423431103495886E-013
  -5.6999999999999967E-003    -3.7874835646239946E-013
  -5.6000000000000008E-003    -3.6521108945190839E-013
  -5.4999999999999979E-003    -3.4311984677126706E-013
  -5.4000000000000020E-003    -3.1214874435248063E-013
  -5.2999999999999992E-003    -2.7208644408707738E-013
  -5.1999999999999963E-003    -2.2291131614171622E-013
  -5.1000000000000004E-003    -1.6476514705550394E-013
  -4.9999999999999975E-003    -9.8038500332287698E-014
  -4.9000000000000016E-003    -2.3295865833172086E-014
  -4.7999999999999987E-003     5.8671492143835824E-014
  -4.6999999999999958E-003     1.4683375771772783E-013
  -4.5999999999999999E-003     2.3984048254377388E-013
  -4.4999999999999971E-003     3.3623521718609273E-013
  -4.4000000000000011E-003     4.3433502237497090E-013
  -4.2999999999999983E-003     5.3230092859554712E-013
  -4.2000000000000023E-003     6.2794138378646780E-013
  -4.0999999999999995E-003     7.1907865946407856E-013
  -3.9999999999999966E-003     8.0344595993625534E-013
  -3.9000000000000007E-003     8.7868980754718384E-013
  -3.7999999999999978E-003     9.4245455623670482E-013
  -3.7000000000000019E-003     9.9258069211766164E-013
  -3.5999999999999990E-003     1.0267187490822782E-012
  -3.4999999999999962E-003     1.0427989851832797E-012
  -3.4000000000000002E-003     1.0390250942612922E-012
  -3.2999999999999974E-003     1.0137145029648353E-012
  -3.2000000000000015E-003     9.6541026041452316E-013
  -3.0999999999999986E-003     8.9341191779682139E-013
  -2.9999999999999957E-003     7.9702639887296867E-013
  -2.8999999999999998E-003     6.7603301429075557E-013
  -2.7999999999999969E-003     5.3076618621028526E-013
  -2.7000000000000010E-003     3.6221112914569531E-013
  -2.5999999999999981E-003     1.7183570376073237E-013
  -2.5000000000000022E-003    -3.8195493859763396E-014
  -2.3999999999999994E-003    -2.6562771622030967E-013
  -2.2999999999999965E-003    -5.0714863081627315E-013
  -2.2000000000000006E-003    -7.5931399839621050E-013
  -2.0999999999999977E-003    -1.0179756343431379E-012
  -2.0000000000000018E-003    -1.2780863607037007E-012
  -1.8999999999999989E-003    -1.5346532638432775E-012
  -1.7999999999999960E-003    -1.7822958820606916E-012
  -1.7000000000000001E-003    -2.0155997097065503E-012
  -1.5999999999999973E-003    -2.2289184387069838E-012
  -1.5000000000000013E-003    -2.4166391544150345E-012
  -1.3999999999999985E-003    -2.5728486181819665E-012
  -1.2999999999999956E-003    -2.6920906909949638E-012
  -1.1999999999999997E-003    -2.7696538638932733E-012
  -1.0999999999999968E-003    -2.8006256168333632E-012
  -1.0000000000000009E-003    -2.7812483219258333E-012
  -8.9999999999999802E-004    -2.7080429912396120E-012
  -8.0000000000000210E-004    -2.5791617105919151E-012
  -6.9999999999999923E-004    -2.3926351351566399E-012
  -5.9999999999999637E-004    -2.1487208713699690E-012
  -5.0000000000000044E-004    -1.8486202152390163E-012
  -3.9999999999999758E-004    -1.4943346039741900E-012
  -3.0000000000000165E-004    -1.0886021901621024E-012
  -1.9999999999999879E-004    -6.3523139656393446E-013
  -9.9999999999995925E-005    -1.3911665059946482E-013
   0.0000000000000000          3.9377764829255646E-013
   1.0000000000000286E-004     9.5677177118502765E-013
   1.9999999999999879E-004     1.5420552204950533E-012
   3.0000000000000165E-004     2.1420270071570435E-012
   4.0000000000000452E-004     2.7469205295810317E-012
   5.0000000000000044E-004     3.3461595039946390E-012
   6.0000000000000331E-004     3.9296356967033486E-012
   6.9999999999999923E-004     4.4850655307737686E-012
   8.0000000000000210E-004     5.0000767415347980E-012
   8.9999999999999802E-004     5.4630419112078332E-012
   1.0000000000000009E-003     5.8613183750999553E-012
   1.1000000000000038E-003     6.1833086394125214E-012
   1.1999999999999997E-003     6.4178324113428609E-012
   1.3000000000000025E-003     6.5523190172223078E-012
   1.3999999999999985E-003     6.5760461312458496E-012
   1.5000000000000013E-003     6.4807148363044131E-012
   1.6000000000000042E-003     6.2600480355001764E-012
   1.7000000000000001E-003     5.9079230223246793E-012
   1.8000000000000030E-003     5.4216483733049436E-012
   1.8999999999999989E-003     4.7987772609781043E-012
   2.0000000000000018E-003     4.0423523903210246E-012
   2.1000000000000046E-003     3.1541076174479432E-012
   2.2000000000000006E-003     2.1408278795542746E-012
   2.3000000000000034E-003     1.0117373518830908E-012
   2.3999999999999994E-003    -2.2140888298119443E-013
   2.5000000000000022E-003    -1.5417192262418000E-012
   2.5999999999999981E-003    -2.9317930461819630E-012
   2.7000000000000010E-003    -4.3712620328983931E-012
   2.8000000000000039E-003    -5.8354931130322196E-012
   2.8999999999999998E-003    -7.2994310248986061E-012
   3.0000000000000027E-003    -8.7382471050667654E-012
   3.0999999999999986E-003    -1.0124984184400887E-011
   3.2000000000000015E-003    -1.1429583841870983E-011
   3.3000000000000043E-003    -1.2622940886997114E-011
   3.4000000000000002E-003    -1.3673075692499648E-011
   3.5000000000000031E-003    -1.4550708728189310E-011
   3.5999999999999990E-003    -1.5228762695329578E-011
   3.7000000000000019E-003    -1.5682533396899068E-011
   3.7999999999999978E-003    -1.5892016869134551E-011
   3.9000000000000007E-003    -1.5841111408732012E-011
   4.0000000000000036E-003    -1.5521153806652421E-011
   4.0999999999999995E-003    -1.4926504476875380E-011
   4.2000000000000023E-003    -1.4052040780976327E-011
   4.2999999999999983E-003    -1.2897133881695222E-011
   4.4000000000000011E-003    -1.1472172170567951E-011
   4.5000000000000040E-003    -9.7873688320593288E-012
   4.5999999999999999E-003    -7.8653940999151573E-012
   4.7000000000000028E-003    -5.7309278850281586E-012
   4.7999999999999987E-003    -3.4070714999279161E-012
   4.9000000000000016E-003    -9.2806697656738768E-013
   5.0000000000000044E-003     1.6800854327550518E-012
   5.1000000000000004E-003     4.3849164750586755E-012
   5.2000000000000032E-003     7.1432217779721086E-012
   5.2999999999999992E-003     9.9152830043691687E-012
   5.4000000000000020E-003     1.2665349671814319E-011
   5.4999999999999979E-003     1.5340893486093243E-011
   5.6000000000000008E-003     1.7899374690766301E-011
   5.7000000000000037E-003     2.0299614419960754E-011
   5.7999999999999996E-003     2.2495633827945838E-011
   5.9000000000000025E-003     2.4435000897660153E-011
   5.9999999999999984E-003     2.6070427067148572E-011
   6.1000000000000013E-003     2.7382108733209343E-011
   6.2000000000000041E-003     2.8328910398056628E-011
   6.3000000000000000E-003     2.8881902078281563E-011
   6.4000000000000029E-003     2.9016605090914638E-011
   6.4999999999999988E-003     2.8722109760015435E-011
   6.6000000000000017E-003     2.7996688301001882E-011
   6.7000000000000046E-003     2.6842396361193011E-011
   6.8000000000000005E-003     2.5246180146432096E-011
   6.9000000000000034E-003     2.3212931576921392E-011
   6.9999999999999993E-003     2.0756183230496994E-011
   7.1000000000000021E-003     1.7913802385916000E-011
   7.1999999999999981E-003     1.4716000987236022E-011
   7.3000000000000009E-003     1.1195377958017616E-011
   7.4000000000000038E-003     7.3793306534786218E-012
   7.4999999999999997E-003     3.2942466029334261E-012
   7.6000000000000026E-003    -1.0281028415756732E-012
   7.6999999999999985E-003    -5.5378123961502546E-012
   7.8000000000000014E-003    -1.0213522735891267E-011
   7.9000000000000042E-003    -1.5001690861771166E-011
   8.0000000000000002E-003    -1.9872326006975527E-011
   8.1000000000000030E-003    -2.4786056887493579E-011
   8.1999999999999990E-003    -2.9711441640323244E-011
   8.3000000000000018E-003    -3.4581001256972499E-011
   8.4000000000000047E-003    -3.9339635715673893E-011
   8.5000000000000006E-003    -4.3927955023503884E-011
   8.6000000000000035E-003    -4.8279991116118026E-011
   8.6999999999999994E-003    -5.2337970762872388E-011
   8.8000000000000023E-003    -5.6073500009912181E-011
   8.8999999999999982E-003    -5.9410677766269515E-011
   9.0000000000000011E-003    -6.2295661684697023E-011
   9.1000000000000039E-003    -6.4690135193057330E-011
   9.1999999999999998E-003    -6.6532779285921606E-011
   9.3000000000000027E-003    -6.7774612311222171E-011
   9.3999999999999986E-003    -6.8369726546890774E-011
   9.5000000000000015E-003    -6.8285828380698632E-011
   9.6000000000000044E-003    -6.7394721747771058E-011
   9.7000000000000003E-003    -6.5616685696046062E-011
   9.8000000000000032E-003    -6.2904362274629477E-011
   9.8999999999999991E-003    -5.9190742585091272E-011
   1.0000000000000002E-002    -5.4404213772896171E-011
   1.0100000000000005E-002    -4.8500953253594048E-011
   1.0200000000000001E-002    -4.1484832929983284E-011
   1.0300000000000004E-002    -3.3250877745638618E-011
   1.0400000000000000E-002    -2.3755865330432613E-011
   1.0500000000000002E-002    -1.3028365712652867E-011
   1.0599999999999998E-002    -1.1205372567324456E-012
   1.0700000000000001E-002     1.1933570451261311E-011
   1.0800000000000004E-002     2.5953045268423125E-011
   1.0900000000000000E-002     4.0796394040754080E-011
   1.1000000000000003E-002     5.6254653713061487E-011
   1.1099999999999999E-002     7.2079522905887927E-011
   1.1200000000000002E-002     8.8006935072826309E-011
   1.1300000000000004E-002     1.0370357350630854E-010
   1.1400000000000000E-002     1.1875544991823972E-010
   1.1500000000000003E-002     1.3285514355310113E-010
   1.1599999999999999E-002     1.4550388671707992E-010
   1.1700000000000002E-002     1.5637180439398435E-010
   1.1800000000000005E-002     1.6517111289804376E-010
   1.1900000000000001E-002     1.7160703413843237E-010
   1.2000000000000004E-002     1.7528735407612572E-010
   1.2100000000000000E-002     1.7600740309653418E-010
   1.2200000000000003E-002     1.7357452974930965E-010
   1.2299999999999998E-002     1.6793100243717163E-010
   1.2400000000000001E-002     1.5904980110725830E-010
   1.2500000000000004E-002     1.4701569128749981E-010
   1.2600000000000000E-002     1.3201639781357244E-010
   1.2700000000000003E-002     1.1435977859131086E-010
   1.2799999999999999E-002     9.4345406487228445E-011
   1.2900000000000002E-002     7.2457533029091081E-011
   1.3000000000000005E-002     4.9008692937224652E-011
   1.3100000000000001E-002     2.4799298031785710E-011
   1.3200000000000003E-002     4.8112490554086396E-013
   1.3299999999999999E-002    -2.3605071022836377E-011
   1.3400000000000002E-002    -4.7009930670416367E-011
   1.3500000000000005E-002    -6.9232959643006353E-011
   1.3600000000000001E-002    -8.9622982646364591E-011
   1.3700000000000004E-002    -1.0782808673726052E-010
   1.3800000000000000E-002    -1.2346795807971489E-010
   1.3900000000000003E-002    -1.3628347061978019E-010
   1.3999999999999999E-002    -1.4607619280848638E-010
   1.4100000000000001E-002    -1.5307975720357803E-010
   1.4200000000000004E-002    -1.5745937886890715E-010
   1.4300000000000000E-002    -1.5932573316224108E-010
   1.4400000000000003E-002    -1.5877152370613601E-010
   1.4499999999999999E-002    -1.5602320824203986E-010