  -4.0000000000000001E-002     0.0000000000000000
  -3.9899999999999998E-002     0.0000000000000000
  -3.9800000000000002E-002     0.0000000000000000
  -3.9699999999999999E-002     0.0000000000000000
  -3.9600000000000003E-002     0.0000000000000000
  -3.9500000000000000E-002     1.2286281659312045E-020
  -3.9399999999999998E-002     1.5744084027891232E-019
  -3.9300000000000002E-002     1.0709705914071062E-018
  -3.9199999999999999E-002     5.1509744427371361E-018
  -3.9100000000000003E-002     1.9666730261066791E-017
  -3.9000000000000000E-002     6.3429890201570870E-017
  -3.8900000000000004E-002     1.7956236890465132E-016
  -3.8800000000000001E-002     4.5777556821179760E-016
  -3.8699999999999998E-002     1.0703351843477675E-015
  -3.8600000000000002E-002     2.3262895922733159E-015
  -3.8500000000000000E-002     4.7483061895641030E-015
  -3.8400000000000004E-002     9.1752709488295003E-015
  -3.8300000000000001E-002     1.6891370097885279E-014
  -3.8199999999999998E-002     2.9778429207075532E-014
  -3.8100000000000002E-002     5.0482709646696572E-014
  -3.7999999999999999E-002     8.2580115163578827E-014
  -3.7900000000000003E-002     1.3071518151740180E-013
  -3.7800000000000000E-002     2.0067962862215655E-013
  -3.7699999999999997E-002     2.9938665479026239E-013
  -3.7600000000000001E-002     4.3468795728716925E-013
  -3.7499999999999999E-002     6.1497432580354117E-013
  -3.7400000000000003E-002     8.4849705386802476E-013
  -3.7300000000000000E-002     1.1423499949800298E-012
  -3.7200000000000004E-002     1.5010613195129419E-012
  -3.7100000000000001E-002     1.9247617822487628E-012
  -3.6999999999999998E-002     2.4069223177047849E-012
  -3.6900000000000002E-002     2.9316937332629633E-012
  -3.6799999999999999E-002     3.4709251531955809E-012
  -3.6700000000000003E-002     3.9809978230609389E-012
  -3.6600000000000001E-002     4.3996742013496792E-012
  -3.6499999999999998E-002     4.6432254742490020E-012
  -3.6400000000000002E-002     4.6041751140812881E-012
  -3.6299999999999999E-002     4.1500531310079136E-012
  -3.6200000000000003E-002     3.1236061914102775E-012
  -3.6100000000000000E-002     1.3449400013826329E-012
  -3.6000000000000004E-002    -1.3839296462286876E-012
  -3.5900000000000001E-002    -5.2716693857424168E-012
  -3.5799999999999998E-002    -1.0526984665915062E-011
  -3.5700000000000003E-002    -1.7344481753611696E-011
  -3.5600000000000000E-002    -2.5886957508158837E-011
  -3.5500000000000004E-002    -3.6264224262394507E-011
  -3.5400000000000001E-002    -4.8508870531538406E-011
  -3.5299999999999998E-002    -6.2549659896049548E-011
  -3.5200000000000002E-002    -7.8183563789746557E-011
  -3.5099999999999999E-002    -9.5047900106060013E-011
  -3.5000000000000003E-002    -1.1259419785414337E-010
  -3.4900000000000000E-002    -1.3006587473718412E-010
  -3.4799999999999998E-002    -1.4648211810186496E-010
  -3.4700000000000002E-002    -1.6063027297175125E-010
  -3.4599999999999999E-002    -1.7106951966106010E-010
  -3.4500000000000003E-002    -1.7614817937605665E-010
  -3.4400000000000000E-002    -1.7403693763906602E-010
  -3.4299999999999997E-002    -1.6277988679203048E-010
  -3.4200000000000001E-002    -1.4036448392484857E-010
  -3.4099999999999998E-002    -1.0481095852332700E-010
  -3.4000000000000002E-002    -5.4280496764036457E-011
  -3.3900000000000000E-002     1.2799585176470618E-011
  -3.3799999999999997E-002     9.7596687675949312E-011
  -3.3700000000000001E-002     2.0072435380491527E-010
  -3.3599999999999998E-002     3.2209016009865366E-010
  -3.3500000000000002E-002     4.6074721815614339E-010
  -3.3399999999999999E-002     6.1475785573250619E-010
  -3.3300000000000003E-002     7.8107892376166888E-010
  -3.3200000000000000E-002     9.5547858514066775E-010
  -3.3099999999999997E-002     1.1324949866775569E-009
  -3.3000000000000002E-002     1.3054470837658982E-009
  -3.2899999999999999E-002     1.4665059167029426E-009
  -3.2800000000000003E-002     1.6068346653241861E-009
  -3.2700000000000000E-002     1.7168022559133078E-009
  -3.2600000000000004E-002     1.7862731294115974E-009
  -3.2500000000000001E-002     1.8049722827484516E-009
  -3.2399999999999998E-002     1.7629202542224220E-009
  -3.2300000000000002E-002     1.6509286160371062E-009
  -3.2199999999999999E-002     1.4611425402932809E-009
  -3.2100000000000004E-002     1.1876106764674432E-009
  -3.2000000000000001E-002     8.2685980284935567E-010
  -3.1899999999999998E-002     3.7844702371891970E-010
  -3.1800000000000002E-002    -1.5454100499301404E-010
  -3.1699999999999999E-002    -7.6507417068327754E-010
  -3.1600000000000003E-002    -1.4418832794405034E-009
  -3.1500000000000000E-002    -2.1693158380742261E-009
  -3.1399999999999997E-002    -2.9273732327084190E-009
  -3.1300000000000001E-002    -3.6919540757907043E-009
  -3.1199999999999999E-002    -4.4353241079875261E-009
  -3.1100000000000003E-002    -5.1268220779832063E-009
  -3.1000000000000000E-002    -5.7338058745415310E-009
  -3.0900000000000000E-002    -6.2228240338413343E-009
  -3.0800000000000001E-002    -6.5609913058040092E-009
  -3.0699999999999998E-002    -6.7175340845437859E-009
  -3.0600000000000002E-002    -6.6654517461017804E-009
  -3.0499999999999999E-002    -6.3832334973312754E-009
  -3.0400000000000000E-002    -5.8565543525901376E-009
  -3.0300000000000001E-002    -5.0798680817365494E-009
  -3.0200000000000001E-002    -4.0578056470508272E-009
  -3.0100000000000002E-002    -2.8062838719478123E-009
  -2.9999999999999999E-002    -1.3532328591026044E-009
  -2.9899999999999999E-002     2.6114754803074902E-010
  -2.9800000000000000E-002     1.9846775334286804E-009
  -2.9700000000000001E-002     3.7540952568804187E-009
  -2.9600000000000001E-002     5.4966049489735269E-009
  -2.9499999999999998E-002     7.1320886974035602E-009
  -2.9400000000000003E-002     8.5759666035301052E-009
  -2.9300000000000000E-002     9.7426582357229563E-009
  -2.9200000000000000E-002     1.0549566553663681E-008
  -2.9100000000000001E-002     1.0921457516133160E-008
  -2.8999999999999998E-002     1.0795087490578226E-008
  -2.8900000000000002E-002     1.0123894611524520E-008
  -2.8799999999999999E-002     8.8825355959443186E-009
  -2.8700000000000000E-002     7.0710379773686327E-009
  -2.8600000000000000E-002     4.7183177365184292E-009
  -2.8500000000000001E-002     1.8848156368989066E-009
  -2.8400000000000002E-002    -1.3359920947308979E-009
  -2.8299999999999999E-002    -4.8174273459267170E-009
  -2.8200000000000003E-002    -8.4009794676376259E-009
  -2.8100000000000000E-002    -1.1899347285293516E-008
  -2.8000000000000001E-002    -1.5101241146453503E-008
  -2.7900000000000001E-002    -1.7777956884401647E-008
  -2.7799999999999998E-002    -1.9691650976483288E-008
  -2.7700000000000002E-002    -2.0605181560995334E-008
  -2.7600000000000000E-002    -2.0293262181780847E-008
  -2.7500000000000000E-002    -1.8554599634512670E-008
  -2.7400000000000001E-002    -1.5224614458020369E-008
  -2.7299999999999998E-002    -1.0188240473496535E-008
  -2.7200000000000002E-002    -3.3922580300327354E-009
  -2.7099999999999999E-002     5.1434456693755237E-009
  -2.7000000000000000E-002     1.5316313550783889E-008
  -2.6900000000000000E-002     2.6933886232427540E-008
  -2.6800000000000001E-002     3.9709508570240359E-008
  -2.6700000000000002E-002     5.3261501875567774E-008
  -2.6599999999999999E-002     6.7116296520453034E-008
  -2.6500000000000003E-002     8.0715871320080623E-008
  -2.6400000000000000E-002     9.3429683545309672E-008
  -2.6300000000000000E-002     1.0457114996142991E-007
  -2.6200000000000001E-002     1.1341853678459302E-007
  -2.6099999999999998E-002     1.1923989973183780E-007
  -2.6000000000000002E-002     1.2132150573052058E-007
  -2.5899999999999999E-002     1.1899903284984248E-007
  -2.5800000000000000E-002     1.1169049685122445E-007
  -2.5700000000000001E-002     9.8929852754281455E-008
  -2.5599999999999998E-002     8.0399892965488107E-008
  -2.5500000000000002E-002     5.5963123912761148E-008
  -2.5399999999999999E-002     2.5689088190006260E-008
  -2.5300000000000000E-002    -1.0123291538377543E-008
  -2.5200000000000000E-002    -5.0929823913747896E-008
  -2.5100000000000001E-002    -9.5932918497965147E-008
  -2.5000000000000001E-002    -1.4408233539597859E-007
  -2.4899999999999999E-002    -1.9408574303270143E-007
  -2.4800000000000003E-002    -2.4442971380267409E-007
  -2.4700000000000000E-002    -2.9341131835280976E-007
  -2.4600000000000000E-002    -3.3918024655577028E-007
  -2.4500000000000001E-002    -3.7979091871420678E-007
  -2.4399999999999998E-002    -4.1326339328406902E-007
  -2.4299999999999999E-002    -4.3765177792920440E-007
  -2.4199999999999999E-002    -4.5111812596587697E-007
  -2.4100000000000000E-002    -4.5200960130387102E-007
  -2.4000000000000000E-002    -4.3893629708691151E-007
  -2.3900000000000001E-002    -4.1084669533120177E-007
  -2.3800000000000002E-002    -3.6709781170429778E-007
  -2.3699999999999999E-002    -3.0751681379115325E-007
  -2.3599999999999999E-002    -2.3245112856784544E-007
  -2.3500000000000000E-002    -1.4280406901434617E-007
  -2.3400000000000001E-002    -4.0053325989219957E-008
  -2.3300000000000001E-002     7.3749667706124455E-008
  -2.3199999999999998E-002     1.9600136624831066E-007
  -2.3099999999999999E-002     3.2358946100430330E-007
  -2.3000000000000000E-002     4.5295831796465791E-007
  -2.2900000000000000E-002     5.8019577409140766E-007
  -2.2800000000000001E-002     7.0113992478582077E-007
  -2.2700000000000001E-002     8.1150341202373966E-007
  -2.2599999999999999E-002     9.0701212229760131E-007
  -2.2499999999999999E-002     9.8355440059094690E-007
  -2.2400000000000000E-002     1.0373356644777232E-006
  -2.2300000000000000E-002     1.0650337571860291E-006
  -2.2200000000000001E-002     1.0639487300068140E-006
  -2.2100000000000002E-002     1.0321417676095734E-006
  -2.1999999999999999E-002     9.6855683295871131E-007
  -2.1899999999999999E-002     8.7311951801893883E-007
  -2.1800000000000000E-002     7.4680781381175620E-007
  -2.1700000000000001E-002     5.9169030919292709E-007
  -2.1600000000000001E-002     4.1092781088991615E-007
  -2.1499999999999998E-002     2.0873612527338992E-007
  -2.1399999999999999E-002    -9.6914583025409229E-009
  -2.1299999999999999E-002    -2.3830186535178655E-007
  -2.1200000000000000E-002    -4.7033853434186312E-007
  -2.1100000000000001E-002    -6.9853319928370183E-007
  -2.1000000000000001E-002    -9.1532831447693752E-007
  -2.0899999999999998E-002    -1.1131238579764613E-006
  -2.0799999999999999E-002    -1.2845416677009780E-006
  -2.0700000000000000E-002    -1.4226976645659306E-006
  -2.0600000000000000E-002    -1.5214736777124926E-006
  -2.0500000000000001E-002    -1.5757777873659506E-006
  -2.0400000000000001E-002    -1.5817832945685950E-006
  -2.0299999999999999E-002    -1.5371366544059129E-006
  -2.0199999999999999E-002    -1.4411243682843633E-006
  -2.0100000000000000E-002    -1.2947901950610685E-006
  -2.0000000000000000E-002    -1.1009950640072930E-006
  -1.9900000000000001E-002    -8.6441502844536444E-007
  -1.9799999999999998E-002    -5.9147311048945994E-007
  -1.9699999999999999E-002    -2.9020313263572461E-007
  -1.9599999999999999E-002     2.9952506253039246E-008
  -1.9500000000000000E-002     3.5840795931108005E-007
  -1.9400000000000001E-002     6.8375572936929530E-007
  -1.9300000000000001E-002     9.9413648513291264E-007
  -1.9199999999999998E-002     1.2776459925589734E-006
  -1.9099999999999999E-002     1.5227661833705497E-006
  -1.9000000000000000E-002     1.7188058336614631E-006
  -1.8900000000000000E-002     1.8563349613032187E-006
  -1.8800000000000001E-002     1.9275967133580707E-006
  -1.8700000000000001E-002     1.9268809410277754E-006
  -1.8599999999999998E-002     1.8508417269913480E-006
  -1.8499999999999999E-002     1.6987460185191594E-006
  -1.8400000000000000E-002     1.4726394965691725E-006
  -1.8300000000000000E-002     1.1774193353630835E-006
  -1.8200000000000001E-002     8.2080640595449950E-007
  -1.8100000000000002E-002     4.1321217736367544E-007
  -1.7999999999999999E-002    -3.2500309998795274E-008
  -1.7899999999999999E-002    -5.0135741958001745E-007
  -1.7800000000000000E-002    -9.7671136245480739E-007
  -1.7700000000000000E-002    -1.4407607977773296E-006
  -1.7600000000000001E-002    -1.8751403558781021E-006
  -1.7499999999999998E-002    -2.2615613488596864E-006
  -1.7399999999999999E-002    -2.5824822387221502E-006
  -1.7299999999999999E-002    -2.8217866656632395E-006
  -1.7200000000000000E-002    -2.9654424906766508E-006
  -1.7100000000000001E-002    -3.0021192287676968E-006
  -1.7000000000000001E-002    -2.9237376111268532E-006
  -1.6899999999999998E-002    -2.7259279704594519E-006
  -1.6799999999999999E-002    -2.4083765310933813E-006
  -1.6700000000000000E-002    -1.9750407318497309E-006
  -1.6600000000000000E-002    -1.4342209624373936E-006
  -1.6500000000000001E-002    -7.9847819733913639E-007
  -1.6400000000000001E-002    -8.4392993926485360E-008
  -1.6299999999999999E-002     6.8783185724896612E-007
  -1.6199999999999999E-002     1.4949182514101267E-006
  -1.6100000000000000E-002     2.3111961127142422E-006
  -1.6000000000000000E-002     3.1094041332835332E-006
  -1.5900000000000001E-002     3.8615844459854998E-006
  -1.5799999999999998E-002     4.5400420276564546E-006
  -1.5699999999999999E-002     5.1183392315579113E-006
  -1.5599999999999999E-002     5.5722862271068152E-006
  -1.5500000000000000E-002     5.8808959693124052E-006
  -1.5400000000000000E-002     6.0272650443948805E-006
  -1.5300000000000001E-002     5.9993449212925043E-006
  -1.5199999999999998E-002     5.7905726862372831E-006
  -1.5099999999999999E-002     5.4003317018214148E-006
  -1.4999999999999999E-002     4.8342167247028556E-006
  -1.4900000000000000E-002     4.1040889300347771E-006
  -1.4800000000000001E-002     3.2279099286824930E-006
  -1.4700000000000001E-002     2.2293504571280209E-006
  -1.4599999999999998E-002     1.1371790833436535E-006
  -1.4499999999999999E-002    -1.5554293852915180E-008
  -1.4400000000000000E-002    -1.1925185390282422E-006
  -1.4300000000000000E-002    -2.3552565835416317E-006
  -1.4200000000000001E-002    -3.4644588140508858E-006
  -1.4099999999999998E-002    -4.4813145905209240E-006
  -1.3999999999999999E-002    -5.3688945627072826E-006
  -1.3899999999999999E-002    -6.0935144574614242E-006
  -1.3800000000000000E-002    -6.6260313360544387E-006
  -1.3700000000000000E-002    -6.9430225266842172E-006
  -1.3600000000000001E-002    -7.0278015300573315E-006
  -1.3499999999999998E-002    -6.8712261054315604E-006
  -1.3399999999999999E-002    -6.4722635215730406E-006
  -1.3299999999999999E-002    -5.8382852330396418E-006
  -1.3200000000000000E-002    -4.9850700634124223E-006
  -1.3100000000000001E-002    -3.9365049815387465E-006
  -1.3000000000000001E-002    -2.7239857445238158E-006
  -1.2899999999999998E-002    -1.3855300267096027E-006
  -1.2799999999999999E-002     3.5375773421719714E-008
  -1.2699999999999999E-002     1.4911627204128308E-006
  -1.2600000000000000E-002     2.9317538974282797E-006
  -1.2500000000000001E-002     4.3062791519332677E-006
  -1.2399999999999998E-002     5.5648692978138570E-006
  -1.2299999999999998E-002     6.6604684434423689E-006
  -1.2199999999999999E-002     7.5506004577619024E-006
  -1.2100000000000000E-002     8.1990237958962098E-006
  -1.2000000000000000E-002     8.5772089732927270E-006
  -1.1900000000000001E-002     8.6655845734640025E-006
  -1.1799999999999998E-002     8.4544954006560147E-006
  -1.1699999999999999E-002     7.9448318501817994E-006
  -1.1599999999999999E-002     7.1483023020846304E-006
  -1.1500000000000000E-002     6.0873217080370523E-006
  -1.1400000000000000E-002     4.7945145524863619E-006
  -1.1300000000000001E-002     3.3118378723884234E-006
  -1.1199999999999998E-002     1.6893475276447134E-006
  -1.1099999999999999E-002    -1.6356681342699630E-008
  -1.0999999999999999E-002    -1.7439622297388269E-006
  -1.0900000000000000E-002    -3.4294889701413922E-006
  -1.0800000000000001E-002    -5.0084818212781101E-006
  -1.0699999999999998E-002    -6.4182727328443434E-006
  -1.0599999999999998E-002    -7.6002347668691073E-006
  -1.0499999999999999E-002    -8.5019437392475083E-006
  -1.0400000000000000E-002    -9.0791727416217327E-006
  -1.0300000000000000E-002    -9.2976324594928883E-006
  -1.0200000000000001E-002    -9.1344027168815956E-006
  -1.0099999999999998E-002    -8.5789879449293949E-006
  -9.9999999999999985E-003    -7.6339492807164788E-006
  -9.8999999999999991E-003    -6.3150901041808538E-006
  -9.7999999999999997E-003    -4.6511690925399307E-006
  -9.7000000000000003E-003    -2.6831503419089131E-006
  -9.6000000000000009E-003    -4.6300243639052496E-007
  -9.4999999999999980E-003     1.9479127786325989E-006
  -9.3999999999999986E-003     4.4808152779296506E-006
  -9.2999999999999992E-003     7.0617779783788137E-006
  -9.1999999999999998E-003     9.6142193797277287E-006
  -9.1000000000000004E-003     1.2061522284056991E-005
  -9.0000000000000011E-003     1.4329699297377374E-005
  -8.8999999999999982E-003     1.6349993529729545E-005
  -8.7999999999999988E-003     1.8061327864415944E-005
  -8.6999999999999994E-003     1.9412509573157877E-005
  -8.5999999999999965E-003     2.0364102965686470E-005
  -8.5000000000000006E-003     2.0889896404696628E-005
  -8.3999999999999977E-003     2.0977904569008388E-005
  -8.3000000000000018E-003     2.0630872313631698E-005
  -8.1999999999999990E-003     1.9866240108967759E-005
  -8.0999999999999961E-003     1.8715569240157492E-005
  -8.0000000000000002E-003     1.7223450413439423E-005
  -7.8999999999999973E-003     1.5445924873347394E-005
  -7.8000000000000014E-003     1.3448471690935548E-005
  -7.6999999999999985E-003     1.1303621249680873E-005
  -7.6000000000000026E-003     9.0883031589328311E-006
  -7.4999999999999997E-003     6.8810081756964792E-006
  -7.3999999999999969E-003     4.7588764573447406E-006
  -7.3000000000000009E-003     2.7948156002821634E-006
  -7.1999999999999981E-003     1.0547664714977145E-006
  -7.1000000000000021E-003    -4.0478198570781387E-007
  -6.9999999999999993E-003    -1.5389300642709713E-006
  -6.8999999999999964E-003    -2.3160710043157451E-006
  -6.8000000000000005E-003    -2.7190901619178476E-006
  -6.6999999999999976E-003    -2.7460075671115192E-006
  -6.6000000000000017E-003    -2.4100349946820643E-006
  -6.4999999999999988E-003    -1.7390359516866738E-006
  -6.3999999999999960E-003    -7.7440245149773546E-007
  -6.3000000000000000E-003     4.3061402266175719E-007
  -6.1999999999999972E-003     1.8130562011720031E-006
  -6.1000000000000013E-003     3.3028265988832572E-006
  -5.9999999999999984E-003     4.8255687943310477E-006
  -5.9000000000000025E-003     6.3057477746042423E-006
  -5.7999999999999996E-003     7.6698233897332102E-006
  -5.6999999999999967E-003     8.8493861767346971E-006
  -5.6000000000000008E-003     9.7841339083970524E-006
  -5.4999999999999979E-003     1.0424564607092179E-005
  -5.4000000000000020E-003     1.0734287570812739E-005
  -5.2999999999999992E-003     1.0691837815102190E-005
  -5.1999999999999963E-003     1.0291932085237931E-005
  -5.1000000000000004E-003     9.5461027740384452E-006
  -4.9999999999999975E-003     8.4826615420752205E-006
  -4.9000000000000016E-003     7.1460085564467590E-006
  -4.7999999999999987E-003     5.5952841648831964E-006
  -4.6999999999999958E-003     3.9024025682010688E-006
  -4.5999999999999999E-003     2.1495518467418151E-006
  -4.4999999999999971E-003     4.2623506146810541E-007
  -4.4000000000000011E-003    -1.1740356740119751E-006
  -4.2999999999999983E-003    -2.5572721824573819E-006
  -4.2000000000000023E-003    -3.6326287045085337E-006
  -4.0999999999999995E-003    -4.3159748202015180E-006
  -3.9999999999999966E-003    -4.5332826630328782E-006
  -3.9000000000000007E-003    -4.2236879380652681E-006
  -3.7999999999999978E-003    -3.3421069929318037E-006
  -3.7000000000000019E-003    -1.8613018255564384E-006
  -3.5999999999999990E-003     2.2670353416742728E-007
  -3.4999999999999962E-003     2.9099026050971588E-006
  -3.4000000000000002E-003     6.1563359849969856E-006
  -3.2999999999999974E-003     9.9148819572292268E-006
  -3.2000000000000015E-003     1.4116760212345980E-005
  -3.0999999999999986E-003     1.8677737898542546E-005
  -2.9999999999999957E-003     2.3500946554122493E-005
  -2.8999999999999998E-003     2.8480206310632639E-005
  -2.7999999999999969E-003     3.3503729355288669E-005
  -2.7000000000000010E-003     3.8458081689896062E-005
  -2.5999999999999981E-003     4.3232248572167009E-005
  -2.5000000000000022E-003     4.7721641749376431E-005
  -2.3999999999999994E-003     5.1831899327225983E-005
  -2.2999999999999965E-003     5.5482320021837950E-005
  -2.2000000000000006E-003     5.8608842664398253E-005
  -2.0999999999999977E-003     6.1166378145571798E-005
  -2.0000000000000018E-003     6.3130450143944472E-005
  -1.8999999999999989E-003     6.4498082792852074E-005
  -1.7999999999999960E-003     6.5287851612083614E-005
  -1.7000000000000001E-003     6.5539126808289438E-005
  -1.5999999999999973E-003     6.5310538047924638E-005
  -1.5000000000000013E-003     6.4677697082515806E-005
  -1.3999999999999985E-003     6.3730280089657754E-005
  -1.2999999999999956E-003     6.2568571593146771E-005
  -1.1999999999999997E-003     6.1299608205445111E-005
  -1.0999999999999968E-003     6.0033071349607781E-005
  -1.0000000000000009E-003     5.8877118135569617E-005
  -8.9999999999999802E-004     5.7934303185902536E-005
  -8.0000000000000210E-004     5.7297733292216435E-005
  -6.9999999999999923E-004     5.7047647715080529E-005
  -5.9999999999999637E-004     5.7248551456723362E-005
  -5.0000000000000044E-004     5.7947017921833321E-005
  -3.9999999999999758E-004     5.9170281019760296E-005
  -3.0000000000000165E-004     6.0925671277800575E-005
  -1.9999999999999879E-004     6.3200888689607382E-005
  -9.9999999999995925E-005     6.5965163230430335E-005
   0.0000000000000000          6.9171255745459348E-005
   1.0000000000000286E-004     7.2758171882014722E-005
   1.9999999999999879E-004     7.6654549047816545E-005
   3.0000000000000165E-004     8.0782570876181126E-005
   4.0000000000000452E-004     8.5062216385267675E-005
   5.0000000000000044E-004     8.9415691036265343E-005
   6.0000000000000331E-004     9.3771879619453102E-005
   6.9999999999999923E-004     9.8070566309615970E-005
   8.0000000000000210E-004     1.0226635640719905E-004
   8.9999999999999802E-004     1.0633203055476770E-004
   1.0000000000000009E-003     1.1026117863366380E-004
   1.1000000000000038E-003     1.1407008423702791E-004
   1.1999999999999997E-003     1.1779862688854337E-004
   1.3000000000000025E-003     1.2151031114626676E-004
   1.3999999999999985E-003     1.2529126252047718E-004
   1.5000000000000013E-003     1.2924824841320515E-004
   1.6000000000000042E-003     1.3350586232263595E-004
   1.7000000000000001E-003     1.3820281310472637E-004
   1.8000000000000030E-003     1.4348760305438191E-004
   1.8999999999999989E-003     1.4951376942917705E-004
   2.0000000000000018E-003     1.5643470396753401E-004
   2.1000000000000046E-003     1.6439841419924051E-004
   2.2000000000000006E-003     1.7354234296362847E-004
   2.3000000000000034E-003     1.8398847896605730E-004
   2.3999999999999994E-003     1.9583912217058241E-004
   2.5000000000000022E-003     2.0917320216540247E-004
   2.5999999999999981E-003     2.2404351329896599E-004
   2.7000000000000010E-003     2.4047501210588962E-004
   2.8000000000000039E-003     2.5846407515928149E-004
   2.8999999999999998E-003     2.7797903749160469E-004
   3.0000000000000027E-003     2.9896190972067416E-004
   3.0999999999999986E-003     3.2133102649822831E-004
   3.2000000000000015E-003     3.4498484455980361E-004
   3.3000000000000043E-003     3.6980674485675991E-004
   3.4000000000000002E-003     3.9567050407640636E-004
   3.5000000000000031E-003     4.2244620271958411E-004
   3.5999999999999990E-003     4.5000668615102768E-004
   3.7000000000000019E-003     4.7823405475355685E-004
   3.7999999999999978E-003     5.0702580483630300E-004
   3.9000000000000007E-003     5.3630076581612229E-004
   4.0000000000000036E-003     5.6600454263389111E-004
   4.0999999999999995E-003     5.9611385222524405E-004
   4.2000000000000023E-003     6.2663987046107650E-004
   4.2999999999999983E-003     6.5763067686930299E-004
   4.4000000000000011E-003     6.8917212774977088E-004
   4.5000000000000040E-003     7.2138750692829490E-004
   4.5999999999999999E-003     7.5443607056513429E-004
   4.7000000000000028E-003     7.8851002035662532E-004
   4.7999999999999987E-003     8.2383037079125643E-004
   4.9000000000000016E-003     8.6064205970615149E-004
   5.0000000000000044E-003     8.9920801110565662E-004
   5.1000000000000004E-003     9.3980261590331793E-004
   5.2000000000000032E-003     9.8270480521023273E-004
   5.2999999999999992E-003     1.0281914146617055E-003
   5.4000000000000020E-003     1.0765305487439036E-003
   5.4999999999999979E-003     1.1279749451205134E-003
   5.6000000000000008E-003     1.1827567359432578E-003
   5.7000000000000037E-003     1.2410833733156323E-003
   5.7999999999999996E-003     1.3031339040026069E-003
   5.9000000000000025E-003     1.3690569903701544E-003
   5.9999999999999984E-003     1.4389706775546074E-003
   6.1000000000000013E-003     1.5129632083699107E-003
   6.2000000000000041E-003     1.5910955844447017E-003
   6.3000000000000000E-003     1.6734052915126085E-003
   6.4000000000000029E-003     1.7599114216864109E-003
   6.4999999999999988E-003     1.8506211927160621E-003
   6.6000000000000017E-003     1.9455368164926767E-003
   6.7000000000000046E-003     2.0446635317057371E-003
   6.8000000000000005E-003     2.1480172872543335E-003
   6.9000000000000034E-003     2.2556332405656576E-003
   6.9999999999999993E-003     2.3675733245909214E-003
   7.1000000000000021E-003     2.4839339312165976E-003
   7.1999999999999981E-003     2.6048517320305109E-003
   7.3000000000000009E-003     2.7305088005959988E-003
   7.4000000000000038E-003     2.8611370362341404E-003
   7.4999999999999997E-003     2.9970197938382626E-003
   7.6000000000000026E-003     3.1384925823658705E-003
   7.6999999999999985E-003     3.2859425991773605E-003
   7.8000000000000014E-003     3.4398052375763655E-003
   7.9000000000000042E-003     3.6005594301968813E-003
   8.0000000000000002E-003     3.7687225267291069E-003
   8.1000000000000030E-003     3.9448426105082035E-003
   8.1999999999999990E-003     4.1294898837804794E-003
   8.3000000000000018E-003     4.3232496827840805E-003
   8.4000000000000047E-003     4.5267120003700256E-003
   8.5000000000000006E-003     4.7404612414538860E-003
   8.6000000000000035E-003     4.9650692380964756E-003
   8.6999999999999994E-003     5.2010864019393921E-003
   8.8000000000000023E-003     5.4490342736244202E-003
   8.8999999999999982E-003     5.7094004005193710E-003
   9.0000000000000011E-003     5.9826341457664967E-003
   9.1000000000000039E-003     6.2691429629921913E-003
   9.1999999999999998E-003     6.5692928619682789E-003
   9.3000000000000027E-003     6.8834102712571621E-003
   9.3999999999999986E-003     7.2117839008569717E-003
   9.5000000000000015E-003     7.5546703301370144E-003
   9.6000000000000044E-003     7.9123023897409439E-003
   9.7000000000000003E-003     8.2848956808447838E-003
   9.8000000000000032E-003     8.6726592853665352E-003
   9.8999999999999991E-003     9.0758046135306358E-003
   1.0000000000000002E-002     9.4945579767227173E-003
   1.0100000000000005E-002     9.9291708320379257E-003
   1.0200000000000001E-002     1.0379930026829243E-002
   1.0300000000000004E-002     1.0847168974578381E-002
   1.0400000000000000E-002     1.1331275105476379E-002
   1.0500000000000002E-002     1.1832698248326778E-002
   1.0599999999999998E-002     1.2351956218481064E-002
   1.0700000000000001E-002     1.2889638543128967E-002
   1.0800000000000004E-002     1.3446409255266190E-002
   1.0900000000000000E-002     1.4023004099726677E-002
   1.1000000000000003E-002     1.4620231464505196E-002
   1.1099999999999999E-002     1.5238967724144459E-002
   1.1200000000000002E-002     1.5880150720477104E-002
   1.1300000000000004E-002     1.6544772312045097E-002
   1.1400000000000000E-002     1.7233867198228836E-002
   1.1500000000000003E-002     1.7948502674698830E-002
   1.1599999999999999E-002     1.8689770251512527E-002
   1.1700000000000002E-002     1.9458774477243423E-002
   1.1800000000000005E-002     2.0256619900465012E-002
   1.1900000000000001E-002     2.1084399893879890E-002
   1.2000000000000004E-002     2.1943191066384315E-002
   1.2100000000000000E-002     2.2834043949842453E-002
   1.2200000000000003E-002     2.3757975548505783E-002
   1.2299999999999998E-002     2.4715965613722801E-002
   1.2400000000000001E-002     2.5708954781293869E-002
   1.2500000000000004E-002     2.6737840846180916E-002
   1.2600000000000000E-002     2.7803482487797737E-002
   1.2700000000000003E-002     2.8906706720590591E-002
   1.2799999999999999E-002     3.0048307031393051E-002
   1.2900000000000002E-002     3.1229056417942047E-002
   1.3000000000000005E-002     3.2449718564748764E-002
   1.3100000000000001E-002     3.3711045980453491E-002
   1.3200000000000003E-002     3.5013806074857712E-002
   1.3299999999999999E-002     3.6358781158924103E-002
   1.3400000000000002E-002     3.7746779620647430E-002
   1.3500000000000005E-002     3.9178647100925446E-002
   1.3600000000000001E-002     4.0655277669429779E-002
   1.3700000000000004E-002     4.2177617549896240E-002
   1.3800000000000000E-002     4.3746672570705414E-002
   1.3900000000000003E-002     4.5363511890172958E-002
   1.3999999999999999E-002     4.7029271721839905E-002
   1.4100000000000001E-002     4.8745155334472656E-002
   1.4200000000000004E-002     5.0512418150901794E-002
   1.4300000000000000E-002     5.2332378923892975E-002
   1.4400000000000003E-002     5.4206412285566330E-002