  -4.0000000000000001E-002     0.0000000000000000
  -3.9899999999999998E-002     0.0000000000000000
  -3.9800000000000002E-002     0.0000000000000000
  -3.9699999999999999E-002    -8.4414675132669909E-022
  -3.9600000000000003E-002    -1.0252822105444516E-020
  -3.9500000000000000E-002     9.1106519234248628E-020
  -3.9399999999999998E-002     2.0067869534570427E-019
  -3.9300000000000002E-002     1.2110137166784058E-018
  -3.9199999999999999E-002     3.6907041173314420E-018
  -3.9100000000000003E-002     1.0900935182442296E-017
  -3.9000000000000000E-002     2.3431538594344715E-017
  -3.8900000000000004E-002     4.2884871146623850E-017
  -3.8800000000000001E-002     5.4913632352696472E-017
  -3.8699999999999998E-002     8.2285538439166140E-017
  -3.8600000000000002E-002     1.2421935371342347E-016
  -3.8500000000000000E-002     1.3979724252549572E-016
  -3.8400000000000004E-002     1.2277383904937480E-016
  -3.8300000000000001E-002     1.0188155964711067E-016
  -3.8199999999999998E-002     6.2058173283051734E-017
  -3.8100000000000002E-002     4.2272112292456818E-017
  -3.7999999999999999E-002    -2.3089604628427954E-016
  -3.7900000000000003E-002    -5.5148044088637669E-016
  -3.7800000000000000E-002    -3.9013199350010201E-016
  -3.7699999999999997E-002    -2.9986438052548086E-016
  -3.7600000000000001E-002    -6.6927995983899241E-016
  -3.7499999999999999E-002    -7.5873055659642758E-016
  -3.7400000000000003E-002    -5.4376487070939648E-016
  -3.7300000000000000E-002    -3.4048927181587918E-016
  -3.7200000000000004E-002     1.2526474953465166E-017
  -3.7100000000000001E-002     7.5451810293105433E-016
  -3.6999999999999998E-002     1.8773917763816907E-015
  -3.6900000000000002E-002     2.6086323551310128E-015
  -3.6799999999999999E-002     3.7979136234046230E-015
  -3.6700000000000003E-002     6.2704489597355511E-015
  -3.6600000000000001E-002     6.9359801105686736E-015
  -3.6499999999999998E-002     6.4259011048968702E-015
  -3.6400000000000002E-002     8.5906793018206834E-015
  -3.6299999999999999E-002     1.0801060058558774E-014
  -3.6200000000000003E-002     1.2163474437734689E-014
  -3.6100000000000000E-002     1.4709182832796548E-014
  -3.6000000000000004E-002     1.5956149162360544E-014
  -3.5900000000000001E-002     1.4991890243338038E-014
  -3.5799999999999998E-002     1.5136929388962286E-014
  -3.5700000000000003E-002     1.7857250237968830E-014
  -3.5600000000000000E-002     1.9589476660817132E-014
  -3.5500000000000004E-002     1.6689359516228706E-014
  -3.5400000000000001E-002     1.1424371275652479E-014
  -3.5299999999999998E-002     7.4067957510034511E-015
  -3.5200000000000002E-002     5.2424783400029443E-015
  -3.5099999999999999E-002     2.2000920592860291E-015
  -3.5000000000000003E-002     1.0282882570878272E-015
  -3.4900000000000000E-002     6.6533130399712968E-016
  -3.4799999999999998E-002    -5.5739380023730762E-015
  -3.4700000000000002E-002    -1.4537202957251930E-014
  -3.4599999999999999E-002    -1.9955327131395209E-014
  -3.4500000000000003E-002    -2.0533815058986112E-014
  -3.4400000000000000E-002    -2.0254731255392976E-014
  -3.4299999999999997E-002    -2.2786424643309565E-014
  -3.4200000000000001E-002    -1.9458139120147669E-014
  -3.4099999999999998E-002    -8.7163417217435424E-015
  -3.4000000000000002E-002     2.8489163322675077E-015
  -3.3900000000000000E-002     1.6849006592061302E-014
  -3.3799999999999997E-002     3.8680376176353226E-014
  -3.3700000000000001E-002     6.3569944664179645E-014
  -3.3599999999999998E-002     8.8740904273347521E-014
  -3.3500000000000002E-002     1.1601998658669621E-013
  -3.3399999999999999E-002     1.4578083477791853E-013
  -3.3300000000000003E-002     1.8285749975831267E-013
  -3.3200000000000000E-002     2.1555522124183657E-013
  -3.3099999999999997E-002     2.4682182296273392E-013
  -3.3000000000000002E-002     2.6972437412904615E-013
  -3.2899999999999999E-002     2.8049416088415935E-013
  -3.2800000000000003E-002     3.0355625240015283E-013
  -3.2700000000000000E-002     3.5639828761813153E-013
  -3.2600000000000004E-002     4.1691698921333953E-013
  -3.2500000000000001E-002     4.6270837638848206E-013
  -3.2399999999999998E-002     4.7858776403703063E-013
  -3.2300000000000002E-002     4.6724337723555442E-013
  -3.2199999999999999E-002     4.2068315519484811E-013
  -3.2100000000000004E-002     3.8800801222156622E-013
  -3.2000000000000001E-002     3.6666210432440005E-013
  -3.1899999999999998E-002     3.1422580466441974E-013
  -3.1800000000000002E-002     2.6346673866022019E-013
  -3.1699999999999999E-002     2.0988073746400909E-013
  -3.1600000000000003E-002     1.4990652219982331E-013
  -3.1500000000000000E-002     8.6757302188676666E-014
  -3.1399999999999997E-002     1.8368815786463065E-014
  -3.1300000000000001E-002    -3.3347449964176573E-014
  -3.1199999999999999E-002    -6.2780692916455244E-014
  -3.1100000000000003E-002    -8.7023812635200759E-014
  -3.1000000000000000E-002    -1.0269266855064338E-013
  -3.0900000000000000E-002    -1.1739669295279115E-013
  -3.0800000000000001E-002    -9.9608133698712853E-014
  -3.0699999999999998E-002    -5.2445552647896118E-014
  -3.0600000000000002E-002     1.3867164320589993E-014
  -3.0499999999999999E-002     9.5795191169725097E-014
  -3.0400000000000000E-002     1.6462701969872928E-013
  -3.0300000000000001E-002     2.6696708537408964E-013
  -3.0200000000000001E-002     3.8172419327027474E-013
  -3.0100000000000002E-002     4.3959752287978104E-013
  -2.9999999999999999E-002     4.8930737933661206E-013
  -2.9899999999999999E-002     5.6528534023853050E-013
  -2.9800000000000000E-002     6.1476935738283278E-013
  -2.9700000000000001E-002     6.0148554973521451E-013
  -2.9600000000000001E-002     5.4569315646041394E-013
  -2.9499999999999998E-002     4.5371532594352948E-013
  -2.9400000000000003E-002     4.0162217627114083E-013
  -2.9300000000000000E-002     3.1416969720199361E-013
  -2.9200000000000000E-002     1.1845467098522966E-013
  -2.9100000000000001E-002    -1.5952003444303503E-013
  -2.8999999999999998E-002    -5.7723086293454129E-013
  -2.8900000000000002E-002    -1.1332700186258982E-012
  -2.8799999999999999E-002    -1.6830930095815266E-012
  -2.8700000000000000E-002    -2.1672095541769298E-012
  -2.8600000000000000E-002    -2.7012151196381673E-012
  -2.8500000000000001E-002    -3.2875215136979330E-012
  -2.8400000000000002E-002    -3.8993899255379549E-012
  -2.8299999999999999E-002    -4.3506274971516490E-012
  -2.8200000000000003E-002    -4.7132458526333298E-012
  -2.8100000000000000E-002    -5.1949837660825171E-012
  -2.8000000000000001E-002    -5.5522014937026132E-012
  -2.7900000000000001E-002    -5.7435020281437765E-012
  -2.7799999999999998E-002    -5.8934281066402860E-012
  -2.7700000000000002E-002    -5.9351724923661919E-012
  -2.7600000000000000E-002    -5.7373598059962116E-012
  -2.7500000000000000E-002    -5.2915692660970848E-012
  -2.7400000000000001E-002    -4.7727911033079717E-012
  -2.7299999999999998E-002    -4.2427593556493282E-012
  -2.7200000000000002E-002    -3.6475570827643189E-012
  -2.7099999999999999E-002    -3.1506000065795181E-012
  -2.7000000000000000E-002    -2.6478524234319067E-012
  -2.6900000000000000E-002    -1.8973433935087769E-012
  -2.6800000000000001E-002    -9.4617098444355063E-013
  -2.6700000000000002E-002     1.8385702574112706E-013
  -2.6599999999999999E-002     1.1241866812450318E-012
  -2.6500000000000003E-002     1.8947423924969842E-012
  -2.6400000000000000E-002     2.9293679027625474E-012
  -2.6300000000000000E-002     4.1613062821965752E-012
  -2.6200000000000001E-002     5.3182003072194117E-012
  -2.6099999999999998E-002     6.1922632819955137E-012
  -2.6000000000000002E-002     6.6375598593848562E-012
  -2.5899999999999999E-002     6.9871144460498247E-012
  -2.5800000000000000E-002     6.9910583398724579E-012
  -2.5700000000000001E-002     6.6647520835516616E-012
  -2.5599999999999998E-002     6.2359531600997276E-012
  -2.5500000000000002E-002     5.0842051922683762E-012
  -2.5399999999999999E-002     3.3284249922188591E-012
  -2.5300000000000000E-002     1.3809817005216996E-012
  -2.5200000000000000E-002    -1.0632274140970344E-012
  -2.5100000000000001E-002    -4.4168050293558192E-012
  -2.5000000000000001E-002    -7.8537914019460864E-012
  -2.4899999999999999E-002    -1.1139765325463014E-011
  -2.4800000000000003E-002    -1.4988593699527542E-011
  -2.4700000000000000E-002    -1.9440683438065598E-011
  -2.4600000000000000E-002    -2.4160217229618475E-011
  -2.4500000000000001E-002    -2.8664102341702247E-011
  -2.4399999999999998E-002    -3.3232316204445667E-011
  -2.4299999999999999E-002    -3.7801473756760018E-011
  -2.4199999999999999E-002    -4.1996673499911097E-011
  -2.4100000000000000E-002    -4.5959926836536269E-011
  -2.4000000000000000E-002    -4.8844112782164828E-011
  -2.3900000000000001E-002    -5.0728501260755010E-011
  -2.3800000000000002E-002    -5.1262865480294906E-011
  -2.3699999999999999E-002    -5.0043826721468676E-011
  -2.3599999999999999E-002    -4.7560080873587651E-011
  -2.3500000000000000E-002    -4.3604307664590891E-011
  -2.3400000000000001E-002    -3.7910830724685596E-011
  -2.3300000000000001E-002    -3.1675013306697863E-011
  -2.3199999999999998E-002    -2.5695997413199834E-011
  -2.3099999999999999E-002    -1.8936466977814703E-011
  -2.3000000000000000E-002    -1.0036239200816865E-011
  -2.2900000000000000E-002     1.0216948814756321E-012
  -2.2800000000000001E-002     1.2637165619500124E-011
  -2.2700000000000001E-002     2.3546452981859645E-011
  -2.2599999999999999E-002     3.3054621539907458E-011
  -2.2499999999999999E-002     4.2902969371594324E-011
  -2.2400000000000000E-002     5.3402927913115406E-011
  -2.2300000000000000E-002     6.3255206628198835E-011
  -2.2200000000000001E-002     7.1386785371885253E-011
  -2.2100000000000002E-002     7.5620031070311455E-011
  -2.1999999999999999E-002     7.7177486623725144E-011
  -2.1899999999999999E-002     7.6251137348659626E-011
  -2.1800000000000000E-002     7.0257022422026694E-011
  -2.1700000000000001E-002     5.9905413962724197E-011
  -2.1600000000000001E-002     4.8635370036853587E-011
  -2.1499999999999998E-002     3.3663797444072330E-011
  -2.1399999999999999E-002     1.4780022691840422E-011
  -2.1299999999999999E-002    -5.2633110543542916E-012
  -2.1200000000000000E-002    -2.8003065144499573E-011
  -2.1100000000000001E-002    -5.4398676535560853E-011
  -2.1000000000000001E-002    -8.1690376685372712E-011
  -2.0899999999999998E-002    -1.0712510739585568E-010
  -2.0799999999999999E-002    -1.3225402717420565E-010
  -2.0700000000000000E-002    -1.5505932648984810E-010
  -2.0600000000000000E-002    -1.7229777327099072E-010
  -2.0500000000000001E-002    -1.8751619701440347E-010
  -2.0400000000000001E-002    -1.9759355263104794E-010
  -2.0299999999999999E-002    -1.9720633459563430E-010
  -2.0199999999999999E-002    -1.8864484974123741E-010
  -2.0100000000000000E-002    -1.7496644411085782E-010
  -2.0000000000000000E-002    -1.5134929420845822E-010
  -1.9900000000000001E-002    -1.1519770554135889E-010
  -1.9799999999999998E-002    -7.4445567765923926E-011
  -1.9699999999999999E-002    -2.6849274539775259E-011
  -1.9599999999999999E-002     3.2104197772442333E-011
  -1.9500000000000000E-002     9.9846526879776576E-011
  -1.9400000000000001E-002     1.7287597742221550E-010
  -1.9300000000000001E-002     2.5243601653457404E-010
  -1.9199999999999998E-002     3.3043320857295555E-010
  -1.9099999999999999E-002     4.0375577881057723E-010
  -1.9000000000000000E-002     4.8225845539207057E-010
  -1.8900000000000000E-002     5.5871224313719381E-010
  -1.8800000000000001E-002     6.3024879759510100E-010
  -1.8700000000000001E-002     6.9993361107023588E-010
  -1.8599999999999998E-002     7.6193562570381346E-010
  -1.8499999999999999E-002     8.1537387952579365E-010
  -1.8400000000000000E-002     8.5647999803484254E-010
  -1.8300000000000000E-002     8.9049490004100562E-010
  -1.8200000000000001E-002     9.1633300947080443E-010
  -1.8100000000000002E-002     9.1518154166081445E-010
  -1.7999999999999999E-002     8.9487683929689865E-010
  -1.7899999999999999E-002     8.6378204589010465E-010
  -1.7800000000000000E-002     8.1825807241031612E-010
  -1.7700000000000000E-002     7.5821704470513396E-010
  -1.7600000000000001E-002     6.8254046858839956E-010
  -1.7499999999999998E-002     5.9140842223470713E-010
  -1.7399999999999999E-002     4.8790321782732349E-010
  -1.7299999999999999E-002     3.7541922348616197E-010
  -1.7200000000000000E-002     2.4808646803542445E-010
  -1.7100000000000001E-002     1.0802264638343217E-010
  -1.7000000000000001E-002    -3.6295313976530963E-011
  -1.6899999999999998E-002    -1.9332453693454710E-010
  -1.6799999999999999E-002    -3.6847261353223359E-010
  -1.6700000000000000E-002    -5.7220012061875991E-010
  -1.6600000000000000E-002    -7.9171724731708082E-010
  -1.6500000000000001E-002    -1.0319302079508930E-009
  -1.6400000000000001E-002    -1.2829202145070440E-009
  -1.6299999999999999E-002    -1.5302180633725015E-009
  -1.6199999999999999E-002    -1.8006958146798979E-009
  -1.6100000000000000E-002    -2.0825634550192262E-009
  -1.6000000000000000E-002    -2.3530326576093330E-009
  -1.5900000000000001E-002    -2.6306350431326564E-009
  -1.5799999999999998E-002    -2.9171094428903643E-009
  -1.5699999999999999E-002    -3.1800477806598337E-009
  -1.5599999999999999E-002    -3.4171880880506933E-009
  -1.5500000000000000E-002    -3.6177827400507567E-009
  -1.5400000000000000E-002    -3.7678793418649548E-009
  -1.5300000000000001E-002    -3.8772278720955455E-009
  -1.5199999999999998E-002    -3.9381147232120384E-009
  -1.5099999999999999E-002    -3.9406549134923807E-009
  -1.4999999999999999E-002    -3.8702299143267282E-009
  -1.4900000000000000E-002    -3.7115583939595354E-009
  -1.4800000000000001E-002    -3.4530722725634178E-009
  -1.4700000000000001E-002    -3.1161837554805061E-009
  -1.4599999999999998E-002    -2.7015445436262553E-009
  -1.4499999999999999E-002    -2.1562369667549319E-009
  -1.4400000000000000E-002    -1.5298875499780706E-009
  -1.4300000000000000E-002    -8.5389356696552454E-010
  -1.4200000000000001E-002    -1.4224563193998563E-010
  -1.4099999999999998E-002     5.9806437580078864E-010
  -1.3999999999999999E-002     1.3711789481618553E-009
  -1.3899999999999999E-002     2.1381039161383342E-009
  -1.3800000000000000E-002     2.8794659989728189E-009
  -1.3700000000000000E-002     3.5118739027950596E-009
  -1.3600000000000001E-002     4.0339389606458553E-009
  -1.3499999999999998E-002     4.4910506424855612E-009
  -1.3399999999999999E-002     4.8015182940730483E-009
  -1.3299999999999999E-002     4.8422079679255603E-009
  -1.3200000000000000E-002     4.6616315252379081E-009
  -1.3100000000000001E-002     4.2661092436446779E-009
  -1.3000000000000001E-002     3.5801599462814693E-009
  -1.2899999999999998E-002     2.7321276352409996E-009
  -1.2799999999999999E-002     1.6837098382183058E-009
  -1.2699999999999999E-002     2.7389246426423597E-010
  -1.2600000000000000E-002    -1.4113390456316210E-009
  -1.2500000000000001E-002    -3.3336531313210571E-009
  -1.2399999999999998E-002    -5.3508273367697257E-009
  -1.2299999999999998E-002    -7.4499082458601151E-009
  -1.2199999999999999E-002    -9.6764800616711000E-009
  -1.2100000000000000E-002    -1.1786838172156422E-008
  -1.2000000000000000E-002    -1.3821918720680060E-008
  -1.1900000000000001E-002    -1.5795565744269879E-008
  -1.1799999999999998E-002    -1.7555974451965994E-008
  -1.1699999999999999E-002    -1.9155304897822134E-008
  -1.1599999999999999E-002    -2.0507719966644800E-008
  -1.1500000000000000E-002    -2.1509521275220322E-008
  -1.1400000000000000E-002    -2.2152342182835127E-008
  -1.1300000000000001E-002    -2.2249672326779546E-008
  -1.1199999999999998E-002    -2.1729301025175118E-008
  -1.1099999999999999E-002    -2.0789569177281919E-008
  -1.0999999999999999E-002    -1.9352919267134894E-008
  -1.0900000000000000E-002    -1.7365064053365131E-008
  -1.0800000000000001E-002    -1.5104657080655670E-008
  -1.0699999999999998E-002    -1.2441859986722648E-008
  -1.0599999999999998E-002    -9.2296037479400184E-009
  -1.0499999999999999E-002    -5.5684803434985497E-009
  -1.0400000000000000E-002    -1.6185729423412454E-009
  -1.0300000000000000E-002     2.5251207791399111E-009
  -1.0200000000000001E-002     6.7829488692439099E-009
  -1.0099999999999998E-002     1.1053423065732204E-008
  -9.9999999999999985E-003     1.5463388791658872E-008
  -9.8999999999999991E-003     1.9735871603643318E-008
  -9.7999999999999997E-003     2.3674461502309896E-008
  -9.7000000000000003E-003     2.7021588522302409E-008
  -9.6000000000000009E-003     2.9833103099008440E-008
  -9.4999999999999980E-003     3.2468108202010626E-008
  -9.3999999999999986E-003     3.4358151879132492E-008
  -9.2999999999999992E-003     3.5454679192525873E-008
  -9.1999999999999998E-003     3.5953608090721900E-008
  -9.1000000000000004E-003     3.5452480062758696E-008
  -9.0000000000000011E-003     3.4262434667198249E-008
  -8.8999999999999982E-003     3.2677341721409903E-008
  -8.7999999999999988E-003     3.0352342861306170E-008
  -8.6999999999999994E-003     2.7564245996813952E-008
  -8.5999999999999965E-003     2.4261414210968724E-008
  -8.5000000000000006E-003     1.9806638107411345E-008
  -8.3999999999999977E-003     1.4670779258096900E-008
  -8.3000000000000018E-003     9.5164054414453858E-009
  -8.1999999999999990E-003     4.4286627698397751E-009
  -8.0999999999999961E-003    -8.8107343643173408E-010
  -8.0000000000000002E-003    -6.1430265319017963E-009
  -7.8999999999999973E-003    -1.1085922402287451E-008
  -7.8000000000000014E-003    -1.5572668488061936E-008
  -7.6999999999999985E-003    -1.9837697706748258E-008
  -7.6000000000000026E-003    -2.4176021184985075E-008
  -7.4999999999999997E-003    -2.8615861680236776E-008
  -7.3999999999999969E-003    -3.2519658077490021E-008
  -7.3000000000000009E-003    -3.5482973004263840E-008
  -7.1999999999999981E-003    -3.8031490845469307E-008
  -7.1000000000000021E-003    -4.0131006073806930E-008
  -6.9999999999999993E-003    -4.1606725176279724E-008
  -6.8999999999999964E-003    -4.1990578125705724E-008
  -6.8000000000000005E-003    -4.1506169168314955E-008
  -6.6999999999999976E-003    -4.0171325821347637E-008
  -6.6000000000000017E-003    -3.7857390111639688E-008
  -6.4999999999999988E-003    -3.3851708991505802E-008
  -6.3999999999999960E-003    -2.7973081628829277E-008
  -6.3000000000000000E-003    -2.1135432959340505E-008
  -6.1999999999999972E-003    -1.2902106050205475E-008
  -6.1000000000000013E-003    -2.3416304451018277E-009
  -5.9999999999999984E-003     9.9026733479945506E-009
  -5.9000000000000025E-003     2.2808874788893263E-008
  -5.7999999999999996E-003     3.6527772806493886E-008
  -5.6999999999999967E-003     5.2158078744923841E-008
  -5.6000000000000008E-003     6.8261854835327540E-008
  -5.4999999999999979E-003     8.4010757461783214E-008
  -5.4000000000000020E-003     9.8577345397643512E-008
  -5.2999999999999992E-003     1.1111121267504132E-007
  -5.1999999999999963E-003     1.2346177413746773E-007
  -5.1000000000000004E-003     1.3580647362232412E-007
  -4.9999999999999975E-003     1.4567677908416954E-007
  -4.9000000000000016E-003     1.5296802757802652E-007
  -4.7999999999999987E-003     1.6135501823555387E-007
  -4.6999999999999958E-003     1.6852409601142426E-007
  -4.5999999999999999E-003     1.7476533287208440E-007
  -4.4999999999999971E-003     1.8221051334421645E-007
  -4.4000000000000011E-003     1.8948702518173377E-007
  -4.2999999999999983E-003     1.9596858180648269E-007
  -4.2000000000000023E-003     1.9752698676711589E-007
  -4.0999999999999995E-003     1.9705589693330694E-007
  -3.9999999999999966E-003     1.9723916011571418E-007
  -3.9000000000000007E-003     1.9572468090700568E-007
  -3.7999999999999978E-003     1.9165422315836622E-007
  -3.7000000000000019E-003     1.8767848075640359E-007
  -3.5999999999999990E-003     1.8566062465197319E-007
  -3.4999999999999962E-003     1.8092335096753231E-007
  -3.4000000000000002E-003     1.7392257234405406E-007
  -3.2999999999999974E-003     1.6431492610990972E-007
  -3.2000000000000015E-003     1.5325421998113598E-007
  -3.0999999999999986E-003     1.4388218971816968E-007
  -2.9999999999999957E-003     1.3259938214105205E-007
  -2.8999999999999998E-003     1.2031627250053134E-007
  -2.7999999999999969E-003     1.0448098208826195E-007
  -2.7000000000000010E-003     8.4502659092322574E-008
  -2.5999999999999981E-003     6.7273354886765446E-008
  -2.5000000000000022E-003     5.3232849239748248E-008
  -2.3999999999999994E-003     3.5171581203030655E-008
  -2.2999999999999965E-003     1.2806634863693489E-008
  -2.2000000000000006E-003    -1.0603256939134553E-008
  -2.0999999999999977E-003    -3.3283804157235863E-008
  -2.0000000000000018E-003    -5.5440352753066691E-008
  -1.8999999999999989E-003    -7.7743813164943276E-008
  -1.7999999999999960E-003    -9.6989651865442283E-008
  -1.7000000000000001E-003    -1.2049696351823513E-007
  -1.5999999999999973E-003    -1.4493517142000201E-007
  -1.5000000000000013E-003    -1.7028317245149083E-007
  -1.3999999999999985E-003    -1.9556989627744770E-007
  -1.2999999999999956E-003    -2.1828613228080940E-007
  -1.1999999999999997E-003    -2.3956653194545652E-007
  -1.0999999999999968E-003    -2.5434371764276875E-007
  -1.0000000000000009E-003    -2.6261574248565012E-007
  -8.9999999999999802E-004    -2.6523593987803906E-007
  -8.0000000000000210E-004    -2.6203377956335316E-007
  -6.9999999999999923E-004    -2.5402707137800462E-007
  -5.9999999999999637E-004    -2.4043953317232081E-007
  -5.0000000000000044E-004    -2.1562949825693067E-007
  -3.9999999999999758E-004    -1.8059050432839285E-007
  -3.0000000000000165E-004    -1.4763125477657013E-007
  -1.9999999999999879E-004    -1.1707091829293859E-007
  -9.9999999999995925E-005    -8.0804753110896854E-008
   0.0000000000000000         -4.3221412227012479E-008
   1.0000000000000286E-004    -4.9791887279937441E-010
   1.9999999999999879E-004     5.3249227249807518E-008
   3.0000000000000165E-004     1.0694083130147192E-007
   4.0000000000000452E-004     1.4981084461851424E-007
   5.0000000000000044E-004     1.8746096941413271E-007
   6.0000000000000331E-004     2.3135486060255062E-007
   6.9999999999999923E-004     2.7919318767999357E-007
   8.0000000000000210E-004     3.2644544489812688E-007
   8.9999999999999802E-004     3.7011773201811593E-007
   1.0000000000000009E-003     4.0696767200643080E-007
   1.1000000000000038E-003     4.4123163434051094E-007
   1.1999999999999997E-003     4.7481830733886454E-007
   1.3000000000000025E-003     5.0445459010006743E-007
   1.3999999999999985E-003     5.2571607511708862E-007
   1.5000000000000013E-003     5.3652718179364456E-007
   1.6000000000000042E-003     5.3699102409154875E-007
   1.7000000000000001E-003     5.2928697868992458E-007
   1.8000000000000030E-003     5.1212191465310752E-007
   1.8999999999999989E-003     4.8670614205548191E-007
   2.0000000000000018E-003     4.4785906538891140E-007
   2.1000000000000046E-003     3.9484558556068805E-007
   2.2000000000000006E-003     3.4095253909072198E-007
   2.3000000000000034E-003     2.8019920250699215E-007
   2.3999999999999994E-003     2.0973189407413884E-007
   2.5000000000000022E-003     1.3356685713006300E-007
   2.5999999999999981E-003     4.8372797323281702E-008
   2.7000000000000010E-003    -2.5870907194303072E-008
   2.8000000000000039E-003    -1.0239209302653762E-007
   2.8999999999999998E-003    -2.0372380049593630E-007
   3.0000000000000027E-003    -3.1075498441168747E-007
   3.0999999999999986E-003    -4.0687078239898256E-007
   3.2000000000000015E-003    -4.9684376790537499E-007
   3.3000000000000043E-003    -5.7782250451055006E-007
   3.4000000000000002E-003    -6.5063500187534373E-007
   3.5000000000000031E-003    -7.2328441547142575E-007
   3.5999999999999990E-003    -7.8454365848301677E-007
   3.7000000000000019E-003    -8.3653912952286191E-007
   3.7999999999999978E-003    -8.6175691649259534E-007
   3.9000000000000007E-003    -8.7796314574006828E-007
   4.0000000000000036E-003    -8.9400060687694349E-007
   4.0999999999999995E-003    -8.8657753849474830E-007
   4.2000000000000023E-003    -8.6444424596265890E-007
   4.2999999999999983E-003    -8.1728950362958130E-007
   4.4000000000000011E-003    -7.5295048418411170E-007
   4.5000000000000040E-003    -6.6570333956406103E-007
   4.5999999999999999E-003    -5.5728031611579354E-007
   4.7000000000000028E-003    -4.3550582518037118E-007
   4.7999999999999987E-003    -2.9938644274807302E-007
   4.9000000000000016E-003    -1.5655355412036442E-007
   5.0000000000000044E-003    -3.9454053357701468E-009
   5.1000000000000004E-003     1.5258483188063110E-007
   5.2000000000000032E-003     2.9550940894296218E-007
   5.2999999999999992E-003     4.1904087311195326E-007
   5.4000000000000020E-003     5.5323926062555984E-007
   5.4999999999999979E-003     6.8924907736800378E-007
   5.6000000000000008E-003     8.0500296917307423E-007
   5.7000000000000037E-003     9.1439557081685052E-007
   5.7999999999999996E-003     1.0024766652350081E-006
   5.9000000000000025E-003     1.0586425105429953E-006
   5.9999999999999984E-003     1.0832202406163560E-006
   6.1000000000000013E-003     1.0762618103399291E-006
   6.2000000000000041E-003     1.0562913530520746E-006
   6.3000000000000000E-003     9.9446333479136229E-007
   6.4000000000000029E-003     9.0465186985966284E-007
   6.4999999999999988E-003     7.9820540577202337E-007
   6.6000000000000017E-003     6.6008777821480180E-007
   6.7000000000000046E-003     5.0183564326289343E-007
   6.8000000000000005E-003     3.0879817813911359E-007
   6.9000000000000034E-003     9.9132400066537230E-008
   6.9999999999999993E-003    -1.1657183307534069E-007
   7.1000000000000021E-003    -3.4543850802037923E-007
   7.1999999999999981E-003    -5.7509157613822026E-007
   7.3000000000000009E-003    -7.9952144460548880E-007
   7.4000000000000038E-003    -9.9774501904903445E-007
   7.4999999999999997E-003    -1.1602894574025413E-006
   7.6000000000000026E-003    -1.3032674814894563E-006
   7.6999999999999985E-003    -1.4317073464553687E-006
   7.8000000000000014E-003    -1.5156813333305763E-006
   7.9000000000000042E-003    -1.5595363720422029E-006
   8.0000000000000002E-003    -1.5598482150380732E-006
   8.1000000000000030E-003    -1.4879145737722865E-006
   8.1999999999999990E-003    -1.4088062698647263E-006
   8.3000000000000018E-003    -1.2987130730834906E-006
   8.4000000000000047E-003    -1.1192933015991002E-006
   8.5000000000000006E-003    -9.2764753389928956E-007
   8.6000000000000035E-003    -7.1285541025645216E-007
   8.6999999999999994E-003    -4.5493260358853149E-007
   8.8000000000000023E-003    -1.7170214050565846E-007
   8.8999999999999982E-003     1.4686253280160599E-007
   9.0000000000000011E-003     5.1631565156640136E-007
   9.1000000000000039E-003     9.1891746478722780E-007
   9.1999999999999998E-003     1.3224341728346189E-006
   9.3000000000000027E-003     1.7426323211111594E-006
   9.3999999999999986E-003     2.1938394638709724E-006
   9.5000000000000015E-003     2.6515879198996117E-006
   9.6000000000000044E-003     3.0744918149139266E-006
   9.7000000000000003E-003     3.4641229831322562E-006
   9.8000000000000032E-003     3.8600605876126792E-006
   9.8999999999999991E-003     4.2468500396353193E-006
   1.0000000000000002E-002     4.6012514758331235E-006
   1.0100000000000005E-002     4.9133714128402062E-006
   1.0200000000000001E-002     5.2006794248882215E-006
   1.0300000000000004E-002     5.4500842452398501E-006
   1.0400000000000000E-002     5.6505086831748486E-006
   1.0500000000000002E-002     5.8141704357694834E-006
   1.0599999999999998E-002     5.9071135183330625E-006
   1.0700000000000001E-002     5.9204453464190010E-006
   1.0800000000000004E-002     5.8651512517826632E-006
   1.0900000000000000E-002     5.7335587371198926E-006
   1.1000000000000003E-002     5.5175673878693487E-006
   1.1099999999999999E-002     5.2384411901584826E-006
   1.1200000000000002E-002     4.9075720198743511E-006
   1.1300000000000004E-002     4.5028491513221525E-006
   1.1400000000000000E-002     4.0172071749111637E-006
   1.1500000000000003E-002     3.4819145184883382E-006
   1.1599999999999999E-002     2.9079496925987769E-006
   1.1700000000000002E-002     2.2783001440984663E-006
   1.1800000000000005E-002     1.5972111668816069E-006
   1.1900000000000001E-002     8.7962911266004085E-007
   1.2000000000000004E-002     1.3870923964987014E-007
   1.2100000000000000E-002    -6.2758567764831241E-007
   1.2200000000000003E-002    -1.4055420933800633E-006
   1.2299999999999998E-002    -2.2002921014063759E-006
   1.2400000000000001E-002    -2.9957930109958397E-006
   1.2500000000000004E-002    -3.7798413359269034E-006
   1.2600000000000000E-002    -4.5562546802102588E-006
   1.2700000000000003E-002    -5.2865343604935333E-006
   1.2799999999999999E-002    -5.9834669627889525E-006
   1.2900000000000002E-002    -6.6232582867087331E-006
   1.3000000000000005E-002    -7.1603103606321383E-006
   1.3100000000000001E-002    -7.5927187026536558E-006
   1.3200000000000003E-002    -7.9262899816967547E-006
   1.3299999999999999E-002    -8.1486186900292523E-006
   1.3400000000000002E-002    -8.2227252278244123E-006
   1.3500000000000005E-002    -8.1555463111726567E-006
   1.3600000000000001E-002    -7.9555320553481579E-006
   1.3700000000000004E-002    -7.6136107054480817E-006
   1.3800000000000000E-002    -7.0954456532490440E-006
   1.3900000000000003E-002    -6.4359019233961590E-006
   1.3999999999999999E-002    -5.6689314078539610E-006
   1.4100000000000001E-002    -4.7878620534902439E-006
   1.4200000000000004E-002    -3.8096488879091339E-006
   1.4300000000000000E-002    -2.7150178993906593E-006
   1.4400000000000003E-002    -1.5390365888379165E-006