  -8.0000000000000002E-002     0.0000000000000000
  -7.9579999999999998E-002     0.0000000000000000
  -7.9160000000000008E-002     0.0000000000000000
  -7.8740000000000004E-002     0.0000000000000000
  -7.8320000000000001E-002     0.0000000000000000
  -7.7899999999999997E-002     0.0000000000000000
  -7.7480000000000007E-002     0.0000000000000000
  -7.7060000000000003E-002     0.0000000000000000
  -7.6640000000000000E-002     0.0000000000000000
  -7.6219999999999996E-002     0.0000000000000000
  -7.5800000000000006E-002     0.0000000000000000
  -7.5380000000000003E-002     0.0000000000000000
  -7.4959999999999999E-002     0.0000000000000000
  -7.4539999999999995E-002     0.0000000000000000
  -7.4120000000000005E-002    -1.1415744664317414E-042
  -7.3700000000000002E-002    -7.1880405719320761E-042
  -7.3279999999999998E-002     1.4551311327616119E-041
  -7.2860000000000008E-002     2.5231335631702372E-040
  -7.2440000000000004E-002     5.8749182875624772E-040
  -7.2020000000000001E-002    -2.1842782544727659E-039
  -7.1599999999999997E-002    -1.4643498939626571E-038
  -7.1180000000000007E-002    -1.7172965032610575E-038
  -7.0760000000000003E-002     1.0459672283560876E-037
  -7.0340000000000000E-002     4.6005014519360633E-037
  -6.9919999999999996E-002     4.0777684847802759E-037
  -6.9500000000000006E-002    -2.3765908983897387E-036
  -6.9080000000000003E-002    -9.1351380349743211E-036
  -6.8659999999999999E-002    -8.6037642319958413E-036
  -6.8239999999999995E-002     3.1828543155283844E-035
  -6.7820000000000005E-002     1.2556969096663151E-034
  -6.7400000000000002E-002     1.4038122178611767E-034
  -6.6979999999999998E-002    -2.7298420242056517E-034
  -6.6560000000000008E-002    -1.2739419401975407E-033
  -6.6140000000000004E-002    -1.7248995798656017E-033
  -6.5720000000000001E-002     1.3850021926679209E-033
  -6.5299999999999997E-002     9.8714781258219850E-033
  -6.4879999999999993E-002     1.6306095742618810E-032
  -6.4460000000000003E-002    -7.3710086089923085E-034
  -6.4040000000000000E-002    -5.8624169568527975E-032
  -6.3619999999999996E-002    -1.2097875115399252E-031
  -6.3200000000000006E-002    -6.1006284407604825E-032
  -6.2780000000000002E-002     2.5575723500048619E-031
  -6.2359999999999999E-002     7.0956682871487473E-031
  -6.1940000000000002E-002     6.8029668398925625E-031
  -6.1520000000000005E-002    -6.7542557065127743E-031
  -6.1100000000000002E-002    -3.2528199826052405E-030
  -6.0679999999999998E-002    -4.6040338843244532E-030
  -6.0260000000000001E-002    -4.2526845505043425E-031
  -5.9840000000000004E-002     1.1082189024353611E-029
  -5.9420000000000001E-002     2.2607895642835924E-029
  -5.8999999999999997E-002     1.6362378209012787E-029
  -5.8580000000000000E-002    -2.3006610515898523E-029
  -5.8160000000000003E-002    -8.2528346094240306E-029
  -5.7740000000000000E-002    -1.0409305613553523E-028
  -5.7319999999999996E-002    -1.1173616612685565E-029
  -5.6899999999999999E-002     2.0888814785773129E-028
  -5.6480000000000002E-002     4.1731311757798669E-028
  -5.6059999999999999E-002     3.3934949494327388E-028
  -5.5640000000000002E-002    -2.3469141768202428E-028
  -5.5220000000000005E-002    -1.1327855043550742E-027
  -5.4800000000000001E-002    -1.6400189978627390E-027
  -5.4379999999999998E-002    -8.1434456762332028E-028
  -5.3960000000000001E-002     1.6751657405130997E-027
  -5.3540000000000004E-002     4.6775750914313332E-027
  -5.3120000000000001E-002     5.5457566728806594E-027
  -5.2699999999999997E-002     1.6225109469974003E-027
  -5.2280000000000000E-002    -7.1749065999517764E-027
  -5.1860000000000003E-002    -1.6381212670992774E-026
  -5.1440000000000000E-002    -1.7827496672324165E-026
  -5.1019999999999996E-002    -4.3314402064574613E-027
  -5.0599999999999999E-002     2.3418102919224454E-026
  -5.0180000000000002E-002     5.2144837349621176E-026
  -4.9759999999999999E-002     5.8478968504790236E-026
  -4.9340000000000002E-002     2.0980806667011988E-026
  -4.8920000000000005E-002    -6.1706620614061151E-026
  -4.8500000000000001E-002    -1.5628802833855861E-025
  -4.8079999999999998E-002    -1.9672490862131444E-025
  -4.7660000000000001E-002    -1.1188628563077751E-025
  -4.7239999999999997E-002     1.2402715197905467E-025
  -4.6820000000000001E-002     4.3966353882185605E-025
  -4.6399999999999997E-002     6.5080802035250241E-025
  -4.5980000000000000E-002     5.1854776782514168E-025
  -4.5560000000000003E-002    -1.0898159261593242E-025
  -4.5140000000000000E-002    -1.1181113620171453E-024
  -4.4720000000000003E-002    -2.0237083824322489E-024
  -4.4299999999999999E-002    -2.0687216590950022E-024
  -4.3880000000000002E-002    -5.9999583334110341E-025
  -4.3459999999999999E-002     2.3695149326026449E-024
  -4.3040000000000002E-002     5.7055379105062130E-024
  -4.2619999999999998E-002     7.2173232052582177E-024
  -4.2200000000000001E-002     4.5446936478695147E-024
  -4.1779999999999998E-002    -3.2391241455122133E-024
  -4.1360000000000001E-002    -1.4008712152405635E-023
  -4.0939999999999997E-002    -2.2109699817545432E-023
  -4.0520000000000000E-002    -2.0088283879621725E-023
  -4.0099999999999997E-002    -2.7788749579630918E-024
  -3.9680000000000000E-002     2.7667215389258347E-023
  -3.9260000000000003E-002     5.8733367040736749E-023
  -3.8840000000000000E-002     6.9745460284412502E-023
  -3.8420000000000003E-002     4.0923031205209842E-023
  -3.7999999999999999E-002    -3.2855520857039630E-023
  -3.7580000000000002E-002    -1.3005362709572315E-022
  -3.7159999999999999E-002    -2.0115322581792981E-022
  -3.6740000000000002E-002    -1.8481063334709044E-022
  -3.6319999999999998E-002    -4.0650443316974818E-023
  -3.5900000000000001E-002     2.1326525938214635E-022
  -3.5479999999999998E-002     4.7954229544385491E-022
  -3.5060000000000001E-002     5.9905907345893116E-022
  -3.4639999999999997E-002     4.1632468843638419E-022
  -3.4220000000000000E-002    -1.2293144899651792E-022
  -3.3799999999999997E-002    -8.8507864118601130E-022
  -3.3380000000000000E-002    -1.5309775627742793E-021
  -3.2960000000000003E-002    -1.6128717218435030E-021
  -3.2539999999999999E-002    -7.8505791725117440E-022
  -3.2120000000000003E-002     9.4029917934799515E-022
  -3.1699999999999999E-002     3.0205836087675455E-021
  -3.1280000000000002E-002     4.4343894992265276E-021
  -3.0859999999999999E-002     4.0348933815161440E-021
  -3.0440000000000002E-002     1.1447035301477744E-021
  -3.0019999999999998E-002    -3.8341292302163671E-021
  -2.9600000000000001E-002    -9.1334549081848372E-021
  -2.9179999999999998E-002    -1.1965073243698901E-020
  -2.8760000000000001E-002    -9.5930570768109509E-021
  -2.8339999999999997E-002    -8.6351037818369978E-022
  -2.7920000000000000E-002     1.2447135901394880E-020
  -2.7499999999999997E-002     2.5281070290982000E-020
  -2.7080000000000000E-002     3.0567254249656694E-020
  -2.6659999999999996E-002     2.2118544211574391E-020
  -2.6239999999999999E-002    -1.7027263673206778E-021
  -2.5820000000000003E-002    -3.5176573157172560E-020
  -2.5399999999999999E-002    -6.5110914629827755E-020
  -2.4980000000000002E-002    -7.4581840848102289E-020
  -2.4559999999999998E-002    -5.0137967729518331E-020
  -2.4140000000000002E-002     9.8764694903014485E-021
  -2.3719999999999998E-002     8.9722126126794565E-020
  -2.3300000000000001E-002     1.5732183227231074E-019
  -2.2879999999999998E-002     1.7401892576162948E-019
  -2.2460000000000001E-002     1.1143995146457386E-019
  -2.2039999999999997E-002    -3.0328958840818112E-020
  -2.1620000000000000E-002    -2.1187410378515965E-019
  -2.1199999999999997E-002    -3.5907253317696947E-019
  -2.0780000000000000E-002    -3.8669167453855738E-019
  -2.0359999999999996E-002    -2.3634203489568850E-019
  -1.9939999999999999E-002     8.4633957501304675E-020
  -1.9519999999999996E-002     4.8213696565307492E-019
  -1.9099999999999999E-002     7.8909363449404243E-019
  -1.8680000000000002E-002     8.2022996540944623E-019
  -1.8259999999999998E-002     4.5638235183971007E-019
  -1.7840000000000002E-002    -2.7159723593411881E-019
  -1.7420000000000005E-002    -1.1401337787446611E-018
  -1.7000000000000001E-002    -1.7675951506628170E-018
  -1.6579999999999998E-002    -1.7391421740324360E-018
  -1.6159999999999994E-002    -7.9672091930903051E-019
  -1.5740000000000004E-002     9.7077875502817576E-019
  -1.5320000000000000E-002     3.0266779391364254E-018
  -1.4899999999999997E-002     4.4570140620172626E-018
  -1.4479999999999993E-002     4.2472490683528761E-018
  -1.4060000000000003E-002     1.7201864614433077E-018
  -1.3639999999999999E-002    -2.9987173891182604E-018
  -1.3219999999999996E-002    -8.6850730876068594E-018
  -1.2799999999999992E-002    -1.3085493038232608E-017
  -1.2380000000000002E-002    -1.3468767795177972E-017
  -1.1959999999999998E-002    -7.6144943317389990E-018
  -1.1539999999999995E-002     5.0009692479138856E-018
  -1.1120000000000005E-002     2.2228941123607827E-017
  -1.0700000000000001E-002     3.8955340353468496E-017
  -1.0279999999999997E-002     4.7866125152451077E-017
  -9.8599999999999938E-003     4.1377862142714169E-017
  -9.4400000000000039E-003     1.4444644120865519E-017
  -9.0200000000000002E-003    -3.2463137656728934E-017
  -8.5999999999999965E-003    -9.1208241266182129E-017
  -8.1799999999999928E-003    -1.4570487327910212E-016
  -7.7600000000000030E-003    -1.7425068584464535E-016
  -7.3399999999999993E-003    -1.5459614816621551E-016
  -6.9199999999999956E-003    -7.1045101594562805E-017
  -6.4999999999999919E-003     7.7951142568516791E-017
  -6.0800000000000021E-003     2.7383028646575080E-016
  -5.6599999999999984E-003     4.7583160743379868E-016
  -5.2399999999999947E-003     6.2456200133710096E-016
  -4.8200000000000048E-003     6.5195009602193268E-016
  -4.4000000000000011E-003     4.9687230578540550E-016
  -3.9799999999999974E-003     1.2415621854599561E-016
  -3.5599999999999937E-003    -4.5670242730112517E-016
  -3.1400000000000039E-003    -1.1776165244989594E-015
  -2.7200000000000002E-003    -1.9073741695010069E-015
  -2.2999999999999965E-003    -2.4603049613965678E-015
  -1.8799999999999928E-003    -2.6203061830783258E-015
  -1.4600000000000030E-003    -2.1799709386794851E-015
  -1.0399999999999993E-003    -9.9156627691701437E-016
  -6.1999999999999555E-004     9.7668593788938080E-016
  -1.9999999999999185E-004     3.5887936933115125E-015
   2.1999999999999797E-004     6.5059907814561636E-015
   6.4000000000000168E-004     9.1821088936684989E-015
   1.0600000000000054E-003     1.0901876702264494E-014
   1.4799999999999952E-003     1.0870636744710277E-014
   1.8999999999999989E-003     8.3563287974661315E-015
   2.3200000000000026E-003     2.8735483604696079E-015
   2.7400000000000063E-003    -5.6138695598571995E-015
   3.1599999999999961E-003    -1.6508701863017760E-014
   3.5799999999999998E-003    -2.8461742366330818E-014
   4.0000000000000036E-003    -3.9369145547499038E-014
   4.4200000000000073E-003    -4.6528926129391720E-014
   4.8399999999999971E-003    -4.6980305803107412E-014
   5.2600000000000008E-003    -3.8018044238521697E-014
   5.6800000000000045E-003    -1.7833662780967609E-014
   6.1000000000000082E-003     1.3806943402456785E-014
   6.5199999999999980E-003     5.4975684396356337E-014
   6.9400000000000017E-003     1.0122995863036649E-013
   7.3600000000000054E-003     1.4563631506200569E-013
   7.7799999999999953E-003     1.7927546131373962E-013
   8.1999999999999990E-003     1.9226935979638704E-013
   8.6200000000000027E-003     1.7528280208628396E-013
   9.0400000000000064E-003     1.2135213498279047E-013
   9.4599999999999962E-003     2.7799233256724872E-014
   9.8799999999999999E-003    -1.0208281642798447E-013
   1.0300000000000004E-002    -2.5791663333619737E-013
   1.0720000000000007E-002    -4.2202317337511281E-013
   1.1139999999999997E-002    -5.7034306992724374E-013
   1.1560000000000001E-002    -6.7460561647496169E-013
   1.1980000000000005E-002    -7.0567791524578675E-013
   1.2400000000000008E-002    -6.3782972099391801E-013
   1.2819999999999998E-002    -4.5345729494810243E-013
   1.3240000000000002E-002    -1.4765361675717332E-013
   1.3660000000000005E-002     2.6808177921133252E-013
   1.4079999999999995E-002     7.6370371977380725E-013
   1.4499999999999999E-002     1.2906670856606303E-012
   1.4920000000000003E-002     1.7845686279910467E-012
   1.5340000000000006E-002     2.1704985001760506E-012
   1.5759999999999996E-002     2.3708535113959539E-012
   1.6180000000000000E-002     2.3149770897882209E-012
   1.6600000000000004E-002     1.9496369589681743E-012
   1.7020000000000007E-002     1.2490821949287071E-012
   1.7439999999999997E-002     2.2329771327473634E-013
   1.7860000000000001E-002    -1.0768680475461024E-012
   1.8280000000000005E-002    -2.5587728005282251E-012
   1.8700000000000008E-002    -4.0918786691322903E-012
   1.9119999999999998E-002    -5.5165391916678765E-012
   1.9540000000000002E-002    -6.6571054649758884E-012
   1.9960000000000006E-002    -7.3381961589218277E-012
   2.0380000000000009E-002    -7.4025169162112751E-012
   2.0799999999999999E-002    -6.7283865678792438E-012
   2.1220000000000003E-002    -5.2451458846231274E-012
   2.1640000000000006E-002    -2.9449148914376760E-012
   2.2059999999999996E-002     1.1035033633215671E-013
   2.2480000000000000E-002     3.7869409507547407E-012
   2.2900000000000004E-002     7.8824686730617806E-012
   2.3320000000000007E-002     1.2133317717122458E-011
   2.3739999999999997E-002     1.6225610553858713E-011
   2.4160000000000001E-002     1.9808859517021740E-011
   2.4580000000000005E-002     2.2511719203074826E-011
   2.5000000000000008E-002     2.3959645379039711E-011
   2.5419999999999998E-002     2.3794749319837899E-011
   2.5840000000000002E-002     2.1698335156325337E-011
   2.6260000000000006E-002     1.7416658104546824E-011
   2.6680000000000009E-002     1.0790075349996714E-011
   2.7099999999999999E-002     1.7849548642640369E-012
   2.7520000000000003E-002    -9.4732843852814389E-012
   2.7940000000000006E-002    -2.2668914102016913E-011
   2.8359999999999996E-002    -3.7270395792814857E-011
   2.8780000000000000E-002    -5.2515500099492124E-011
   2.9200000000000004E-002    -6.7412131357958338E-011
   2.9620000000000007E-002    -8.0759511867682991E-011
   3.0039999999999997E-002    -9.1193221444001138E-011
   3.0460000000000001E-002    -9.7255571346701785E-011
   3.0880000000000005E-002    -9.7490332553457115E-011
   3.1300000000000008E-002    -9.0558042979485956E-011
   3.1719999999999998E-002    -7.5365253928358282E-011
   3.2140000000000002E-002    -5.1198720673789971E-011
   3.2560000000000006E-002    -1.7853731468456140E-011
   3.2980000000000009E-002     2.4254927064121523E-011
   3.3399999999999999E-002     7.4010714958945311E-011
   3.3820000000000003E-002     1.2955163418749975E-010
   3.4240000000000007E-002     1.8827263814264207E-010
   3.4659999999999996E-002     2.4687856352747173E-010
   3.5080000000000000E-002     3.0148867815961606E-010
   3.5500000000000004E-002     3.4779022253954658E-010
   3.5920000000000007E-002     3.8123561155161087E-010
   3.6339999999999997E-002     3.9727533755968590E-010
   3.6760000000000001E-002     3.9161719348731202E-010
   3.7180000000000005E-002     3.6050228853220917E-010
   3.7600000000000008E-002     3.0098780470566200E-010
   3.8019999999999998E-002     2.1122797559398196E-010
   3.8440000000000002E-002     9.0744930553026026E-011
   3.8860000000000006E-002    -5.9317730423858671E-011
   3.9280000000000009E-002    -2.3596640402329566E-010
   3.9699999999999999E-002    -4.3416197670123754E-010
   4.0120000000000003E-002    -6.4666682968874346E-010
   4.0540000000000007E-002    -8.6394530151034438E-010
   4.0960000000000010E-002    -1.0741298176319756E-009
   4.1380000000000000E-002    -1.2630650107756452E-009
   4.1800000000000004E-002    -1.4144407805455385E-009
   4.2220000000000008E-002    -1.5100214739240233E-009
   4.2639999999999997E-002    -1.5299729580299321E-009
   4.3060000000000001E-002    -1.4532813977450808E-009
   4.3480000000000005E-002    -1.2582485266077746E-009
   4.3900000000000008E-002    -9.2303881374740365E-010
   4.4319999999999998E-002    -4.2624492585169622E-010
   4.4740000000000002E-002     2.5256750929875780E-010
   4.5159999999999992E-002     1.1323800834448899E-009
   4.5579999999999996E-002     2.2303494124979501E-009
   4.5999999999999999E-002     3.5615810748034966E-009
   4.6420000000000003E-002     5.1390831263310636E-009
   4.6840000000000007E-002     6.9739194076833433E-009
   4.7260000000000010E-002     9.0755716898897374E-009
   4.7680000000000014E-002     1.1452519941418167E-008
   4.8099999999999990E-002     1.4113013506904954E-008
   4.8519999999999994E-002     1.7066026209343889E-008
   4.8939999999999997E-002     2.0322358521214686E-008
   4.9360000000000001E-002     2.3895855375249517E-008
   4.9780000000000005E-002     2.7804721058505542E-008
   5.0200000000000009E-002     3.2072869212022418E-008
   5.0620000000000012E-002     3.6731293514286924E-008
   5.1040000000000016E-002     4.1819447484636339E-008
   5.1459999999999992E-002     4.7386531731553960E-008
   5.1879999999999996E-002     5.3492756971658536E-008
   5.2299999999999999E-002     6.0210484323026659E-008
   5.2720000000000003E-002     6.7625263338065950E-008
   5.3140000000000007E-002     7.5836738910416405E-008
   5.3560000000000010E-002     8.4959437995238802E-008
   5.3980000000000014E-002     9.5123429570212461E-008
   5.4400000000000018E-002     1.0647484249871613E-007
   5.4819999999999994E-002     1.1917633872656812E-007
   5.5239999999999997E-002     1.3340746815559524E-007
   5.5660000000000001E-002     1.4936509076999257E-007
   5.6080000000000005E-002     1.6726380314938592E-007
   5.6500000000000009E-002     1.8733648949557693E-007
   5.6920000000000012E-002     2.0983508733010377E-007
   5.7340000000000016E-002     2.3503150036977085E-007
   5.7759999999999992E-002     2.6321888359095061E-007
   5.8179999999999996E-002     2.9471321507207402E-007
   5.8599999999999999E-002     3.2985513114799660E-007
   5.9020000000000003E-002     3.6901201827562268E-007
   5.9440000000000007E-002     4.1258052472123596E-007
   5.9860000000000010E-002     4.6098912848810683E-007
   6.0280000000000014E-002     5.1470089549345332E-007
   6.0700000000000018E-002     5.7421634040198281E-007
   6.1119999999999994E-002     6.4007614367971195E-007
   6.1539999999999997E-002     7.1286398652804934E-007
   6.1960000000000001E-002     7.9320927876924512E-007
   6.2380000000000005E-002     8.8178964452905211E-007
   6.2800000000000009E-002     9.7933328388477951E-007
   6.3220000000000012E-002     1.0866213868679440E-006
   6.3640000000000016E-002     1.2044902227799424E-006
   6.4059999999999992E-002     1.3338330622324050E-006
   6.4479999999999996E-002     1.4756025963178294E-006
   6.4899999999999999E-002     1.6308127702276421E-006
   6.5320000000000003E-002     1.8005409993343918E-006
   6.5740000000000007E-002     1.9859295328167904E-006
   6.6160000000000010E-002     2.1881886910376826E-006
   6.6580000000000014E-002     2.4085981003100306E-006
   6.7000000000000018E-002     2.6485091976234331E-006
   6.7419999999999994E-002     2.9093475456719286E-006
   6.7839999999999998E-002     3.1926160687472982E-006
   6.8260000000000001E-002     3.4998954723863917E-006
   6.8680000000000005E-002     3.8328476966588563E-006
   6.9100000000000009E-002     4.1932166658584922E-006
   6.9520000000000012E-002     4.5828300288790860E-006
   6.9940000000000016E-002     5.0035980468284259E-006
   7.0359999999999992E-002     5.4575152247716199E-006
   7.0779999999999996E-002     5.9466584605110377E-006
   7.1199999999999999E-002     6.4731825073500434E-006
   7.1620000000000003E-002     7.0393169198647755E-006
   7.2040000000000007E-002     7.6473585191680240E-006
   7.2460000000000011E-002     8.2996640937925404E-006
   7.2880000000000014E-002     8.9986411761237667E-006
   7.3300000000000018E-002     9.7467348702330415E-006
   7.3719999999999994E-002     1.0546411348875623E-005
   7.4139999999999998E-002     1.1400147369018636E-005
   7.4560000000000001E-002     1.2310407445646220E-005
   7.4980000000000005E-002     1.3279626948370663E-005
   7.5400000000000009E-002     1.4310193399806009E-005
   7.5820000000000012E-002     1.5404421958033178E-005
   7.6240000000000016E-002     1.6564532676819736E-005
   7.6659999999999992E-002     1.7792628570934037E-005
   7.7079999999999996E-002     1.9090670945363628E-005
   7.7499999999999999E-002     2.0460458370864970E-005
   7.7920000000000003E-002     2.1903595092630220E-005
   7.8340000000000007E-002     2.3421472049490969E-005
   7.8760000000000011E-002     2.5015242373406261E-005
   7.9180000000000014E-002     2.6685790907120333E-005
   7.9600000000000018E-002     2.8433712791092704E-005
   8.0019999999999994E-002     3.0259285664506857E-005
   8.0439999999999998E-002     3.2162443232758806E-005
   8.0860000000000001E-002     3.4142746368732178E-005
   8.1280000000000005E-002     3.6199356040849313E-005
   8.1700000000000009E-002     3.8331000813348401E-005
   8.2120000000000012E-002     4.0535947882353816E-005
   8.2540000000000016E-002     4.2811972459820556E-005
   8.2959999999999992E-002     4.5156334764511690E-005
   8.3379999999999996E-002     4.7565730983162289E-005
   8.3799999999999999E-002     5.0036271034880879E-005
   8.4220000000000003E-002     5.2563447971052700E-005
   8.4640000000000007E-002     5.5142095517931362E-005
   8.5060000000000011E-002     5.7766356082491545E-005
   8.5480000000000014E-002     6.0429639982762911E-005
   8.5900000000000018E-002     6.3124595671084494E-005
   8.6319999999999994E-002     6.5843085101711566E-005
   8.6739999999999998E-002     6.8576170680592071E-005
   8.7160000000000001E-002     7.1314072549989306E-005
   8.7580000000000005E-002     7.4046183713780044E-005
   8.8000000000000009E-002     7.6761061316624215E-005
   8.8420000000000012E-002     7.9446403548913807E-005
   8.8840000000000016E-002     8.2089079416721022E-005
   8.9259999999999992E-002     8.4675135211543782E-005
   8.9679999999999996E-002     8.7189808417984974E-005
   9.0100000000000000E-002     8.9617560598074736E-005
   9.0520000000000003E-002     9.1942153714851918E-005
   9.0940000000000007E-002     9.4146666577222973E-005
   9.1360000000000011E-002     9.6213597681291376E-005
   9.1780000000000014E-002     9.8124915948590748E-005
   9.2200000000000018E-002     9.9862162123383688E-005
   9.2619999999999994E-002     1.0140652354388617E-004
   9.3039999999999998E-002     1.0273897419939186E-004
   9.3460000000000001E-002     1.0384035314509549E-004
   9.3880000000000005E-002     1.0469150005176474E-004
   9.4300000000000009E-002     1.0527339622159497E-004
   9.4720000000000013E-002     1.0556729551199779E-004
   9.5140000000000016E-002     1.0555488073868751E-004
   9.5559999999999992E-002     1.0521845844285207E-004
   9.5979999999999996E-002     1.0454110116360138E-004
   9.6400000000000000E-002     1.0350686125881177E-004
   9.6820000000000003E-002     1.0210093469046549E-004
   9.7240000000000007E-002     1.0030988272226555E-004
   9.7660000000000011E-002     9.8121800670849328E-005
   9.8080000000000014E-002     9.5526549394962866E-005
   9.8500000000000018E-002     9.2515955257661971E-005
   9.8919999999999994E-002     8.9084009366656555E-005
   9.9339999999999998E-002     8.5227078099166513E-005
   9.9760000000000001E-002     8.0944129047870049E-005
  0.10018000000000001          7.6236944264948750E-005
  0.10060000000000001          7.1110364161175866E-005
  0.10102000000000001          6.5572521704407961E-005
  0.10144000000000002          5.9635028643522593E-005
  0.10185999999999999          5.3313205636272952E-005
  0.10228000000000000          4.6626231135279187E-005
  0.10270000000000000          3.9597332242531983E-005
  0.10312000000000000          3.2253907832297866E-005
  0.10354000000000001          2.4627674180840149E-005
  0.10396000000000001          1.6754772756552736E-005
  0.10438000000000001          8.6758790345936458E-006
  0.10480000000000002          4.3627207393194967E-007
  0.10521999999999999         -7.9141094905132364E-006
  0.10564000000000000         -1.6320653482640135E-005
  0.10606000000000000         -2.4724079151690772E-005
  0.10648000000000001         -3.3060490401458528E-005
  0.10690000000000001         -4.1261477896922756E-005
  0.10732000000000001         -4.9254254594269006E-005
  0.10774000000000002         -5.6961829465095417E-005
  0.10815999999999999         -6.4303223070137459E-005
  0.10858000000000000         -7.1193726042654770E-005
  0.10900000000000000         -7.7545198361841943E-005
  0.10942000000000000         -8.3266387533464790E-005
  0.10984000000000001         -8.8263319358728554E-005
  0.11026000000000001         -9.2439690631459831E-005
  0.11068000000000001         -9.5697325627151411E-005
  0.11110000000000002         -9.7936667529179643E-005
  0.11151999999999999         -9.9057331815199866E-005
  0.11194000000000000         -9.8958675860026998E-005
  0.11236000000000000         -9.7540461697938620E-005
  0.11278000000000001         -9.4703500305286394E-005
  0.11320000000000001         -9.0350396140309955E-005
  0.11362000000000001         -8.4386289165335057E-005
  0.11404000000000002         -7.6719605909726494E-005
  0.11446000000000002         -6.7262821721848816E-005
  0.11488000000000000         -5.5933257703636555E-005
  0.11530000000000000         -4.2653842783811976E-005
  0.11572000000000000         -2.7353944907249576E-005
  0.11614000000000001         -9.9702217056446752E-006
  0.11656000000000001          9.5525796349573609E-006
  0.11698000000000001          3.1260768297569162E-005
  0.11740000000000002          5.5190854738621086E-005
  0.11781999999999999          8.1368748760429660E-005
  0.11824000000000000          1.0980894512530192E-004
  0.11866000000000000          1.4051375938486268E-004
  0.11908000000000001          1.7347262928144088E-004
  0.11950000000000001          2.0866152052962625E-004
  0.11992000000000001          2.4604228521432603E-004
  0.12034000000000002          2.8556209628073442E-004
  0.12076000000000002          3.2715299710131085E-004
  0.12118000000000000          3.7073147023309558E-004
  0.12160000000000000          4.1619810826425043E-004
  0.12202000000000000          4.6343741513996746E-004
  0.12244000000000001          5.1231755869785196E-004
  0.12286000000000001          5.6269029592817782E-004
  0.12328000000000001          6.1439095726683051E-004
  0.12370000000000002          6.6723856941026580E-004
  0.12411999999999999          7.2103608558869638E-004
  0.12454000000000000          7.7557088018890283E-004
  0.12496000000000000          8.3061499814680580E-004
  0.12537999999999999          8.8592597767603483E-004
  0.12580000000000002          9.4124734365518871E-004
  0.12622000000000000          9.9630953824763236E-004
  0.12664000000000003          1.0508305088823195E-003
  0.12706000000000001          1.1045173364053508E-003
  0.12747999999999998          1.1570668472316030E-003
  0.12790000000000001          1.2081672442117212E-003
  0.12831999999999999          1.2574992732090257E-003
  0.12874000000000002          1.3047375873012535E-003
  0.12916000000000000          1.3495526386335035E-003
  0.12958000000000003          1.3916122320074074E-003
  0.13000000000000000          1.4305828851924626E-003
  0.13041999999999998          1.4661323432092191E-003
  0.13084000000000001          1.4979309452733938E-003
  0.13125999999999999          1.5256533726993387E-003
  0.13168000000000002          1.5489810402429904E-003
  0.13210000000000000          1.5676037503700743E-003
  0.13252000000000003          1.5812221891320340E-003
  0.13294000000000000          1.5895497345269469E-003
  0.13336000000000003          1.5923145365377461E-003
  0.13378000000000001          1.5892612722710751E-003
  0.13419999999999999          1.5801537829690368E-003
  0.13462000000000002          1.5647762717424219E-003
  0.13503999999999999          1.5429358124428778E-003
  0.13546000000000002          1.5144638679115841E-003
  0.13588000000000000          1.4792181157138929E-003
  0.13630000000000003          1.4370838320170015E-003
  0.13672000000000001          1.3879752375395705E-003
  0.13713999999999998          1.3318370853422365E-003
  0.13756000000000002          1.2686459961998809E-003
  0.13797999999999999          1.1984113846208162E-003
  0.13840000000000002          1.1211766638491510E-003
  0.13882000000000000          1.0370199734766083E-003
  0.13924000000000003          9.4605470943972809E-004
  0.13966000000000001          8.4842978582874706E-004
  0.14007999999999998          7.4432996319120275E-004
  0.14050000000000001          6.3397568040290519E-004
  0.14091999999999999          5.1762285748204395E-004
  0.14134000000000002          3.9556226618463934E-004
  0.14176000000000000          2.6811868685521888E-004
  0.14218000000000003          1.3565037379871086E-004
  0.14260000000000000         -1.4523407488163285E-006
  0.14301999999999998         -1.4276809711338148E-004
  0.14344000000000001         -2.8784613979592659E-004
  0.14385999999999999         -4.3620793935008787E-004
  0.14428000000000002         -5.8734925191902343E-004
  0.14470000000000000         -7.4074209146596107E-004
  0.14512000000000003         -8.9583696712840634E-004
  0.14554000000000000         -1.0520655856343197E-003
  0.14596000000000003         -1.2088433940310042E-003
  0.14638000000000001         -1.3655728055891442E-003
  0.14679999999999999         -1.5216454862428499E-003
  0.14722000000000002         -1.6764456785757671E-003
  0.14763999999999999         -1.8293531922130052E-003
  0.14806000000000002         -1.9797465618924081E-003
  0.14848000000000000         -2.1270059435617239E-003
  0.14890000000000003         -2.2705169872466223E-003