  -8.0000000000000002E-002     0.0000000000000000
  -7.9579999999999998E-002     0.0000000000000000
  -7.9160000000000008E-002     0.0000000000000000
  -7.8740000000000004E-002     0.0000000000000000
  -7.8320000000000001E-002     0.0000000000000000
  -7.7899999999999997E-002     0.0000000000000000
  -7.7480000000000007E-002     0.0000000000000000
  -7.7060000000000003E-002    -6.4565484060053195E-024
  -7.6640000000000000E-002    -1.0548448841426607E-022
  -7.6219999999999996E-002    -8.6939274208836035E-022
  -7.5800000000000006E-002    -4.8136913706998935E-021
  -7.5380000000000003E-002    -2.0070763867598361E-020
  -7.4959999999999999E-002    -6.6809559506854260E-020
  -7.4539999999999995E-002    -1.8313577016603223E-019
  -7.4120000000000005E-002    -4.1838970419939285E-019
  -7.3700000000000002E-002    -7.8933578620280948E-019
  -7.3279999999999998E-002    -1.1678150484384944E-018
  -7.2860000000000008E-002    -1.0858231373302185E-018
  -7.2440000000000004E-002     4.9085340101388480E-019
  -7.2020000000000001E-002     5.2446379705323780E-018
  -7.1599999999999997E-002     1.5111215192450337E-017
  -7.1180000000000007E-002     3.0976642868421000E-017
  -7.0760000000000003E-002     5.0156172124664465E-017
  -7.0340000000000000E-002     6.2863491786986382E-017
  -6.9919999999999996E-002     4.8898723512887923E-017
  -6.9500000000000006E-002    -2.2826399344707856E-017
  -6.9080000000000003E-002    -1.8805881694795520E-016
  -6.8659999999999999E-002    -4.7021822014516392E-016
  -6.8239999999999995E-002    -8.5064605519111649E-016
  -6.7820000000000005E-002    -1.2293564957209287E-015
  -6.7400000000000002E-002    -1.3881526088844134E-015
  -6.6979999999999998E-002    -9.7835071657345534E-016
  -6.6560000000000008E-002     4.3609502621600501E-016
  -6.6140000000000004E-002     3.2485610890052636E-015
  -6.5720000000000001E-002     7.5746972261235496E-015
  -6.5299999999999997E-002     1.2927655563782347E-014
  -6.4879999999999993E-002     1.7872012872501843E-014
  -6.4460000000000003E-002     1.9791451872729830E-014
  -6.4040000000000000E-002     1.4964757919769377E-014
  -6.3619999999999996E-002    -8.2936991236389174E-016
  -6.3200000000000006E-002    -3.1003317002032367E-014
  -6.2780000000000002E-002    -7.6120412889768632E-014
  -6.2359999999999999E-002    -1.3135822342057639E-013
  -6.1940000000000002E-002    -1.8407275330064950E-013
  -6.1520000000000005E-002    -2.1244859475000821E-013
  -6.1100000000000002E-002    -1.8650764394319941E-013
  -6.0679999999999998E-002    -7.2781635013972098E-014
  -6.0260000000000001E-002     1.5646311375143632E-013
  -5.9840000000000004E-002     5.0956038374087682E-013
  -5.9420000000000001E-002     9.5900960692103669E-013
  -5.8999999999999997E-002     1.4259722228972410E-012
  -5.8580000000000000E-002     1.7713704070171464E-012
  -5.8160000000000003E-002     1.8006122923597498E-012
  -5.7740000000000000E-002     1.2888401676779912E-012
  -5.7319999999999996E-002     3.1211897213374827E-014
  -5.6899999999999999E-002    -2.0823903226007854E-012
  -5.6480000000000002E-002    -4.9765497205097943E-012
  -5.6059999999999999E-002    -8.3012747922531666E-012
  -5.5640000000000002E-002    -1.1371569450944312E-011
  -5.5220000000000005E-002    -1.3168669611913211E-011
  -5.4800000000000001E-002    -1.2435594391658566E-011
  -5.4379999999999998E-002    -7.8898208118779287E-012
  -5.3960000000000001E-002     1.4445151838321736E-012
  -5.3540000000000004E-002     1.5814121048094674E-011
  -5.3120000000000001E-002     3.4290488777266669E-011
  -5.2699999999999997E-002     5.4404547206463023E-011
  -5.2280000000000000E-002     7.1993146725857962E-011
  -5.1860000000000003E-002     8.1394250574432346E-011
  -5.1440000000000000E-002     7.6101061150322873E-011
  -5.1019999999999996E-002     4.9921390014731849E-011
  -5.0599999999999999E-002    -1.4126275581587278E-012
  -5.0180000000000002E-002    -7.8367603719388202E-011
  -4.9759999999999999E-002    -1.7578397253945830E-010
  -4.9340000000000002E-002    -2.8153578024323154E-010
  -4.8920000000000005E-002    -3.7616960056030783E-010
  -4.8500000000000001E-002    -4.3399281177219153E-010
  -4.8079999999999998E-002    -4.2594357692240097E-010
  -4.7660000000000001E-002    -3.2432543948510195E-010
  -4.7239999999999997E-002    -1.0913213194077917E-010
  -4.6820000000000001E-002     2.2473946659419046E-010
  -4.6399999999999997E-002     6.6050928479918034E-010
  -4.5980000000000000E-002     1.1542407508988231E-009
  -4.5560000000000003E-002     1.6329186735447178E-009
  -4.5140000000000000E-002     1.9974393396832250E-009
  -4.4720000000000003E-002     2.1316759734884736E-009
  -4.4299999999999999E-002     1.9180251620507832E-009
  -4.3880000000000002E-002     1.2587849228042623E-009
  -4.3459999999999999E-002     1.0143619902854268E-010
  -4.3040000000000002E-002    -1.5354611393697981E-009
  -4.2619999999999998E-002    -3.5401508336334307E-009
  -4.2200000000000001E-002    -5.6945781080664794E-009
  -4.1779999999999998E-002    -7.6755031758802380E-009
  -4.1360000000000001E-002    -9.0743234335360655E-009
  -4.0939999999999997E-002    -9.4381401557140850E-009
  -4.0520000000000000E-002    -8.3319003060053654E-009
  -4.0099999999999997E-002    -5.4177083669150972E-009
  -3.9680000000000000E-002    -5.4343750582719239E-010
  -3.9260000000000003E-002     6.1711643161052286E-009
  -3.8840000000000000E-002     1.4265962824156319E-008
  -3.8420000000000003E-002     2.2905621706106228E-008
  -3.7999999999999999E-002     3.0894457542857707E-008
  -3.7580000000000002E-002     3.6753066276884740E-008
  -3.7159999999999999E-002     3.8862686034777526E-008
  -3.6740000000000002E-002     3.5674307940332694E-008
  -3.6319999999999998E-002     2.5968367776025559E-008
  -3.5900000000000001E-002     9.1397624155224857E-009
  -3.5479999999999998E-002    -1.4528285326921018E-008
  -3.5060000000000001E-002    -4.3645713557495318E-008
  -3.4639999999999997E-002    -7.5600267680944706E-008
  -3.4220000000000000E-002    -1.0659049493710280E-007
  -3.3799999999999997E-002    -1.3184142506885182E-007
  -3.3380000000000000E-002    -1.4602125262365355E-007
  -3.2960000000000003E-002    -1.4385065148580848E-007
  -3.2539999999999999E-002    -1.2086948382831079E-007
  -3.2120000000000003E-002    -7.4288968814321131E-008
  -3.1699999999999999E-002    -3.8337801390519313E-009
  -3.1280000000000002E-002     8.7550495543685616E-008
  -3.0859999999999999E-002     1.9325669138429468E-007
  -3.0440000000000002E-002     3.0297192189141806E-007
  -3.0019999999999998E-002     4.0313463436849407E-007
  -2.9600000000000001E-002     4.7794902126790684E-007
  -2.9179999999999998E-002     5.1095362785460752E-007
  -2.8760000000000001E-002     4.8705540125244246E-007
  -2.8339999999999997E-002     3.9485753481400023E-007
  -2.7920000000000000E-002     2.2902959859470327E-007
  -2.7499999999999997E-002    -7.5976685180606481E-009
  -2.7080000000000000E-002    -3.0255562256527896E-007
  -2.6659999999999996E-002    -6.3321069514416900E-007
  -2.6239999999999999E-002    -9.6745395194604092E-007
  -2.5820000000000003E-002    -1.2657561385739249E-006
  -2.5399999999999999E-002    -1.4845757420325750E-006
  -2.4980000000000002E-002    -1.5809277792358036E-006
  -2.4559999999999998E-002    -1.5177171044155960E-006
  -2.4140000000000002E-002    -1.2692756944928698E-006
  -2.3719999999999998E-002    -8.2642867758894115E-007
  -2.3300000000000001E-002    -2.0038406791263947E-007
  -2.2879999999999998E-002     5.7522572297391080E-007
  -2.2460000000000001E-002     1.4446436882405487E-006
  -2.2039999999999997E-002     2.3328879856114185E-006
  -2.1620000000000000E-002     3.1512113385539789E-006
  -2.1199999999999997E-002     3.8047529304518308E-006
  -2.0780000000000000E-002     4.2016829064776931E-006
  -2.0359999999999996E-002     4.2629372577782804E-006
  -1.9939999999999999E-002     3.9315074089038589E-006
  -1.9519999999999996E-002     3.1801730036004655E-006
  -1.9099999999999999E-002     2.0168507806620548E-006
  -1.8680000000000002E-002     4.8680585204636456E-007
  -1.8259999999999998E-002    -1.3285047488034439E-006
  -1.7840000000000002E-002    -3.3158899280056855E-006
  -1.7420000000000005E-002    -5.3377385197156304E-006
  -1.7000000000000001E-002    -7.2413811143854073E-006
  -1.6579999999999998E-002    -8.8695307033789418E-006
  -1.6159999999999994E-002    -1.0070818133503696E-005
  -1.5740000000000004E-002    -1.0709457140381674E-005
  -1.5320000000000000E-002    -1.0673467595978518E-005
  -1.4899999999999997E-002    -9.8809544297858404E-006
  -1.4479999999999993E-002    -8.2846357827573625E-006
  -1.4060000000000003E-002    -5.8748387686347767E-006
  -1.3639999999999999E-002    -2.6817079540580429E-006
  -1.3219999999999996E-002     1.2229533279061994E-006
  -1.2799999999999992E-002     5.7234136496403408E-006
  -1.2380000000000002E-002     1.0657338173287323E-005
  -1.1959999999999998E-002     1.5812740137578698E-005
  -1.1539999999999995E-002     2.0925460799871127E-005
  -1.1120000000000005E-002     2.5678546901724564E-005
  -1.0700000000000001E-002     2.9705225488260043E-005
  -1.0279999999999997E-002     3.2597338989407244E-005
  -9.8599999999999938E-003     3.3921273075987559E-005
  -9.4400000000000039E-003     3.3242299352244725E-005
  -9.0200000000000002E-003     3.0157852151671905E-005
  -8.5999999999999965E-003     2.4338769348949317E-005
  -8.1799999999999928E-003     1.5576152934162080E-005
  -7.7600000000000030E-003     3.8300735574192606E-006
  -7.3399999999999993E-003    -1.0724902972598384E-005
  -6.9199999999999956E-003    -2.7662715026379929E-005
  -6.4999999999999919E-003    -4.6283438419169997E-005
  -6.0800000000000021E-003    -6.5610674643406641E-005
  -5.6599999999999984E-003    -8.4412124946098136E-005
  -5.2399999999999947E-003    -1.0124636784175161E-004
  -4.8200000000000048E-003    -1.1453434735085768E-004
  -4.4000000000000011E-003    -1.2265365060996466E-004
  -3.9799999999999974E-003    -1.2405031633950597E-004
  -3.5599999999999937E-003    -1.1736110511438915E-004
  -3.1400000000000039E-003    -1.0153898546170878E-004
  -2.7200000000000002E-003    -7.5971484632517095E-005
  -2.2999999999999965E-003    -4.0584440055928549E-005
  -1.8799999999999928E-003     4.0749392239646335E-006
  -1.4600000000000030E-003     5.6786788698157119E-005
  -1.0399999999999993E-003     1.1563952860313908E-004
  -6.1999999999999555E-004     1.7804901798363230E-004
  -1.9999999999999185E-004     2.4081960961574211E-004
   2.1999999999999797E-004     3.0024347995138159E-004
   6.4000000000000168E-004     3.5224173199121470E-004
   1.0600000000000054E-003     3.9254210477321556E-004
   1.4799999999999952E-003     4.1688981073972534E-004
   1.8999999999999989E-003     4.2128414114317539E-004
   2.3200000000000026E-003     4.0223458593598209E-004
   2.7400000000000063E-003     3.5701863486570083E-004
   3.1599999999999961E-003     2.8393713281272995E-004
   3.5799999999999998E-003     1.8254793309319963E-004
   4.0000000000000036E-003     5.3859723884031860E-005
   4.4200000000000073E-003    -9.9522761448900379E-005
   4.8399999999999971E-003    -2.7331570646508592E-004
   5.2600000000000008E-003    -4.6155180590467507E-004
   5.6800000000000045E-003    -6.5665453978308943E-004
   6.1000000000000082E-003    -8.4959611822362044E-004
   6.5199999999999980E-003    -1.0301489816340783E-003
   6.9400000000000017E-003    -1.1872101616449853E-003
   7.3600000000000054E-003    -1.3092069723640539E-003
   7.7799999999999953E-003    -1.3845702831897658E-003
   8.1999999999999990E-003    -1.4022602958720105E-003
   8.6200000000000027E-003    -1.3523392827477865E-003
   9.0400000000000064E-003    -1.2265693931072109E-003
   9.4599999999999962E-003    -1.0190106986584602E-003
   9.8799999999999999E-003    -7.2660822944711182E-004
   1.0300000000000004E-002    -3.4974551306280756E-004
   1.0720000000000007E-002     1.0731783163265680E-004
   1.1139999999999997E-002     6.3604900812896091E-004
   1.1560000000000001E-002     1.2234500355320615E-003
   1.1980000000000005E-002     1.8520053816957120E-003
   1.2400000000000008E-002     2.4998109484531262E-003
   1.2819999999999998E-002     3.1409707801458024E-003
   1.3240000000000002E-002     3.7461209717481879E-003
   1.3660000000000005E-002     4.2833112059860014E-003
   1.4079999999999995E-002     4.7189028551952008E-003
   1.4499999999999999E-002     5.0188144246421078E-003
   1.4920000000000003E-002     5.1497179075276544E-003
   1.5340000000000006E-002     5.0804433404258572E-003
   1.5759999999999996E-002     4.7832906293594933E-003
   1.6180000000000000E-002     4.2352429828838838E-003
   1.6600000000000004E-002     3.4192341758877611E-003
   1.7020000000000007E-002     2.3249783737101714E-003
   1.7439999999999997E-002     9.4972913315662089E-004
   1.7860000000000001E-002    -7.0136231195862351E-004
   1.8280000000000005E-002    -2.6151168985808029E-003
   1.8700000000000008E-002    -4.7705694753366092E-003
   1.9119999999999998E-002    -7.1395986937596405E-003
   1.9540000000000002E-002    -9.6880735056183668E-003
   1.9960000000000006E-002    -1.2376829656097158E-002
   2.0380000000000009E-002    -1.5163467626114802E-002
   2.0799999999999999E-002    -1.8004133330441353E-002
   2.1220000000000003E-002    -2.0855699000029856E-002
   2.1640000000000006E-002    -2.3677946796527183E-002
   2.2059999999999996E-002    -2.6435921194094433E-002
   2.2480000000000000E-002    -2.9102676299096721E-002
   2.2900000000000004E-002    -3.1661751981692812E-002
   2.3320000000000007E-002    -3.4109088412623438E-002
   2.3739999999999997E-002    -3.6456416555679133E-002
   2.4160000000000001E-002    -3.8732421162047503E-002
   2.4580000000000005E-002    -4.0984470902280593E-002
   2.5000000000000008E-002    -4.3281627747573194E-002
   2.5419999999999998E-002    -4.5712794260208960E-002
   2.5840000000000002E-002    -4.8388445958174812E-002
   2.6260000000000006E-002    -5.1440071546369086E-002
   2.6680000000000009E-002    -5.5019912322302605E-002
   2.7099999999999999E-002    -5.9295117165155869E-002
   2.7520000000000003E-002    -6.4450466153039551E-002
   2.7940000000000006E-002    -7.0682331710842469E-002
   2.8359999999999996E-002    -7.8196567198414585E-002
   2.8780000000000000E-002    -8.7203007291638920E-002
   2.9200000000000004E-002    -9.7914557158945412E-002
   2.9620000000000007E-002   -0.11054243592026133
   3.0039999999999997E-002   -0.12529568690303342
   3.0460000000000001E-002   -0.14237613984879111
   3.0880000000000005E-002   -0.16197720804106311
   3.1300000000000008E-002   -0.18428840987318904
   3.1719999999999998E-002   -0.20949090282564856
   3.2140000000000002E-002   -0.23776250664665105
   3.2560000000000006E-002   -0.26927769060795786
   3.2980000000000009E-002   -0.30421146633062207
   3.3399999999999999E-002   -0.34274531207868741
   3.3820000000000003E-002   -0.38507379472173836
   3.4240000000000007E-002   -0.43140545174234185
   3.4659999999999996E-002   -0.48197509296708607
   3.5080000000000000E-002   -0.53703831992436790
   3.5500000000000004E-002   -0.59689724831978008
   3.5920000000000007E-002   -0.66187430783578050
   3.6339999999999997E-002   -0.73234083164860853
   3.6760000000000001E-002   -0.80874369071491603
   3.7180000000000005E-002   -0.89151758261769676
   3.7600000000000008E-002   -0.98119732654465208
   3.8019999999999998E-002    -1.0783428782312496
   3.8440000000000002E-002    -1.1835701515266732
   3.8860000000000006E-002    -1.2975258737612834
   3.9280000000000009E-002    -1.4209096766229097
   3.9699999999999999E-002    -1.5544420488420869
   4.0120000000000003E-002    -1.6989090471332871
   4.0540000000000007E-002    -1.8550730780675333
   4.0960000000000010E-002    -2.0237360989843753
   4.1380000000000000E-002    -2.2057457462676284
   4.1800000000000004E-002    -2.4018770238834164
   4.2220000000000008E-002    -2.6129602064466724
   4.2639999999999997E-002    -2.8397688895380919
   4.3060000000000001E-002    -3.0830703327576159
   4.3480000000000005E-002    -3.3436496515526488
   4.3900000000000008E-002    -3.6222192524356234
   4.4319999999999998E-002    -3.9194180059813069
   4.4740000000000002E-002    -4.2359103845224251
   4.5159999999999992E-002    -4.5722186815987103
   4.5579999999999996E-002    -4.9288626706918537
   4.5999999999999999E-002    -5.3062841292058245
   4.6420000000000003E-002    -5.7048411382589661
   4.6840000000000007E-002    -6.1248082590918127
   4.7260000000000010E-002    -6.5663797367051666
   4.7680000000000014E-002    -7.0295805059430911
   4.8099999999999990E-002    -7.5143630859261048
   4.8519999999999994E-002    -8.0207548638876514
   4.8939999999999997E-002    -8.5482706584112655
   4.9360000000000001E-002    -9.0964412885686290
   4.9780000000000005E-002    -9.6648009992876407
   5.0200000000000009E-002    -10.252572467439236
   5.0620000000000012E-002    -10.858611102854015
   5.1040000000000016E-002    -11.481806279263065
   5.1459999999999992E-002    -12.120747050487042
   5.1879999999999996E-002    -12.773846646130957
   5.2299999999999999E-002    -13.439112787169645
   5.2720000000000003E-002    -14.114457077501839
   5.3140000000000007E-002    -14.797564800024480
   5.3560000000000010E-002    -15.485327491119524
   5.3980000000000014E-002    -16.174938089594352
   5.4400000000000018E-002    -16.862534332622616
   5.4819999999999994E-002    -17.544930357742047
   5.5239999999999997E-002    -18.217572539522777
   5.5660000000000001E-002    -18.876237431293120
   5.6080000000000005E-002    -19.516064898880437
   5.6500000000000009E-002    -20.132033100433564
   5.6920000000000012E-002    -20.718017298806235
   5.7340000000000016E-002    -21.267131689209346
   5.7759999999999992E-002    -21.774028613709429
   5.8179999999999996E-002    -22.230132633398956
   5.8599999999999999E-002    -22.629512391524152
   5.9020000000000003E-002    -22.963762386245630
   5.9440000000000007E-002    -23.224069416978239
   5.9860000000000010E-002    -23.403301002472862
   6.0280000000000014E-002    -23.491393125608564
   6.0700000000000018E-002    -23.481540623302461
   6.1119999999999994E-002    -23.363633850405201
   6.1539999999999997E-002    -23.129185999620688
   6.1960000000000001E-002    -22.768881347241706
   6.2380000000000005E-002    -22.273652823426765
   6.2800000000000009E-002    -21.634920996975140
   6.3220000000000012E-002    -20.844421538037558
   6.3640000000000016E-002    -19.893740699647708
   6.4059999999999992E-002    -18.774322357698523
   6.4479999999999996E-002    -17.475136999435300
   6.4899999999999999E-002    -15.992222042380627
   6.5320000000000003E-002    -14.316814668233684
   6.5740000000000007E-002    -12.442454290442088
   6.6160000000000010E-002    -10.364675093199352
   6.6580000000000014E-002    -8.0764992027955209
   6.7000000000000018E-002    -5.5777434038256306
   6.7419999999999994E-002    -2.8615336713355322
   6.7839999999999998E-002     7.2029958298033492E-002
   6.8260000000000001E-002     3.2226653230646356
   6.8680000000000005E-002     6.5880574744378260
   6.9100000000000009E-002     10.173496353528233
   6.9520000000000012E-002     13.969015725093275
   6.9940000000000016E-002     17.974477741385503
   7.0359999999999992E-002     22.179402058095661
   7.0779999999999996E-002     26.583534806131528
   7.1199999999999999E-002     31.165701735986030
   7.1620000000000003E-002     35.921466629049263
   7.2040000000000007E-002     40.834169698265001
   7.2460000000000011E-002     45.893707569842874
   7.2880000000000014E-002     51.081783617937710
   7.3300000000000018E-002     56.378814698821593
   7.3719999999999994E-002     61.759930792804440
   7.4139999999999998E-002     67.211044840551480
   7.4560000000000001E-002     72.701949951169340
   7.4980000000000005E-002     78.204540073111730
   7.5400000000000009E-002     83.689189818008600
   7.5820000000000012E-002     89.132619691122542
   7.6240000000000016E-002     94.491530132868590
   7.6659999999999992E-002     99.750025239606941
   7.7079999999999996E-002     104.86446588434102
   7.7499999999999999E-002     109.80157002311985
   7.7920000000000003E-002     114.52854114396966
   7.8340000000000007E-002     119.00109018869477
   7.8760000000000011E-002     123.19174939686638
   7.9180000000000014E-002     127.05692226564992
   7.9600000000000018E-002     130.55912909686262
   8.0019999999999994E-002     133.66537932749208
   8.0439999999999998E-002     136.32916033365836
   8.0860000000000001E-002     138.52040378269862
   8.1280000000000005E-002     140.20657291161609
   8.1700000000000009E-002     141.34633203507045
   8.2120000000000012E-002     141.91107944154172
   8.2540000000000016E-002     141.87392377785250
   8.2959999999999992E-002     141.22254733767679
   8.3379999999999996E-002     139.91475438940279
   8.3799999999999999E-002     137.94077226069777
   8.4220000000000003E-002     135.27157560532186
   8.4640000000000007E-002     131.90202392398760
   8.5060000000000011E-002     127.82543073302533
   8.5480000000000014E-002     123.02038800266025
   8.5900000000000018E-002     117.47900258277735
   8.6319999999999994E-002     111.21950536704900
   8.6739999999999998E-002     104.23185055990211
   8.7160000000000001E-002     96.520379218518414
   8.7580000000000005E-002     88.101267433713005
   8.8000000000000009E-002     79.003962044418429
   8.8420000000000012E-002     69.239760663681992
   8.8840000000000016E-002     58.850546237176090
   8.9259999999999992E-002     47.856347470103721
   8.9679999999999996E-002     36.299213500480377
   9.0100000000000000E-002     24.227277100667536
   9.0520000000000003E-002     11.678668989956472
   9.0940000000000007E-002    -1.2908957744346612
   9.1360000000000011E-002    -14.633755324294492
   9.1780000000000014E-002    -28.282478492798361
   9.2200000000000018E-002    -42.186933942903011
   9.2619999999999994E-002    -56.276309184514965
   9.3039999999999998E-002    -70.482561978452026
   9.3460000000000001E-002    -84.728718712756660
   9.3880000000000005E-002    -98.949572423787529
   9.4300000000000009E-002    -113.06249910494348
   9.4720000000000013E-002    -127.00433201666822
   9.5140000000000016E-002    -140.69310838384229
   9.5559999999999992E-002    -154.04972274797856
   9.5979999999999996E-002    -167.01109860997633
   9.6400000000000000E-002    -179.49458563690646
   9.6820000000000003E-002    -191.43281060848361
   9.7240000000000007E-002    -202.75286352149209
   9.7660000000000011E-002    -213.38773969058883
   9.8080000000000014E-002    -223.27128377350971
   9.8500000000000018E-002    -232.33983946248779
   9.8919999999999994E-002    -240.53056852115506
   9.9339999999999998E-002    -247.78880324956089
   9.9760000000000001E-002    -254.07315813604052
  0.10018000000000001         -259.33467212591961
  0.10060000000000001         -263.53350296386282
  0.10102000000000001         -266.63463897137262
  0.10144000000000002         -268.62837106678586
  0.10185999999999999         -269.47117667697455
  0.10228000000000000         -269.16170394784126
  0.10270000000000000         -267.69120745672438
  0.10312000000000000         -265.06173653612274
  0.10354000000000001         -261.27490315235474
  0.10396000000000001         -256.34414663527991
  0.10438000000000001         -250.29893375531364
  0.10480000000000002         -243.15359798252521
  0.10521999999999999         -234.95707182238399
  0.10564000000000000         -225.73399089016223
  0.10606000000000000         -215.52806206891253
  0.10648000000000001         -204.39650595214971
  0.10690000000000001         -192.39148876712977
  0.10732000000000001         -179.59057198862860
  0.10774000000000002         -166.04631775111429
  0.10815999999999999         -151.83663196665762
  0.10858000000000000         -137.04764034903425
  0.10900000000000000         -121.75636014870010
  0.10942000000000000         -106.01888918937928
  0.10984000000000001         -89.935027990930720
  0.11026000000000001         -73.587852875776150
  0.11068000000000001         -57.066940329656553
  0.11110000000000002         -40.433335579411242
  0.11151999999999999         -23.777070213087011
  0.11194000000000000         -7.1789056010543142
  0.11236000000000000          9.2894747378678009
  0.11278000000000001          25.526559602926220
  0.11320000000000001          41.447938554054687
  0.11362000000000001          56.982817809117350
  0.11404000000000002          72.028147752318901
  0.11446000000000002          86.546073325093872
  0.11488000000000000          100.45467791664142
  0.11530000000000000          113.70054003136060
  0.11572000000000000          126.22924065117896
  0.11614000000000001          137.98254310543248
  0.11656000000000001          148.93227114686664
  0.11698000000000001          159.03726484546647
  0.11740000000000002          168.25645577544736
  0.11781999999999999          176.57520869089151
  0.11824000000000000          183.96219103019868
  0.11866000000000000          190.39517852270890
  0.11908000000000001          195.86580985927563
  0.11950000000000001          200.36904783142714
  0.11992000000000001          203.89498144411039
  0.12034000000000002          206.44949570775026
  0.12076000000000002          208.06526502682021
  0.12118000000000000          208.75015519314815
  0.12160000000000000          208.50628315372035
  0.12202000000000000          207.39086119647968
  0.12244000000000001          205.43038894517179
  0.12286000000000001          202.65714593583490
  0.12328000000000001          199.09972782274281
  0.12370000000000002          194.81181001921169
  0.12411999999999999          189.83568848166257
  0.12454000000000000          184.19440769394686
  0.12496000000000000          177.96554055818456
  0.12537999999999999          171.18871174432900
  0.12580000000000002          163.92830194873520
  0.12622000000000000          156.22357105937712
  0.12664000000000003          148.13280768901305
  0.12706000000000001          139.71654724453072
  0.12747999999999998          131.03393467014212
  0.12790000000000001          122.12333771713570
  0.12831999999999999          113.05233974506368
  0.12874000000000002          103.86883548826535
  0.12916000000000000          94.619957480630617
  0.12958000000000003          85.368596142121262
  0.13000000000000000          76.148097606675023
  0.13041999999999998          67.018302666747303
  0.13084000000000001          58.018595606945375
  0.13125999999999999          49.189219485598315
  0.13168000000000002          40.567178889885163
  0.13210000000000000          32.193408124108068
  0.13252000000000003          24.090186248096217
  0.13294000000000000          16.292169989523355
  0.13336000000000003          8.8250924674168569
  0.13378000000000001          1.7112608461408891
  0.13419999999999999         -5.0327685361963974
  0.13462000000000002         -11.382384935928739
  0.13503999999999999         -17.322612993656023
  0.13546000000000002         -22.839717179679319
  0.13588000000000000         -27.926531248796088
  0.13630000000000003         -32.574305794800161
  0.13672000000000001         -36.783957516767295
  0.13713999999999998         -40.555803903645241
  0.13756000000000002         -43.892682092958104
  0.13797999999999999         -46.800756826192170
  0.13840000000000002         -49.286054587392513
  0.13882000000000000         -51.354417653023340
  0.13924000000000003         -53.022655756034055
  0.13966000000000001         -54.293741511985552
  0.14007999999999998         -55.179532709452900
  0.14050000000000001         -55.695962370720004
  0.14091999999999999         -55.858363544394322
  0.14134000000000002         -55.686122823908342
  0.14176000000000000         -55.204229219207654
  0.14218000000000003         -54.427443149711479
  0.14260000000000000         -53.388305717540220
  0.14301999999999998         -52.103647420841909
  0.14344000000000001         -50.600443901704040
  0.14385999999999999         -48.893628542348722
  0.14428000000000002         -47.006971271125138
  0.14470000000000000         -44.971337103443197
  0.14512000000000003         -42.785657657061329
  0.14554000000000000         -40.481540060078792
  0.14596000000000003         -38.070068547128500
  0.14638000000000001         -35.585081532447099
  0.14679999999999999         -33.042075664585163
  0.14722000000000002         -30.467696526464756
  0.14763999999999999         -27.884406140462492
  0.14806000000000002         -25.311941904667414
  0.14848000000000000         -22.770602018080627
  0.14890000000000003         -20.278920673940441
  0.14932000000000001         -17.839016637164889
  0.14973999999999998         -15.475109897184611
  0.15016000000000002         -13.196799414301186
  0.15057999999999999         -11.016277571020137
  0.15100000000000002         -8.9442320741017376
  0.15142000000000000         -6.9903783876010817
  0.15184000000000003         -5.1693141342986735
  0.15226000000000001         -3.4911172524456475
  0.15267999999999998         -1.9707696662663385
  0.15310000000000001        -0.60523741077942228
  0.15351999999999999         0.59344000205347214
  0.15394000000000002          1.6220772089783699
  0.15436000000000000          2.4774680099924109
  0.15478000000000003          3.1663785691062465
  0.15520000000000000          3.6848596897437385
  0.15561999999999998          4.0343155125770993
  0.15604000000000001          4.2226359460646936
  0.15645999999999999          4.2477238298498055
  0.15688000000000002          4.1081180851334977
  0.15730000000000000          3.8110611678530031
  0.15772000000000003          3.3582042371477812
  0.15814000000000000          2.7531132018607036
  0.15856000000000003          2.0048932966290649
  0.15898000000000001          1.1234077747081090
  0.15939999999999999         0.11365562354330762
  0.15982000000000002         -1.0066636950122847
  0.16023999999999999         -2.2296301925327415
  0.16066000000000003         -3.5448432084759145