  -8.0000000000000002E-002     6.7792113291404734E-008
  -7.9579999999999998E-002     2.2089819365258847E-007
  -7.9160000000000008E-002     4.0062717409841011E-007
  -7.8740000000000004E-002     5.6068709175770259E-007
  -7.8320000000000001E-002     5.9623936056434074E-007
  -7.7899999999999997E-002     3.5987934732944402E-007
  -7.7480000000000007E-002    -2.9432638121863696E-007
  -7.7060000000000003E-002    -1.4486355553534858E-006
  -7.6640000000000000E-002    -3.0588675820890248E-006
  -7.6219999999999996E-002    -4.9118091184368322E-006
  -7.5800000000000006E-002    -6.6207051979417059E-006
  -7.5380000000000003E-002    -7.6685516881582222E-006
  -7.4959999999999999E-002    -7.4970480866822593E-006
  -7.4539999999999995E-002    -5.6268801095374306E-006
  -7.4120000000000005E-002    -1.7852555486034294E-006
  -7.3700000000000002E-002     3.9876433474403703E-006
  -7.3279999999999998E-002     1.1279477362235042E-005
  -7.2860000000000008E-002     1.9311524086412474E-005
  -7.2440000000000004E-002     2.7014399153066193E-005
  -7.2020000000000001E-002     3.3164505113213547E-005
  -7.1599999999999997E-002     3.6559711744486360E-005
  -7.1180000000000007E-002     3.6205085262340350E-005
  -7.0760000000000003E-002     3.1477709873616700E-005
  -7.0340000000000000E-002     2.2244019897983983E-005
  -6.9919999999999996E-002     8.9124288708481149E-006
  -6.9500000000000006E-002    -7.5845477488677479E-006
  -6.9080000000000003E-002    -2.5873061912373226E-005
  -6.8659999999999999E-002    -4.4270686094519273E-005
  -6.8239999999999995E-002    -6.0949304348644745E-005
  -6.7820000000000005E-002    -7.4106898821294206E-005
  -6.7400000000000002E-002    -8.2129015333677591E-005
  -6.6979999999999998E-002    -8.3724997730113995E-005
  -6.6560000000000008E-002    -7.8028592974256251E-005
  -6.6140000000000004E-002    -6.4656536464363491E-005
  -6.5720000000000001E-002    -4.3722367518337702E-005
  -6.5299999999999997E-002    -1.5804985519422485E-005
  -6.4879999999999993E-002     1.8125619123185533E-005
  -6.4460000000000003E-002     5.6820994417304917E-005
  -6.4040000000000000E-002     9.8895078336847962E-005
  -6.3619999999999996E-002     1.4298022443218805E-004
  -6.3200000000000006E-002     1.8788069393616694E-004
  -6.2780000000000002E-002     2.3270358657525897E-004
  -6.2359999999999999E-002     2.7694881805150821E-004
  -6.1940000000000002E-002     3.2054376402645095E-004
  -6.1520000000000005E-002     3.6381929440973469E-004
  -6.1100000000000002E-002     4.0743087428023726E-004
  -6.0679999999999998E-002     4.5224357751794868E-004
  -6.0260000000000001E-002     4.9920484315139316E-004
  -5.9840000000000004E-002     5.4923572994039277E-004
  -5.9420000000000001E-002     6.0316535334125699E-004
  -5.8999999999999997E-002     6.6172634555485476E-004
  -5.8580000000000000E-002     7.2561411988489701E-004
  -5.8160000000000003E-002     7.9559963252153940E-004
  -5.7740000000000000E-002     8.7266946467067950E-004
  -5.7319999999999996E-002     9.5816162752700770E-004
  -5.6899999999999999E-002     1.0538622803722391E-003
  -5.6480000000000002E-002     1.1620419574089656E-003
  -5.6059999999999999E-002     1.2854158185889881E-003
  -5.5640000000000002E-002     1.4270349973980142E-003
  -5.5220000000000005E-002     1.5901265187015206E-003
  -5.4800000000000001E-002     1.7779246273013794E-003
  -5.4379999999999998E-002     1.9935205478174242E-003
  -5.3960000000000001E-002     2.2397716719819148E-003
  -5.3540000000000004E-002     2.5192875530000219E-003
  -5.3120000000000001E-002     2.8345005038406318E-003
  -5.2699999999999997E-002     3.1878088696186482E-003
  -5.2280000000000000E-002     3.5817668390495296E-003
  -5.1860000000000003E-002     4.0192878208937487E-003
  -5.1440000000000000E-002     4.5038166370819990E-003
  -5.1019999999999996E-002     5.0394549530854774E-003
  -5.0599999999999999E-002     5.6310271534745267E-003
  -5.0180000000000002E-002     6.2840618056936113E-003
  -4.9759999999999999E-002     7.0047248498460134E-003
  -4.9340000000000002E-002     7.7997174031588460E-003
  -4.8920000000000005E-002     8.6761604816911232E-003
  -4.8500000000000001E-002     9.6414989366884179E-003
  -4.8079999999999998E-002     1.0703440306453715E-002
  -4.7660000000000001E-002     1.1869934943153988E-002
  -4.7239999999999997E-002     1.3149223193348885E-002
  -4.6820000000000001E-002     1.4549910343721675E-002
  -4.6399999999999997E-002     1.6081070933800658E-002
  -4.5980000000000000E-002     1.7752391121867987E-002
  -4.5560000000000003E-002     1.9574332059475424E-002
  -4.5140000000000000E-002     2.1558277559302085E-002
  -4.4720000000000003E-002     2.3716643913022101E-002
  -4.4299999999999999E-002     2.6063001919990864E-002
  -4.3880000000000002E-002     2.8612160998949879E-002
  -4.3459999999999999E-002     3.1380138027005858E-002
  -4.3040000000000002E-002     3.4384142204276040E-002
  -4.2619999999999998E-002     3.7642432002365639E-002
  -4.2200000000000001E-002     4.1174131485326622E-002
  -4.1779999999999998E-002     4.4999004949083377E-002
  -4.1360000000000001E-002     4.9137177571650599E-002
  -4.0939999999999997E-002     5.3608886355696071E-002
  -4.0520000000000000E-002     5.8434288367245180E-002
  -4.0099999999999997E-002     6.3633331869310306E-002
  -3.9680000000000000E-002     6.9225686151589194E-002
  -3.9260000000000003E-002     7.5230832149179278E-002
  -3.8840000000000000E-002     8.1668171054436356E-002
  -3.8420000000000003E-002     8.8557254071129382E-002
  -3.7999999999999999E-002     9.5917998498277854E-002
  -3.7580000000000002E-002    0.10377073168297188
  -3.7159999999999999E-002    0.11213640490927099
  -3.6740000000000002E-002    0.12103653501792433
  -3.6319999999999998E-002    0.13049301517282907
  -3.5900000000000001E-002    0.14052789936741467
  -3.5479999999999998E-002    0.15116284886047474
  -3.5060000000000001E-002    0.16241885687965654
  -3.4639999999999997E-002    0.17431576771143675
  -3.4220000000000000E-002    0.18687182978571054
  -3.3799999999999997E-002    0.20010323300528726
  -3.3380000000000000E-002    0.21402387258010327
  -3.2960000000000003E-002    0.22864492008281853
  -3.2539999999999999E-002    0.24397470103779922
  -3.2120000000000003E-002    0.26001840590048381
  -3.1699999999999999E-002    0.27677796327292598
  -3.1280000000000002E-002    0.29425181765778952
  -3.0859999999999999E-002    0.31243440979626852
  -3.0440000000000002E-002    0.33131618159608961
  -3.0019999999999998E-002    0.35088329522631412
  -2.9600000000000001E-002    0.37111722562765576
  -2.9179999999999998E-002    0.39199418243732836
  -2.8760000000000001E-002    0.41348483912733341
  -2.8339999999999997E-002    0.43555403292536327
  -2.7920000000000000E-002    0.45816010419574688
  -2.7499999999999997E-002    0.48125444930328620
  -2.7080000000000000E-002    0.50478098002755101
  -2.6659999999999996E-002    0.52867597257271848
  -2.6239999999999999E-002    0.55286799141854404
  -2.5820000000000003E-002    0.57727682977501316
  -2.5399999999999999E-002    0.60181416640824315
  -2.4980000000000002E-002    0.62638309363080413
  -2.4559999999999998E-002    0.65087792696031177
  -2.4140000000000002E-002    0.67518446686329381
  -2.3719999999999998E-002    0.69917979270663777
  -2.3300000000000001E-002    0.72273262156607476
  -2.2879999999999998E-002    0.74570273023510980
  -2.2460000000000001E-002    0.76794190239207716
  -2.2039999999999997E-002    0.78929317792275810
  -2.1620000000000000E-002    0.80959120804796025
  -2.1199999999999997E-002    0.82866191855031546
  -2.0780000000000000E-002    0.84632385061457116
  -2.0359999999999996E-002    0.86238683563690943
  -1.9939999999999999E-002    0.87665333200944362
  -1.9519999999999996E-002    0.88891989140631189
  -1.9099999999999999E-002    0.89897781607865679
  -1.8680000000000002E-002    0.90661308013107977
  -1.8259999999999998E-002    0.91160776263463217
  -1.7840000000000002E-002    0.91374279855768137
  -1.7420000000000005E-002    0.91279775470751390
  -1.7000000000000001E-002    0.90855238821546314
  -1.6579999999999998E-002    0.90078855307474837
  -1.6159999999999994E-002    0.88929082067311360
  -1.5740000000000004E-002    0.87384805319571601
  -1.5320000000000000E-002    0.85425366002973357
  -1.4899999999999997E-002    0.83030838423553732
  -1.4479999999999993E-002    0.80182188628171780
  -1.4060000000000003E-002    0.76861411952562952
  -1.3639999999999999E-002    0.73051803041360497
  -1.3219999999999996E-002    0.68738048275057062
  -1.2799999999999992E-002    0.63906408605924547
  -1.2380000000000002E-002    0.58544952565068564
  -1.1959999999999998E-002    0.52643751702852903
  -1.1539999999999995E-002    0.46195056664695211
  -1.1120000000000005E-002    0.39193566859906437
  -1.0700000000000001E-002    0.31636543691471403
  -1.0279999999999997E-002    0.23524004265381737
  -9.8599999999999938E-003    0.14858774394487384
  -9.4400000000000039E-003     5.6468037544971039E-002
  -9.0200000000000002E-003    -4.1028258394300798E-002
  -8.5999999999999965E-003   -0.14377857047103648
  -8.1799999999999928E-003   -0.25162650832055433
  -7.7600000000000030E-003   -0.36437986042651827
  -7.3399999999999993E-003   -0.48181068382230208
  -6.9199999999999956E-003   -0.60365588495985201
  -6.4999999999999919E-003   -0.72961513143733969
  -6.0800000000000021E-003   -0.85935109751298233
  -5.6599999999999984E-003   -0.99249122658107236
  -5.2399999999999947E-003    -1.1286257956637227
  -4.8200000000000048E-003    -1.2673089049895463
  -4.4000000000000011E-003    -1.4080603760700292
  -3.9799999999999974E-003    -1.5503655772230300
  -3.5599999999999937E-003    -1.6936778511663850
  -3.1400000000000039E-003    -1.8374200794870843
  -2.7200000000000002E-003    -1.9809871524368079
  -2.2999999999999965E-003    -2.1237494887433725
  -1.8799999999999928E-003    -2.2650524370720007
  -1.4600000000000030E-003    -2.4042220973976622
  -1.0399999999999993E-003    -2.5405691089259399
  -6.1999999999999555E-004    -2.6733899551466158
  -1.9999999999999185E-004    -2.8019706566115201
   2.1999999999999797E-004    -2.9255923320321982
   6.4000000000000168E-004    -3.0435336796464085
   1.0600000000000054E-003    -3.1550749434013721
   1.4799999999999952E-003    -3.2595020528051171
   1.8999999999999989E-003    -3.3561121397263110
   2.3200000000000026E-003    -3.4442174788539104
   2.7400000000000063E-003    -3.5231504670214746
   3.1599999999999961E-003    -3.5922673067356623
   3.5799999999999998E-003    -3.6509553353649480
   4.0000000000000036E-003    -3.6986350325707433
   4.4200000000000073E-003    -3.7347664349235963
   4.8399999999999971E-003    -3.7588516020282721
   5.2600000000000008E-003    -3.7704391052762749
   5.6800000000000045E-003    -3.7691313429982118
   6.1000000000000082E-003    -3.7545844426779440
   6.5199999999999980E-003    -3.7265127273050593
   6.9400000000000017E-003    -3.6846922251201377
   7.3600000000000054E-003    -3.6289622175302982
   7.7799999999999953E-003    -3.5592311397684675
   8.1999999999999990E-003    -3.4754760277890289
   8.6200000000000027E-003    -3.3777457838477409
   9.0400000000000064E-003    -3.2661606563883430
   9.4599999999999962E-003    -3.1409152785949259
   9.8799999999999999E-003    -3.0022768518845968
   1.0300000000000004E-002    -2.8505874538107152
   1.0720000000000007E-002    -2.6862603703436276
   1.1139999999999997E-002    -2.5097811710900806
   1.1560000000000001E-002    -2.3217078898464103
   1.1980000000000005E-002    -2.1226656008136144
   1.2400000000000008E-002    -1.9133455871108547
   1.2819999999999998E-002    -1.6945007878161638
   1.3240000000000002E-002    -1.4669438041418590
   1.3660000000000005E-002    -1.2315429520860797
   1.4079999999999995E-002   -0.98921670555648200
   1.4499999999999999E-002   -0.74092898997867795
   1.4920000000000003E-002   -0.48768673411890884
   1.5340000000000006E-002   -0.23053052587535716
   1.5759999999999996E-002     2.9470058685350242E-002
   1.6180000000000000E-002    0.29122160428467236
   1.6600000000000004E-002    0.55361414246261009
   1.7020000000000007E-002    0.81552700416842527
   1.7439999999999997E-002     1.0758356241225135
   1.7860000000000001E-002     1.3334147727481283
   1.8280000000000005E-002     1.5871496168410839
   1.8700000000000008E-002     1.8359420106564239
   1.9119999999999998E-002     2.0787158021090741
   1.9540000000000002E-002     2.3144239679844465
   1.9960000000000006E-002     2.5420522804670855
   2.0380000000000009E-002     2.7606279225121728
   2.0799999999999999E-002     2.9692227808724994
   2.1220000000000003E-002     3.1669602835790074
   2.1640000000000006E-002     3.3530222357320252
   2.2059999999999996E-002     3.5266509369020889
   2.2480000000000000E-002     3.6871535253069232
   2.2900000000000004E-002     3.8339069675083652
   2.3320000000000007E-002     3.9663619594200790
   2.3739999999999997E-002     4.0840444009333936
   2.4160000000000001E-002     4.1865597176609208
   2.4580000000000005E-002     4.2735898341242438
   2.5000000000000008E-002     4.3448991719747063
   2.5419999999999998E-002     4.4003345340403541
   2.5840000000000002E-002     4.4398229766867887
   2.6260000000000006E-002     4.4633740602492455
   2.6680000000000009E-002     4.4710780215350114
   2.7099999999999999E-002     4.4631043980410396
   2.7520000000000003E-002     4.4396980794274032
   2.7940000000000006E-002     4.4011769515546364
   2.8359999999999996E-002     4.3479309794099912
   2.8780000000000000E-002     4.2804206876485278
   2.9200000000000004E-002     4.1991702471239085
   2.9620000000000007E-002     4.1047634685387626
   3.0039999999999997E-002     3.9978399883444014
   3.0460000000000001E-002     3.8790917949681640
   3.0880000000000005E-002     3.7492599579913923
   3.1300000000000008E-002     3.6091256582774562
   3.1719999999999998E-002     3.4595049021276614
   3.2140000000000002E-002     3.3012434423428805
   3.2560000000000006E-002     3.1352121313112971
   3.2980000000000009E-002     2.9623011043490717
   3.3399999999999999E-002     2.7834145382391253
   3.3820000000000003E-002     2.5994643075822199
   3.4240000000000007E-002     2.4113637008832209
   3.4659999999999996E-002     2.2200229481395786
   3.5080000000000000E-002     2.0263450809932348
   3.5500000000000004E-002     1.8312195081719203
   3.5920000000000007E-002     1.6355182136434303
   3.6339999999999997E-002     1.4400901350886359
   3.6760000000000001E-002     1.2457575851968827
   3.7180000000000005E-002     1.0533133183671124
   3.7600000000000008E-002    0.86351579757602059
   3.8019999999999998E-002    0.67708648890641387
   3.8440000000000002E-002    0.49470439355860985
   3.8860000000000006E-002    0.31700493095969789
   3.9280000000000009E-002    0.14457860335463846
   3.9699999999999999E-002    -2.2031320828823475E-002
   4.0120000000000003E-002   -0.18233104199845962
   4.0540000000000007E-002   -0.33587575024692873
   4.0960000000000010E-002   -0.48226925270233567
   4.1380000000000000E-002   -0.62116793806559878
   4.1800000000000004E-002   -0.75227895325274563
   4.2220000000000008E-002   -0.87535882371193674
   4.2639999999999997E-002   -0.99021377281823986
   4.3060000000000001E-002    -1.0966995938928048
   4.3480000000000005E-002    -1.1947205475285521
   4.3900000000000008E-002    -1.2842274512069292
   4.4319999999999998E-002    -1.3652158171469662
   4.4740000000000002E-002    -1.4377256121393251
   4.5159999999999992E-002    -1.5018374676553279
   4.5579999999999996E-002    -1.5576699911392926
   4.5999999999999999E-002    -1.6053779980920027
   4.6420000000000003E-002    -1.6451498129664879
   4.6840000000000007E-002    -1.6772034501775435
   4.7260000000000010E-002    -1.7017850105887100
   4.7680000000000014E-002    -1.7191652069518639
   4.8099999999999990E-002    -1.7296360905754735
   4.8519999999999994E-002    -1.7335091563140264
   4.8939999999999997E-002    -1.7311126850783400
   4.9360000000000001E-002    -1.7227894517580529
   4.9780000000000005E-002    -1.7088937849080788
   5.0200000000000009E-002    -1.6897883484039724
   5.0620000000000012E-002    -1.6658428511015440
   5.1040000000000016E-002    -1.6374308260309527
   5.1459999999999992E-002    -1.6049273821733669
   5.1879999999999996E-002    -1.5687067723732617
   5.2299999999999999E-002    -1.5291409966894371
   5.2720000000000003E-002    -1.4865961148910543
   5.3140000000000007E-002    -1.4414315171186574
   5.3560000000000010E-002    -1.3939981705489271
   5.3980000000000014E-002    -1.3446371074912489
   5.4400000000000018E-002    -1.2936785476854473
   5.4819999999999994E-002    -1.2414393159381845
   5.5239999999999997E-002    -1.1882220187942709
   5.5660000000000001E-002    -1.1343153267644448
   5.6080000000000005E-002    -1.0799921849528935
   5.6500000000000009E-002    -1.0255096400358148
   5.6920000000000012E-002   -0.97110866815929353
   5.7340000000000016E-002   -0.91701432973104546
   5.7759999999999992E-002   -0.86343502171709918
   5.8179999999999996E-002   -0.81056298630497525
   5.8599999999999999E-002   -0.75857369249120021
   5.9020000000000003E-002   -0.70762640829175438
   5.9440000000000007E-002   -0.65786447173354501
   5.9860000000000010E-002   -0.60941458154107209
   6.0280000000000014E-002   -0.56238811402617406
   6.0700000000000018E-002   -0.51688129944110717
   6.1119999999999994E-002   -0.47297504636893023
   6.1539999999999997E-002   -0.43073613251681658
   6.1960000000000001E-002   -0.39021819656759843
   6.2380000000000005E-002   -0.35146193380959972
   6.2800000000000009E-002   -0.31449615912781498
   6.3220000000000012E-002   -0.27933885691095778
   6.3640000000000016E-002   -0.24599755882134811
   6.4059999999999992E-002   -0.21447053422751977
   6.4479999999999996E-002   -0.18474755437839627
   6.4899999999999999E-002   -0.15681005492357017
   6.5320000000000003E-002   -0.13063187911737439
   6.5740000000000007E-002   -0.10618004260702560
   6.6160000000000010E-002    -8.3415476120888232E-002
   6.6580000000000014E-002    -6.2293324702556697E-002
   6.7000000000000018E-002    -4.2764161718578629E-002
   6.7419999999999994E-002    -2.4774932193206721E-002
   6.7839999999999998E-002    -8.2691466683888250E-003
   6.8260000000000001E-002     6.8116479820807679E-003
   6.8680000000000005E-002     2.0527531188734304E-002
   6.9100000000000009E-002     3.2940028097297208E-002
   6.9520000000000012E-002     4.4111311716478072E-002
   6.9940000000000016E-002     5.4104346505857562E-002
   7.0359999999999992E-002     6.2982516575141465E-002
   7.0779999999999996E-002     7.0809114026955167E-002
   7.1199999999999999E-002     7.7647366278045887E-002
   7.1620000000000003E-002     8.3560109231314489E-002
   7.2040000000000007E-002     8.8609360299766793E-002
   7.2460000000000011E-002     9.2856079917207276E-002
   7.2880000000000014E-002     9.6359449055116370E-002
   7.3300000000000018E-002     9.9176515256098080E-002
   7.3719999999999994E-002    0.10136229798046278
   7.4139999999999998E-002    0.10296949017726388
   7.4560000000000001E-002    0.10404835817314337
   7.4980000000000005E-002    0.10464690018838796
   7.5400000000000009E-002    0.10481093141955242
   7.5820000000000012E-002    0.10458423883376061
   7.6240000000000016E-002    0.10400863617960220
   7.6659999999999992E-002    0.10312375207937884
   7.7079999999999996E-002    0.10196713902383749
   7.7499999999999999E-002    0.10057397275942603
   7.7920000000000003E-002     9.8977123492453564E-002
   7.8340000000000007E-002     9.7206942365883814E-002
   7.8760000000000011E-002     9.5291135364384619E-002
   7.9180000000000014E-002     9.3255149260379644E-002
   7.9600000000000018E-002     9.1122220152864752E-002
   8.0019999999999994E-002     8.8913554016126051E-002
   8.0439999999999998E-002     8.6648531767771902E-002
   8.0860000000000001E-002     8.4344989959690586E-002
   8.1280000000000005E-002     8.2019281598079599E-002
   8.1700000000000009E-002     7.9686483853772166E-002
   8.2120000000000012E-002     7.7360486926700306E-002
   8.2540000000000016E-002     7.5053807668809300E-002
   8.2959999999999992E-002     7.2777639609307471E-002
   8.3379999999999996E-002     7.0541852594302276E-002
   8.3799999999999999E-002     6.8355114933315836E-002
   8.4220000000000003E-002     6.6224767387859040E-002
   8.4640000000000007E-002     6.4157012403686361E-002
   8.5060000000000011E-002     6.2157039614943711E-002
   8.5480000000000014E-002     6.0228994009926672E-002
   8.5900000000000018E-002     5.8376048172924730E-002
   8.6319999999999994E-002     5.6600560574071312E-002
   8.6739999999999998E-002     5.4904134966689361E-002
   8.7160000000000001E-002     5.3287686312163463E-002
   8.7580000000000005E-002     5.1751518412914255E-002
   8.8000000000000009E-002     5.0295544182517520E-002
   8.8420000000000012E-002     4.8919365101679158E-002
   8.8840000000000016E-002     4.7622481786541097E-002
   8.9259999999999992E-002     4.6404234136875971E-002
   8.9679999999999996E-002     4.5263974190203816E-002
   9.0100000000000000E-002     4.4200932228089615E-002
   9.0520000000000003E-002     4.3213926973021864E-002
   9.0940000000000007E-002     4.2301305316892503E-002
   9.1360000000000011E-002     4.1460790235203424E-002
   9.1780000000000014E-002     4.0689322408626889E-002
   9.2200000000000018E-002     3.9982891928591446E-002
   9.2619999999999994E-002     3.9336763236651237E-002
   9.3039999999999998E-002     3.8745736732813923E-002
   9.3460000000000001E-002     3.8204307494699379E-002
   9.3880000000000005E-002     3.7707187444510522E-002
   9.4300000000000009E-002     3.7249480262047573E-002
   9.4720000000000013E-002     3.6826829212165985E-002
   9.5140000000000016E-002     3.6435595918815511E-002
   9.5559999999999992E-002     3.6072737221131190E-002
   9.5979999999999996E-002     3.5735425469427318E-002
   9.6400000000000000E-002     3.5420665856864375E-002
   9.6820000000000003E-002     3.5124948747001034E-002
   9.7240000000000007E-002     3.4843985323967819E-002
   9.7660000000000011E-002     3.4572538177444795E-002
   9.8080000000000014E-002     3.4304356143515569E-002
   9.8500000000000018E-002     3.4032399712679851E-002
   9.8919999999999994E-002     3.3749070786238053E-002
   9.9339999999999998E-002     3.3446660362689978E-002
   9.9760000000000001E-002     3.3117810068090552E-002
  0.10018000000000001          3.2755520107274255E-002
  0.10060000000000001          3.2353489200206975E-002
  0.10102000000000001          3.1906078667609521E-002
  0.10144000000000002          3.1408172863017399E-002
  0.10185999999999999          3.0855095384638709E-002
  0.10228000000000000          3.0242265943113297E-002
  0.10270000000000000          2.9565174753466046E-002
  0.10312000000000000          2.8819059639710761E-002
  0.10354000000000001          2.7999096128235160E-002
  0.10396000000000001          2.7100264033770020E-002
  0.10438000000000001          2.6117402133844024E-002
  0.10480000000000002          2.5045586220927393E-002
  0.10521999999999999          2.3880094074724672E-002
  0.10564000000000000          2.2616361664833304E-002
  0.10606000000000000          2.1250229667621551E-002
  0.10648000000000001          1.9778166558327100E-002
  0.10690000000000001          1.8197318301761127E-002
  0.10732000000000001          1.6505200761884185E-002
  0.10774000000000002          1.4700096085581586E-002
  0.10815999999999999          1.2781016338698482E-002
  0.10858000000000000          1.0747625678931453E-002
  0.10900000000000000          8.6004752502937126E-003
  0.10942000000000000          6.3409384484775545E-003
  0.10984000000000001          3.9711020164991447E-003
  0.11026000000000001          1.4936855314106774E-003
  0.11068000000000001         -1.0879560777000824E-003
  0.11110000000000002         -3.7697564233593580E-003
  0.11151999999999999         -6.5471139828630455E-003
  0.11194000000000000         -9.4148555593159770E-003
  0.11236000000000000         -1.2366855398257199E-002
  0.11278000000000001         -1.5396164105502350E-002
  0.11320000000000001         -1.8494813634895465E-002
  0.11362000000000001         -2.1653868377229730E-002
  0.11404000000000002         -2.4863208981535125E-002
  0.11446000000000002         -2.8111760207323543E-002
  0.11488000000000000         -3.1387457602877887E-002
  0.11530000000000000         -3.4677572352873762E-002
  0.11572000000000000         -3.7969033218645573E-002
  0.11614000000000001         -4.1248513765950991E-002
  0.11656000000000001         -4.4502487667911372E-002
  0.11698000000000001         -4.7717142074267763E-002
  0.11740000000000002         -5.0878522220699454E-002
  0.11781999999999999         -5.3972574334758147E-002
  0.11824000000000000         -5.6984898907754544E-002
  0.11866000000000000         -5.9900280006386683E-002
  0.11908000000000001         -6.2703105831789591E-002
  0.11950000000000001         -6.5377359131917695E-002
  0.11992000000000001         -6.7906404951321511E-002
  0.12034000000000002         -7.0273564155805865E-002
  0.12076000000000002         -7.2462241041997513E-002
  0.12118000000000000         -7.4456211591324484E-002
  0.12160000000000000         -7.6240323097759938E-002
  0.12202000000000000         -7.7800127779916642E-002
  0.12244000000000001         -7.9122030047013223E-002
  0.12286000000000001         -8.0193534264899502E-002
  0.12328000000000001         -8.1002870238630786E-002
  0.12370000000000002         -8.1539433901436961E-002
  0.12411999999999999         -8.1793709208279955E-002
  0.12454000000000000         -8.1757256906869358E-002
  0.12496000000000000         -8.1422681351268608E-002
  0.12537999999999999         -8.0783875276655717E-002
  0.12580000000000002         -7.9836367812280151E-002
  0.12622000000000000         -7.8577447395991609E-002
  0.12664000000000003         -7.7005946739098247E-002
  0.12706000000000001         -7.5122251298185783E-002
  0.12747999999999998         -7.2928202026688274E-002
  0.12790000000000001         -7.0427087478689906E-002
  0.12831999999999999         -6.7623442382214696E-002
  0.12874000000000002         -6.4523059115295017E-002
  0.12916000000000000         -6.1133023425953122E-002
  0.12958000000000003         -5.7461817190926530E-002
  0.13000000000000000         -5.3519177844388255E-002
  0.13041999999999998         -4.9316250088336913E-002
  0.13084000000000001         -4.4866676427166567E-002
  0.13125999999999999         -4.0185995283074122E-002
  0.13168000000000002         -3.5291218069016479E-002
  0.13210000000000000         -3.0201508940434926E-002
  0.13252000000000003         -2.4937596883717432E-002
  0.13294000000000000         -1.9521059754131653E-002
  0.13336000000000003         -1.3974557024217607E-002
  0.13378000000000001         -8.3213722487440328E-003
  0.13419999999999999         -2.5851770816122392E-003
  0.13462000000000002          3.2103392996909721E-003
  0.13503999999999999          9.0410517162501074E-003
  0.13546000000000002          1.4882621604128485E-002
  0.13588000000000000          2.0710901710915088E-002
  0.13630000000000003          2.6501228252089989E-002
  0.13672000000000001          3.2228824959064643E-002
  0.13713999999999998          3.7869302814808277E-002
  0.13756000000000002          4.3398286785316098E-002
  0.13797999999999999          4.8791690482307762E-002
  0.13840000000000002          5.4026295716640249E-002
  0.13882000000000000          5.9079492111816082E-002
  0.13924000000000003          6.3929260289365519E-002
  0.13966000000000001          6.8554802287502076E-002
  0.14007999999999998          7.2936632654716796E-002
  0.14050000000000001          7.7056325522086258E-002
  0.14091999999999999          8.0896774283623740E-002
  0.14134000000000002          8.4442465936436423E-002
  0.14176000000000000          8.7679617393715298E-002
  0.14218000000000003          9.0595819087539123E-002
  0.14260000000000000          9.3180431787868306E-002
  0.14301999999999998          9.5425053591586956E-002
  0.14344000000000001          9.7323285798500206E-002
  0.14385999999999999          9.8870635184986566E-002
  0.14428000000000002         0.10006437202902176
  0.14470000000000000         0.10090326661383692
  0.14512000000000003         0.10138746795418500
  0.14554000000000000         0.10151855704935837
  0.14596000000000003         0.10129975965052454
  0.14638000000000001         0.10073589721635656
  0.14679999999999999          9.9833447901298625E-002
  0.14722000000000002          9.8600509806390638E-002
  0.14763999999999999          9.7047206457475457E-002
  0.14806000000000002          9.5185327228302433E-002
  0.14848000000000000          9.3028406899309815E-002
  0.14890000000000003          9.0591457911010378E-002
  0.14932000000000001          8.7890301865738055E-002
  0.14973999999999998          8.4941602488127516E-002
  0.15016000000000002          8.1762711539871136E-002
  0.15057999999999999          7.8371967253338073E-002
  0.15100000000000002          7.4787878549028561E-002
  0.15142000000000000          7.1029000956737282E-002
  0.15184000000000003          6.7114458969370516E-002
  0.15226000000000001          6.3064254855045382E-002
  0.15267999999999998          5.8899025035599142E-002
  0.15310000000000001          5.4639448435733512E-002
  0.15351999999999999          5.0306381450202345E-002
  0.15394000000000002          4.5920819593568293E-002
  0.15436000000000000          4.1503230500870562E-002
  0.15478000000000003          3.7073467351101896E-002
  0.15520000000000000          3.2650509583517902E-002
  0.15561999999999998          2.8252286291924288E-002
  0.15604000000000001          2.3895732436702025E-002
  0.15645999999999999          1.9597019890447667E-002
  0.15688000000000002          1.5371429302998330E-002
  0.15730000000000000          1.1233465913222154E-002
  0.15772000000000003          7.1972524573523456E-003
  0.15814000000000000          3.2762783206143472E-003
  0.15856000000000003         -5.1648276666081336E-004