  -4.0000000000000001E-002     0.0000000000000000
  -3.9899999999999998E-002     0.0000000000000000
  -3.9800000000000002E-002     0.0000000000000000
  -3.9699999999999999E-002     0.0000000000000000
  -3.9600000000000003E-002     0.0000000000000000
  -3.9500000000000000E-002     0.0000000000000000
  -3.9399999999999998E-002     0.0000000000000000
  -3.9300000000000002E-002     0.0000000000000000
  -3.9199999999999999E-002     0.0000000000000000
  -3.9100000000000003E-002     0.0000000000000000
  -3.9000000000000000E-002     0.0000000000000000
  -3.8900000000000004E-002     0.0000000000000000
  -3.8800000000000001E-002     0.0000000000000000
  -3.8699999999999998E-002     0.0000000000000000
  -3.8600000000000002E-002    -5.6051938572992683E-045
  -3.8500000000000000E-002    -5.1848043180018232E-044
  -3.8400000000000004E-002    -3.5733110840282835E-043
  -3.8300000000000001E-002    -8.3377258627326616E-043
  -3.8199999999999998E-002    -3.8759915523224440E-042
  -3.8100000000000002E-002    -1.2784045890035306E-041
  -3.7999999999999999E-002    -2.4748332178440594E-041
  -3.7900000000000003E-002    -4.1628373479697341E-041
  -3.7800000000000000E-002    -2.2573516961808478E-041
  -3.7699999999999997E-002    -1.0565650291162688E-040
  -3.7600000000000001E-002    -5.6857965449672318E-040
  -3.7499999999999999E-002    -1.8775998123488224E-040
  -3.7400000000000003E-002     8.0077200743841672E-041
  -3.7300000000000000E-002     5.3542773542772665E-040
  -3.7200000000000004E-002    -1.8117048731027193E-038
  -3.7100000000000001E-002    -2.0278714162870085E-038
  -3.6999999999999998E-002    -1.0831126845748411E-037
  -3.6900000000000002E-002    -2.0675755267154950E-037
  -3.6799999999999999E-002    -2.0599697270666485E-037
  -3.6700000000000003E-002     2.7588721566153683E-037
  -3.6600000000000001E-002     9.2624680548168433E-037
  -3.6499999999999998E-002     1.5569723653130560E-036
  -3.6400000000000002E-002     5.8497874774424822E-037
  -3.6299999999999999E-002    -5.9161668735936716E-037
  -3.6200000000000003E-002    -1.2773606328579963E-036
  -3.6100000000000000E-002    -2.2112670926911081E-036
  -3.6000000000000004E-002     1.0957464866066478E-035
  -3.5900000000000001E-002     4.7480021971183548E-035
  -3.5799999999999998E-002     7.6282804760806298E-035
  -3.5700000000000003E-002     1.0510620748917577E-034
  -3.5600000000000000E-002     8.3602122503190746E-035
  -3.5500000000000004E-002     7.9686974411827736E-035
  -3.5400000000000001E-002     5.5647607689888646E-036
  -3.5299999999999998E-002    -5.5746964369689014E-035
  -3.5200000000000002E-002    -1.9429994080581217E-034
  -3.5099999999999999E-002    -3.4634457903715750E-034
  -3.5000000000000003E-002    -7.8727411715178031E-034
  -3.4900000000000000E-002    -1.4011663991416234E-033
  -3.4799999999999998E-002    -1.9913735719883512E-033
  -3.4700000000000002E-002    -3.6109834638757227E-033
  -3.4599999999999999E-002    -6.7504313279145007E-033
  -3.4500000000000003E-002    -1.0130852595135971E-032
  -3.4400000000000000E-002    -1.1258458775473697E-032
  -3.4299999999999997E-002    -1.1148408994349714E-032
  -3.4200000000000001E-002    -9.0669104541548104E-033
  -3.4099999999999998E-002    -4.0746660267652051E-033
  -3.4000000000000002E-002     5.3681267458222787E-033
  -3.3900000000000000E-002     1.1473497099857403E-033
  -3.3799999999999997E-002    -5.6269610509817460E-033
  -3.3700000000000001E-002    -1.3401019104406033E-032
  -3.3599999999999998E-002    -5.8648227002126205E-033
  -3.3500000000000002E-002     2.7244682361557707E-033
  -3.3399999999999999E-002     1.5505857819620483E-032
  -3.3300000000000003E-002     5.9079526899702441E-033
  -3.3200000000000000E-002     9.4473702210579827E-033
  -3.3099999999999997E-002     1.5832354314297250E-032
  -3.3000000000000002E-002    -2.9311877339555012E-032
  -3.2899999999999999E-002    -6.7582990585413481E-032
  -3.2800000000000003E-002    -1.7563029357288325E-031
  -3.2700000000000000E-002    -4.4428203955430233E-031
  -3.2600000000000004E-002    -6.7136117003993582E-031
  -3.2500000000000001E-002    -9.5348522151129861E-031
  -3.2399999999999998E-002    -1.2456789807697714E-030
  -3.2300000000000002E-002    -1.5239108764060135E-030
  -3.2199999999999999E-002    -1.7070064407273814E-030
  -3.2100000000000004E-002    -2.0890691881344678E-030
  -3.2000000000000001E-002    -2.2628134597961742E-030
  -3.1899999999999998E-002    -1.8786440384333182E-030
  -3.1800000000000002E-002    -6.5049196055295129E-031
  -3.1699999999999999E-002     2.2417578169051493E-030
  -3.1600000000000003E-002     5.6314206620210467E-030
  -3.1500000000000000E-002     1.1673730202196880E-029
  -3.1399999999999997E-002     1.6789495910986782E-029
  -3.1300000000000001E-002     2.6392661086922098E-029
  -3.1199999999999999E-002     3.5373004592966888E-029
  -3.1100000000000003E-002     4.1262928687875004E-029
  -3.1000000000000000E-002     4.6311702879571995E-029
  -3.0900000000000000E-002     4.9337492294746786E-029
  -3.0800000000000001E-002     4.6474498126652402E-029
  -3.0699999999999998E-002     4.6421333432390700E-029
  -3.0600000000000002E-002     5.3577469197032819E-029
  -3.0499999999999999E-002     5.1999861738681243E-029
  -3.0400000000000000E-002     4.8543193646698418E-029
  -3.0300000000000001E-002     3.8165786577526204E-029
  -3.0200000000000001E-002     1.3812650695156500E-029
  -3.0100000000000002E-002    -2.6092474812433966E-029
  -2.9999999999999999E-002    -8.0600101968763982E-029
  -2.9899999999999999E-002    -1.5705182305969077E-028
  -2.9800000000000000E-002    -2.6496022135918715E-028
  -2.9700000000000001E-002    -4.0352115491162962E-028
  -2.9600000000000001E-002    -4.9456662821174392E-028
  -2.9499999999999998E-002    -5.4195856413226395E-028
  -2.9400000000000003E-002    -5.0986371198102842E-028
  -2.9300000000000000E-002    -4.8622932563074018E-028
  -2.9200000000000000E-002    -5.4619435815545201E-028
  -2.9100000000000001E-002    -5.5832449087243475E-028
  -2.8999999999999998E-002    -5.7646053982449186E-028
  -2.8900000000000002E-002    -4.2854276452673567E-028
  -2.8799999999999999E-002    -1.6014504710630896E-028
  -2.8700000000000000E-002     2.0446483587603969E-028
  -2.8600000000000000E-002     8.2307639883401212E-028
  -2.8500000000000001E-002     1.9487691624117352E-027
  -2.8400000000000002E-002     3.3076733607342920E-027
  -2.8299999999999999E-002     5.1918279586978243E-027
  -2.8200000000000003E-002     7.5704739291605236E-027
  -2.8100000000000000E-002     1.0132070148016389E-026
  -2.8000000000000001E-002     1.3070482264211394E-026
  -2.7900000000000001E-002     1.6105387322480088E-026
  -2.7799999999999998E-002     1.9072678373005191E-026
  -2.7700000000000002E-002     2.2079082749584865E-026
  -2.7600000000000000E-002     2.5073779012846621E-026
  -2.7500000000000000E-002     2.8360421603774193E-026
  -2.7400000000000001E-002     3.1941896335796252E-026
  -2.7299999999999998E-002     3.4761047936487000E-026
  -2.7200000000000002E-002     3.7863582409938841E-026
  -2.7099999999999999E-002     4.0114116290872879E-026
  -2.7000000000000000E-002     4.1246957528625184E-026
  -2.6900000000000000E-002     3.9783928698231309E-026
  -2.6800000000000001E-002     3.5171964349421460E-026
  -2.6700000000000002E-002     2.9097907942542686E-026
  -2.6599999999999999E-002     2.1088661720104063E-026
  -2.6500000000000003E-002     9.3858100427932446E-027
  -2.6400000000000000E-002    -1.6426331606946566E-027
  -2.6300000000000000E-002    -1.5330625765195946E-026
  -2.6200000000000001E-002    -3.4735801306032016E-026
  -2.6099999999999998E-002    -5.6170742148648993E-026
  -2.6000000000000002E-002    -8.1346128603129618E-026
  -2.5899999999999999E-002    -1.1378702260230891E-025
  -2.5800000000000000E-002    -1.4733228489094269E-025
  -2.5700000000000001E-002    -1.8523617624424558E-025
  -2.5599999999999998E-002    -2.2132846085466006E-025
  -2.5500000000000002E-002    -2.5892781492069270E-025
  -2.5399999999999999E-002    -2.8568762850330973E-025
  -2.5300000000000000E-002    -2.9901881080776920E-025
  -2.5200000000000000E-002    -3.0967780075150236E-025
  -2.5100000000000001E-002    -3.0234400743469550E-025
  -2.5000000000000001E-002    -2.7850135217577920E-025
  -2.4899999999999999E-002    -2.3552122717904061E-025
  -2.4800000000000003E-002    -1.6868995434270294E-025
  -2.4700000000000000E-002    -8.5859701042940611E-026
  -2.4600000000000000E-002     1.1239996785636123E-026
  -2.4500000000000001E-002     1.3062644191560924E-025
  -2.4399999999999998E-002     2.5002943925789640E-025
  -2.4299999999999999E-002     3.9224954803040926E-025
  -2.4199999999999999E-002     5.3955527049555897E-025
  -2.4100000000000000E-002     7.1635566404221051E-025
  -2.4000000000000000E-002     8.8703444766054042E-025
  -2.3900000000000001E-002     1.0459218808094990E-024
  -2.3800000000000002E-002     1.1998680864633794E-024
  -2.3699999999999999E-002     1.3361298055592416E-024
  -2.3599999999999999E-002     1.4594788577127672E-024
  -2.3500000000000000E-002     1.5637059215237356E-024
  -2.3400000000000001E-002     1.6230238242537638E-024
  -2.3300000000000001E-002     1.6602114175791744E-024
  -2.3199999999999998E-002     1.6547998317693582E-024
  -2.3099999999999999E-002     1.6568642807583216E-024
  -2.3000000000000000E-002     1.6210497984460614E-024
  -2.2900000000000000E-002     1.5530478190485208E-024
  -2.2800000000000001E-002     1.4481565343553564E-024
  -2.2700000000000001E-002     1.2740826413123749E-024
  -2.2599999999999999E-002     9.9249834676328217E-025
  -2.2499999999999999E-002     5.6830860954137936E-025
  -2.2400000000000000E-002    -4.7771355675143981E-027
  -2.2300000000000000E-002    -6.6229591367593294E-025
  -2.2200000000000001E-002    -1.3644991172556390E-024
  -2.2100000000000002E-002    -2.0370051097164278E-024
  -2.1999999999999999E-002    -2.7207552296973974E-024
  -2.1899999999999999E-002    -3.3420190857301318E-024
  -2.1800000000000000E-002    -4.1416854132004084E-024
  -2.1700000000000001E-002    -5.1084415522969053E-024
  -2.1600000000000001E-002    -6.0212482829462425E-024
  -2.1499999999999998E-002    -6.7714029389916802E-024
  -2.1399999999999999E-002    -7.5294178050967400E-024
  -2.1299999999999999E-002    -8.4476234997814098E-024
  -2.1200000000000000E-002    -8.8914295453106040E-024
  -2.1100000000000001E-002    -9.1346613948001142E-024
  -2.1000000000000001E-002    -8.5789577964480351E-024
  -2.0899999999999998E-002    -7.8306837848006444E-024
  -2.0799999999999999E-002    -6.5406031429380005E-024
  -2.0700000000000000E-002    -4.8699716616617618E-024
  -2.0600000000000000E-002    -2.2150660043820094E-024
  -2.0500000000000001E-002     6.5570759391455993E-025
  -2.0400000000000001E-002     4.0959717126037560E-024
  -2.0299999999999999E-002     7.5858860464142704E-024
  -2.0199999999999999E-002     1.1650064297954904E-023
  -2.0100000000000000E-002     1.5801267317976804E-023
  -2.0000000000000000E-002     2.0796500230626347E-023
  -1.9900000000000001E-002     2.7499552316485153E-023
  -1.9799999999999998E-002     3.4284563894952800E-023
  -1.9699999999999999E-002     4.0762449834912562E-023
  -1.9599999999999999E-002     4.7855874472885417E-023
  -1.9500000000000000E-002     5.4190023645026668E-023
  -1.9400000000000001E-002     6.0919934866986439E-023
  -1.9300000000000001E-002     6.6663618496126143E-023
  -1.9199999999999998E-002     7.3205850242402972E-023
  -1.9099999999999999E-002     8.0118669909290907E-023
  -1.9000000000000000E-002     8.5472283908904166E-023
  -1.8900000000000000E-002     8.9262243065737303E-023
  -1.8800000000000001E-002     9.0983783685531980E-023
  -1.8700000000000001E-002     9.2043293301003458E-023
  -1.8599999999999998E-002     9.2444413294090238E-023
  -1.8499999999999999E-002     9.2187257260762672E-023
  -1.8400000000000000E-002     9.1118338112413717E-023
  -1.8300000000000000E-002     8.9136170471308502E-023
  -1.8200000000000001E-002     8.5233738682052574E-023
  -1.8100000000000002E-002     7.9618241794567664E-023
  -1.7999999999999999E-002     7.2797933423756807E-023
  -1.7899999999999999E-002     6.5328827979168740E-023
  -1.7800000000000000E-002     5.9185488482782347E-023
  -1.7700000000000000E-002     5.2650643630022007E-023
  -1.7600000000000001E-002     5.0351092003197411E-023
  -1.7499999999999998E-002     5.1797058265249422E-023
  -1.7399999999999999E-002     5.3793649439145698E-023
  -1.7299999999999999E-002     5.6368806978149169E-023
  -1.7200000000000000E-002     5.4715139950639708E-023
  -1.7100000000000001E-002     4.5976164086150306E-023
  -1.7000000000000001E-002     2.6531389638394647E-023
  -1.6899999999999998E-002     1.7612029683873787E-023
  -1.6799999999999999E-002     7.8538210751507767E-024
  -1.6700000000000000E-002    -9.2502949928701258E-024
  -1.6600000000000000E-002    -2.9993719084071393E-023
  -1.6500000000000001E-002    -5.6060734706555018E-023
  -1.6400000000000001E-002    -8.9264489741595373E-023
  -1.6299999999999999E-002    -1.3225463859664138E-022
  -1.6199999999999999E-002    -1.8914355103593362E-022
  -1.6100000000000000E-002    -2.5555453209399731E-022
  -1.6000000000000000E-002    -3.3151974205221648E-022
  -1.5900000000000001E-002    -4.0008929898245452E-022
  -1.5799999999999998E-002    -4.6944382931137264E-022
  -1.5699999999999999E-002    -5.3146212992657813E-022
  -1.5599999999999999E-002    -5.9315519265689185E-022
  -1.5500000000000000E-002    -6.2834177166531056E-022
  -1.5400000000000000E-002    -6.5044679018930683E-022
  -1.5300000000000001E-002    -6.0006031304134483E-022
  -1.5199999999999998E-002    -4.8696951659144818E-022
  -1.5099999999999999E-002    -3.1098401399330723E-022
  -1.4999999999999999E-002    -7.4865316975287618E-023
  -1.4900000000000000E-002     2.2780543467419816E-022
  -1.4800000000000001E-002     5.9942932529136389E-022
  -1.4700000000000001E-002     1.0242083297765532E-021
  -1.4599999999999998E-002     1.5240477649378839E-021
  -1.4499999999999999E-002     2.0847552531621865E-021
  -1.4400000000000000E-002     2.6976948753736295E-021
  -1.4300000000000000E-002     3.2729180100991739E-021
  -1.4200000000000001E-002     3.8616111025535481E-021
  -1.4099999999999998E-002     4.3853420421992748E-021
  -1.3999999999999999E-002     4.8859527182686475E-021
  -1.3899999999999999E-002     5.3685568679372198E-021
  -1.3800000000000000E-002     5.7635323792570228E-021
  -1.3700000000000000E-002     6.0109131006825800E-021
  -1.3600000000000001E-002     6.1356844911363245E-021
  -1.3499999999999998E-002     6.1354675985635994E-021
  -1.3399999999999999E-002     5.9876748992454518E-021
  -1.3299999999999999E-002     5.7066964277834634E-021
  -1.3200000000000000E-002     5.2613513524935064E-021
  -1.3100000000000001E-002     4.7050772373129970E-021
  -1.3000000000000001E-002     3.9927769868832397E-021
  -1.2899999999999998E-002     3.1720443845299692E-021
  -1.2799999999999999E-002     2.1631750448477679E-021
  -1.2699999999999999E-002     1.0649357668090484E-021
  -1.2600000000000000E-002    -1.0632337962505905E-022
  -1.2500000000000001E-002    -1.4678536054532634E-021
  -1.2399999999999998E-002    -2.9160709609844123E-021
  -1.2299999999999998E-002    -4.3803066609997149E-021
  -1.2199999999999999E-002    -5.7968966769526065E-021
  -1.2100000000000000E-002    -7.2689094095336847E-021
  -1.2000000000000000E-002    -8.6677275631169738E-021
  -1.1900000000000001E-002    -9.9027671865890312E-021
  -1.1799999999999998E-002    -1.0943057474593135E-020
  -1.1699999999999999E-002    -1.1721323763286863E-020
  -1.1599999999999999E-002    -1.2279782152272395E-020
  -1.1500000000000000E-002    -1.2547796748675245E-020
  -1.1400000000000000E-002    -1.2354826982435275E-020
  -1.1300000000000001E-002    -1.1771898102926238E-020
  -1.1199999999999998E-002    -1.0942722240262852E-020
  -1.1099999999999999E-002    -9.5966344273491180E-021
  -1.0999999999999999E-002    -7.7045807529626761E-021
  -1.0900000000000000E-002    -5.4537451619202444E-021
  -1.0800000000000001E-002    -2.8323988955265460E-021
  -1.0699999999999998E-002    -1.6191187063931256E-022
  -1.0599999999999998E-002     2.7198058008880841E-021
  -1.0499999999999999E-002     5.6330716987112753E-021
  -1.0400000000000000E-002     8.6885524812728498E-021
  -1.0300000000000000E-002     1.1807995974052368E-020
  -1.0200000000000001E-002     1.5053732336468973E-020
  -1.0099999999999998E-002     1.8309062863080200E-020
  -9.9999999999999985E-003     2.1203222423561194E-020
  -9.8999999999999991E-003     2.3835448457611309E-020
  -9.7999999999999997E-003     2.6005978462886123E-020
  -9.7000000000000003E-003     2.7398086275308789E-020
  -9.6000000000000009E-003     2.8092064959846637E-020
  -9.4999999999999980E-003     2.8214009476712853E-020
  -9.3999999999999986E-003     2.7572601997511871E-020
  -9.2999999999999992E-003     2.6121240911366559E-020
  -9.1999999999999998E-003     2.3636621380217410E-020
  -9.1000000000000004E-003     2.0256994041873020E-020
  -9.0000000000000011E-003     1.5862393473706190E-020
  -8.8999999999999982E-003     1.0389132423105306E-020
  -8.7999999999999988E-003     4.3634290261087221E-021
  -8.6999999999999994E-003    -2.1097366731167848E-021
  -8.5999999999999965E-003    -8.8979980051042576E-021
  -8.5000000000000006E-003    -1.6446948441665490E-020
  -8.3999999999999977E-003    -2.4049823945581790E-020
  -8.3000000000000018E-003    -3.0763477059829317E-020
  -8.1999999999999990E-003    -3.6197417142971955E-020
  -8.0999999999999961E-003    -4.0384460000873331E-020
  -8.0000000000000002E-003    -4.2839877794577370E-020
  -7.8999999999999973E-003    -4.3505422145558708E-020
  -7.8000000000000014E-003    -4.1929184251899165E-020
  -7.6999999999999985E-003    -3.7755066091068930E-020
  -7.6000000000000026E-003    -3.2091383055138224E-020
  -7.4999999999999997E-003    -2.4964147712549852E-020
  -7.3999999999999969E-003    -1.5572266336201751E-020
  -7.3000000000000009E-003    -3.9416198241853129E-021
  -7.1999999999999981E-003     9.5814891057624415E-021
  -7.1000000000000021E-003     2.5049567035493023E-020
  -6.9999999999999993E-003     4.1622616899720234E-020
  -6.8999999999999964E-003     5.8592324101473631E-020
  -6.8000000000000005E-003     7.5870349951859097E-020
  -6.6999999999999976E-003     9.4624608852316153E-020
  -6.6000000000000017E-003     1.1297546210778875E-019
  -6.4999999999999988E-003     1.2986168222881111E-019
  -6.3999999999999960E-003     1.4592899354340598E-019
  -6.3000000000000000E-003     1.6031807171740439E-019
  -6.1999999999999972E-003     1.7215501335834114E-019
  -6.1000000000000013E-003     1.7990375699340234E-019
  -5.9999999999999984E-003     1.8318595796522447E-019
  -5.9000000000000025E-003     1.8192753191019575E-019
  -5.7999999999999996E-003     1.7683670052902643E-019
  -5.6999999999999967E-003     1.6631571276978204E-019
  -5.6000000000000008E-003     1.5067786328946705E-019
  -5.4999999999999979E-003     1.2944744568768104E-019
  -5.4000000000000020E-003     1.0131545310740738E-019
  -5.2999999999999992E-003     6.6629372491752237E-020
  -5.1999999999999963E-003     2.3590194252750738E-020
  -5.1000000000000004E-003    -2.3749613928774727E-020
  -4.9999999999999975E-003    -7.5026490017735762E-020
  -4.9000000000000016E-003    -1.2980549857064286E-019
  -4.7999999999999987E-003    -1.8789504549370057E-019
  -4.6999999999999958E-003    -2.4622866239624971E-019
  -4.5999999999999999E-003    -3.0302820822933390E-019
  -4.4999999999999971E-003    -3.5399075406993765E-019
  -4.4000000000000011E-003    -4.0037997340010056E-019
  -4.2999999999999983E-003    -4.3856614599315167E-019
  -4.2000000000000023E-003    -4.6881505531966192E-019
  -4.0999999999999995E-003    -4.8625047166863120E-019
  -3.9999999999999966E-003    -4.9223838042411429E-019
  -3.9000000000000007E-003    -4.7995428303860726E-019
  -3.7999999999999978E-003    -4.5011968780140952E-019
  -3.7000000000000019E-003    -4.0324488760228383E-019
  -3.5999999999999990E-003    -3.4277413326493031E-019
  -3.4999999999999962E-003    -2.7097622611321705E-019
  -3.4000000000000002E-003    -1.7897652630082161E-019
  -3.2999999999999974E-003    -6.9983512327472337E-020
  -3.2000000000000015E-003     5.6690726346093718E-020
  -3.0999999999999986E-003     1.9314416563990016E-019
  -2.9999999999999957E-003     3.3900043191288683E-019
  -2.8999999999999998E-003     4.8742837686090671E-019
  -2.7999999999999969E-003     6.3667641968748464E-019
  -2.7000000000000010E-003     7.7691010669240110E-019
  -2.5999999999999981E-003     9.0725686572698921E-019
  -2.5000000000000022E-003     1.0231287395237236E-018
  -2.3999999999999994E-003     1.1178959271717800E-018
  -2.2999999999999965E-003     1.1816101342391364E-018
  -2.2000000000000006E-003     1.2103718245230646E-018
  -2.0999999999999977E-003     1.2022702108085671E-018
  -2.0000000000000018E-003     1.1518193278756157E-018
  -1.8999999999999989E-003     1.0540845263824487E-018
  -1.7999999999999960E-003     9.0534452754834318E-019
  -1.7000000000000001E-003     7.0540866624210567E-019
  -1.5999999999999973E-003     4.5360341064996488E-019
  -1.5000000000000013E-003     1.4593278047964782E-019
  -1.3999999999999985E-003    -2.0508593949878094E-019
  -1.2999999999999956E-003    -5.9808089608879636E-019
  -1.1999999999999997E-003    -1.0140307867614060E-018
  -1.0999999999999968E-003    -1.4590626417113667E-018
  -1.0000000000000009E-003    -1.9017225562548316E-018
  -8.9999999999999802E-004    -2.3362074448044349E-018
  -8.0000000000000210E-004    -2.7368550628314846E-018
  -6.9999999999999923E-004    -3.0802874250688540E-018
  -5.9999999999999637E-004    -3.3512335366378953E-018
  -5.0000000000000044E-004    -3.5291284467396214E-018
  -3.9999999999999758E-004    -3.6056414126298576E-018
  -3.0000000000000165E-004    -3.5653903904327210E-018
  -1.9999999999999879E-004    -3.3886866204130713E-018
  -9.9999999999995925E-005    -3.0585931659385789E-018
   0.0000000000000000         -2.5628592753421804E-018
   1.0000000000000286E-004    -1.8971374941194501E-018
   1.9999999999999879E-004    -1.0636205746766897E-018
   3.0000000000000165E-004    -7.8121890342788689E-020
   4.0000000000000452E-004     1.0419341737622338E-018
   5.0000000000000044E-004     2.2606463570040941E-018
   6.0000000000000331E-004     3.5397056052323370E-018
   6.9999999999999923E-004     4.8605385083702735E-018
   8.0000000000000210E-004     6.1662410373336963E-018
   8.9999999999999802E-004     7.3986830745754414E-018
   1.0000000000000009E-003     8.5157822200221797E-018
   1.1000000000000038E-003     9.4624209479176654E-018
   1.1999999999999997E-003     1.0138226681192876E-017
   1.3000000000000025E-003     1.0526158672048608E-017
   1.3999999999999985E-003     1.0531990295367107E-017
   1.5000000000000013E-003     1.0139404586385152E-017
   1.6000000000000042E-003     9.3088118538053431E-018
   1.7000000000000001E-003     8.0192165993198591E-018
   1.8000000000000030E-003     6.2668716947538349E-018
   1.8999999999999989E-003     4.0284307944985737E-018
   2.0000000000000018E-003     1.3176105176641596E-018
   2.1000000000000046E-003    -1.8284240142249764E-018
   2.2000000000000006E-003    -5.3539430583617227E-018
   2.3000000000000034E-003    -9.1732973355926182E-018
   2.3999999999999994E-003    -1.3184640232997071E-017
   2.5000000000000022E-003    -1.7288326265264495E-017
   2.5999999999999981E-003    -2.1349051845238364E-017
   2.7000000000000010E-003    -2.5227036684287018E-017
   2.8000000000000039E-003    -2.8778103201642464E-017
   2.8999999999999998E-003    -3.1832417982657766E-017
   3.0000000000000027E-003    -3.4235212226001800E-017
   3.0999999999999986E-003    -3.5846976958283825E-017
   3.2000000000000015E-003    -3.6480673408115799E-017
   3.3000000000000043E-003    -3.6026111191738309E-017
   3.4000000000000002E-003    -3.4407772027947713E-017
   3.5000000000000031E-003    -3.1520441851549716E-017
   3.5999999999999990E-003    -2.7379509530660255E-017
   3.7000000000000019E-003    -2.1936672680589909E-017
   3.7999999999999978E-003    -1.5248402921757672E-017
   3.9000000000000007E-003    -7.4489533219421265E-018
   4.0000000000000036E-003     1.3728837601707186E-018
   4.0999999999999995E-003     1.0967163398186354E-017
   4.2000000000000023E-003     2.1120783083398230E-017
   4.2999999999999983E-003     3.1525077371702463E-017
   4.4000000000000011E-003     4.1879730897086164E-017
   4.5000000000000040E-003     5.1845318366994323E-017
   4.5999999999999999E-003     6.1005589262300456E-017
   4.7000000000000028E-003     6.9003016269924444E-017
   4.7999999999999987E-003     7.5459041836892617E-017
   4.9000000000000016E-003     8.0001123667645794E-017
   5.0000000000000044E-003     8.2309685495607788E-017
   5.1000000000000004E-003     8.2119116317365371E-017
   5.2000000000000032E-003     7.9244346051388380E-017
   5.2999999999999992E-003     7.3528071414948829E-017
   5.4000000000000020E-003     6.4985069162509367E-017
   5.4999999999999979E-003     5.3584511927001367E-017
   5.6000000000000008E-003     3.9489595825836641E-017
   5.7000000000000037E-003     2.2931120793529734E-017
   5.7999999999999996E-003     4.2893727769442455E-018
   5.9000000000000025E-003    -1.6038831899694969E-017
   5.9999999999999984E-003    -3.7438465839390950E-017
   6.1000000000000013E-003    -5.9294476829728363E-017
   6.2000000000000041E-003    -8.0888556116017184E-017
   6.3000000000000000E-003    -1.0152837337788523E-016
   6.4000000000000029E-003    -1.2030575709464318E-016
   6.4999999999999988E-003    -1.3648971121536568E-016
   6.6000000000000017E-003    -1.4919042762896208E-016
   6.7000000000000046E-003    -1.5769698099489001E-016
   6.8000000000000005E-003    -1.6144823845537309E-016
   6.9000000000000034E-003    -1.5998639193731017E-016
   6.9999999999999993E-003    -1.5292473119561027E-016
   7.1000000000000021E-003    -1.4005066419540236E-016
   7.1999999999999981E-003    -1.2147037445755864E-016
   7.3000000000000009E-003    -9.7375437011946401E-017
   7.4000000000000038E-003    -6.8218021868611620E-017
   7.4999999999999997E-003    -3.4672413575683028E-017
   7.6000000000000026E-003     2.2414355008678563E-018
   7.6999999999999985E-003     4.1403843964517057E-017
   7.8000000000000014E-003     8.1486170947529595E-017
   7.9000000000000042E-003     1.2108894493349819E-016
   8.0000000000000002E-003     1.5856037226593815E-016
   8.1000000000000030E-003     1.9248037573899805E-016
   8.1999999999999990E-003     2.2118323859212269E-016
   8.3000000000000018E-003     2.4313151661670672E-016
   8.4000000000000047E-003     2.5687359386450327E-016
   8.5000000000000006E-003     2.6117744767884118E-016
   8.6000000000000035E-003     2.5512372967459430E-016
   8.6999999999999994E-003     2.3826070659308007E-016
   8.8000000000000023E-003     2.1010175800610089E-016
   8.8999999999999982E-003     1.7072500946815119E-016
   9.0000000000000011E-003     1.2068874833570014E-016
   9.1000000000000039E-003     6.1244836365230394E-017
   9.1999999999999998E-003    -5.8625917198619116E-018
   9.3000000000000027E-003    -7.8597484194927012E-017
   9.3999999999999986E-003    -1.5436589158091446E-016
   9.5000000000000015E-003    -2.3022757847021829E-016
   9.6000000000000044E-003    -3.0288082366933104E-016
   9.7000000000000003E-003    -3.6898716593065809E-016
   9.8000000000000032E-003    -4.2519661641758828E-016
   9.8999999999999991E-003    -4.6794504577653273E-016
   1.0000000000000002E-002    -4.9418940873514157E-016
   1.0100000000000005E-002    -5.0098833044451502E-016
   1.0200000000000001E-002    -4.8592924931263604E-016
   1.0300000000000004E-002    -4.4737395067995559E-016
   1.0400000000000000E-002    -3.8419429253984936E-016
   1.0500000000000002E-002    -2.9616239655972634E-016
   1.0599999999999998E-002    -1.8434377724767324E-016
   1.0700000000000001E-002    -5.0768812282928012E-017
   1.0800000000000004E-002     1.0155416156066218E-016
   1.0900000000000000E-002     2.6865685448221506E-016
   1.1000000000000003E-002     4.4528596152541454E-016
   1.1099999999999999E-002     6.2558555349664252E-016
   1.1200000000000002E-002     8.0261718647824500E-016
   1.1300000000000004E-002     9.6880748594926208E-016
   1.1400000000000000E-002     1.1161881482770765E-015
   1.1500000000000003E-002     1.2370608086414493E-015
   1.1599999999999999E-002     1.3241564420472807E-015
   1.1700000000000002E-002     1.3702967619039458E-015
   1.1800000000000005E-002     1.3691470205571665E-015
   1.1900000000000001E-002     1.3157576868587807E-015
   1.2000000000000004E-002     1.2065624344634925E-015
   1.2100000000000000E-002     1.0398102345110906E-015
   1.2200000000000003E-002     8.1593280910687862E-016
   1.2299999999999998E-002     5.3734891377130037E-016
   1.2400000000000001E-002     2.0875542560621978E-016
   1.2500000000000004E-002    -1.6296617443641200E-016
   1.2600000000000000E-002    -5.6832628508092942E-016
   1.2700000000000003E-002    -9.9543110791000403E-016
   1.2799999999999999E-002    -1.4309916488932815E-015
   1.2900000000000002E-002    -1.8598793701972080E-015
   1.3000000000000005E-002    -2.2655312836920545E-015
   1.3100000000000001E-002    -2.6309910603232109E-015
   1.3200000000000003E-002    -2.9400015967340253E-015
   1.3299999999999999E-002    -3.1759013313355320E-015
   1.3400000000000002E-002    -3.3225161699999102E-015
   1.3500000000000005E-002    -3.3661334963440599E-015
   1.3600000000000001E-002    -3.2961446462200948E-015
   1.3700000000000004E-002    -3.1042531436678957E-015
   1.3800000000000000E-002    -2.7861435675794388E-015
   1.3900000000000003E-002    -2.3417504846595487E-015
   1.3999999999999999E-002    -1.7753407175009005E-015
   1.4100000000000001E-002    -1.0962450751713293E-015
   1.4200000000000004E-002    -3.1883357750012251E-016
   1.4300000000000000E-002     5.3823003979468166E-016
   1.4400000000000003E-002     1.4515525266549324E-015
   1.4499999999999999E-002     2.3938489401463189E-015