  -4.0000000000000001E-002     0.0000000000000000
  -3.9899999999999998E-002     0.0000000000000000
  -3.9800000000000002E-002     0.0000000000000000
  -3.9699999999999999E-002     0.0000000000000000
  -3.9600000000000003E-002     0.0000000000000000
  -3.9500000000000000E-002     0.0000000000000000
  -3.9399999999999998E-002     0.0000000000000000
  -3.9300000000000002E-002     0.0000000000000000
  -3.9199999999999999E-002     0.0000000000000000
  -3.9100000000000003E-002     3.9880019796764405E-036
  -3.9000000000000000E-002     8.3957055216404363E-035
  -3.8900000000000004E-002     9.2127312630582844E-034
  -3.8800000000000001E-002     7.0177945792731529E-033
  -3.8699999999999998E-002     4.1697270794218527E-032
  -3.8600000000000002E-002     2.0586225678944976E-031
  -3.8500000000000000E-002     8.7856287913226057E-031
  -3.8400000000000004E-002     3.3294619237888173E-030
  -3.8300000000000001E-002     1.1423334482985850E-029
  -3.8199999999999998E-002     3.6003442713934359E-029
  -3.8100000000000002E-002     1.0541867643801409E-028
  -3.7999999999999999E-002     2.8933024072585840E-028
  -3.7900000000000003E-002     7.4974377545480015E-028
  -3.7800000000000000E-002     1.8452565908767433E-027
  -3.7699999999999997E-002     4.3348869706866792E-027
  -3.7600000000000001E-002     9.7609087809939692E-027
  -3.7499999999999999E-002     2.1141638660270311E-026
  -3.7400000000000003E-002     4.4182324364392124E-026
  -3.7300000000000000E-002     8.9323502996104566E-026
  -3.7200000000000004E-002     1.7510015177686738E-025
  -3.7100000000000001E-002     3.3348895087801640E-025
  -3.6999999999999998E-002     6.1817911407048074E-025
  -3.6900000000000002E-002     1.1170106729291694E-024
  -3.6799999999999999E-002     1.9701672917997671E-024
  -3.6700000000000003E-002     3.3960540855855080E-024
  -3.6600000000000001E-002     5.7270757405020855E-024
  -3.6499999999999998E-002     9.4576644367473836E-024
  -3.6400000000000002E-002     1.5306738305102804E-023
  -3.6299999999999999E-002     2.4296174351556256E-023
  -3.6200000000000003E-002     3.7845519886443898E-023
  -3.6100000000000000E-002     5.7880889250389563E-023
  -3.6000000000000004E-002     8.6952414159039488E-023
  -3.5900000000000001E-002     1.2834937321901390E-022
  -3.5799999999999998E-002     1.8619510451657957E-022
  -3.5700000000000003E-002     2.6549458339656553E-022
  -3.5600000000000000E-002     3.7209624790543758E-022
  -3.5500000000000004E-002     5.1251619009451716E-022
  -3.5400000000000001E-002     6.9355863188303585E-022
  -3.5299999999999998E-002     9.2165095949124479E-022
  -3.5200000000000002E-002     1.2017985142954330E-021
  -3.5099999999999999E-002     1.5360537987750153E-021
  -3.5000000000000003E-002     1.9213915250475817E-021
  -3.4900000000000000E-002     2.3468883046041008E-021
  -3.4799999999999998E-002     2.7901282698585957E-021
  -3.4700000000000002E-002     3.2127991855695448E-021
  -3.4599999999999999E-002     3.5555118667466632E-021
  -3.4500000000000003E-002     3.7319759870332198E-021
  -3.4400000000000000E-002     3.6228030903572087E-021
  -3.4299999999999997E-002     3.0693800825712363E-021
  -3.4200000000000001E-002     1.8684695353542690E-021
  -3.4099999999999998E-002    -2.3155680275554788E-022
  -3.4000000000000002E-002    -3.5316722629989435E-021
  -3.3900000000000000E-002    -8.3788735082740423E-021
  -3.3799999999999997E-002    -1.5156837491766867E-020
  -3.3700000000000001E-002    -2.4268590599382191E-020
  -3.3599999999999998E-002    -3.6109060682619367E-020
  -3.3500000000000002E-002    -5.1025382486589371E-020
  -3.3399999999999999E-002    -6.9262954003407688E-020
  -3.3300000000000003E-002    -9.0895736812063924E-020
  -3.3200000000000000E-002    -1.1573988679024390E-019
  -3.3099999999999997E-002    -1.4325109970784212E-019
  -3.3000000000000002E-002    -1.7240738099335224E-019
  -3.2899999999999999E-002    -2.0158117524339376E-019
  -3.2800000000000003E-002    -2.2840708194818887E-019
  -3.2700000000000000E-002    -2.4965440505374393E-019
  -3.2600000000000004E-002    -2.6111737058492722E-019
  -3.2500000000000001E-002    -2.5753896140562868E-019
  -3.2399999999999998E-002    -2.3258847994464442E-019
  -3.2300000000000002E-002    -1.7891640061004666E-019
  -3.2199999999999999E-002    -8.8312774876487597E-020
  -3.2100000000000004E-002     4.8001995342442573E-020
  -3.2000000000000001E-002     2.3892494193074204E-019
  -3.1899999999999998E-002     4.9282888398390058E-019
  -3.1800000000000002E-002     8.1670747202234065E-019
  -3.1699999999999999E-002     1.2150898559419139E-018
  -3.1600000000000003E-002     1.6887192058242110E-018
  -3.1500000000000000E-002     2.2330034284986438E-018
  -3.1399999999999997E-002     2.8362670764141795E-018
  -3.1300000000000001E-002     3.4778568972414408E-018
  -3.1199999999999999E-002     4.1261828633870277E-018
  -3.1100000000000003E-002     4.7368080051639791E-018
  -3.1000000000000000E-002     5.2507386284656254E-018
  -3.0900000000000000E-002     5.5931016529661168E-018
  -3.0800000000000001E-002     5.6724324096130149E-018
  -3.0699999999999998E-002     5.3808338728952091E-018
  -3.0600000000000002E-002     4.5952918780168757E-018
  -3.0499999999999999E-002     3.1804496914671345E-018
  -3.0400000000000000E-002     9.9315326508845042E-019
  -3.0300000000000001E-002    -2.1109405214072563E-018
  -3.0200000000000001E-002    -6.2684371340630915E-018
  -3.0100000000000002E-002    -1.1596760340902516E-017
  -2.9999999999999999E-002    -1.8180108029296689E-017
  -2.9899999999999999E-002    -2.6052821015966056E-017
  -2.9800000000000000E-002    -3.5180388498574292E-017
  -2.9700000000000001E-002    -4.5438486885415904E-017
  -2.9600000000000001E-002    -5.6590674870198732E-017
  -2.9499999999999998E-002    -6.8265680706784476E-017
  -2.9400000000000003E-002    -7.9935511701458088E-017
  -2.9300000000000000E-002    -9.0895807019018414E-017
  -2.9200000000000000E-002    -1.0025035286171120E-016
  -2.9100000000000001E-002    -1.0690179157658890E-016
  -2.8999999999999998E-002    -1.0955088050168183E-016
  -2.8900000000000002E-002    -1.0670683503237750E-016
  -2.8799999999999999E-002    -9.6711356563854129E-017
  -2.8700000000000000E-002    -7.7778945965413938E-017
  -2.8600000000000000E-002    -4.8055865014545995E-017
  -2.8500000000000001E-002    -5.6998418663905721E-018
  -2.8400000000000002E-002     5.1018015331710638E-017
  -2.8299999999999999E-002     1.2358839357705782E-016
  -2.8200000000000003E-002     2.1311634826537895E-016
  -2.8100000000000000E-002     3.2015280484569148E-016
  -2.8000000000000001E-002     4.4450806764247987E-016
  -2.7900000000000001E-002     5.8505206235520885E-016
  -2.7799999999999998E-002     7.3950793795187928E-016
  -2.7700000000000002E-002     9.0424790525896019E-016
  -2.7600000000000000E-002     1.0741016222268521E-015
  -2.7500000000000000E-002     1.2421898048953109E-015
  -2.7400000000000001E-002     1.3997982841821026E-015
  -2.7299999999999998E-002     1.5363079139066186E-015
  -2.7200000000000002E-002     1.6391983824381377E-015
  -2.7099999999999999E-002     1.6941428686276824E-015
  -2.7000000000000000E-002     1.6852123885065435E-015
  -2.6900000000000000E-002     1.5952064557730647E-015
  -2.6800000000000001E-002     1.4061244556277898E-015
  -2.6700000000000002E-002     1.0997899080555885E-015
  -2.6599999999999999E-002     6.5863460857657798E-016
  -2.6500000000000003E-002     6.6644552289968351E-017
  -2.6400000000000000E-002    -6.8953781156376307E-016
  -2.6300000000000000E-002    -1.6193692352637961E-015
  -2.6200000000000001E-002    -2.7270414201682963E-015
  -2.6099999999999998E-002    -4.0100314257043076E-015
  -2.6000000000000002E-002    -5.4576107325619069E-015
  -2.5899999999999999E-002    -7.0493677525363969E-015
  -2.5800000000000000E-002    -8.7538161533959671E-015
  -2.5700000000000001E-002    -1.0527160096602834E-014
  -2.5599999999999998E-002    -1.2312309137995584E-014
  -2.5500000000000002E-002    -1.4038237023848103E-014
  -2.5399999999999999E-002    -1.5619783908676389E-014
  -2.5300000000000000E-002    -1.6958004485779880E-014
  -2.5200000000000000E-002    -1.7941164097987419E-014
  -2.5100000000000001E-002    -1.8446468378935550E-014
  -2.5000000000000001E-002    -1.8342618751470384E-014
  -2.4899999999999999E-002    -1.7493247993281662E-014
  -2.4800000000000003E-002    -1.5761277374383431E-014
  -2.4700000000000000E-002    -1.3014214001166174E-014
  -2.4600000000000000E-002    -9.1303451683400795E-015
  -2.4500000000000001E-002    -4.0057712734960921E-015
  -2.4399999999999998E-002     2.4378309141742617E-015
  -2.4299999999999999E-002     1.0244893143193917E-014
  -2.4199999999999999E-002     1.9417296885496961E-014
  -2.4100000000000000E-002     2.9905646779489550E-014
  -2.4000000000000000E-002     4.1600796700687337E-014
  -2.3900000000000001E-002     5.4325999672118555E-014
  -2.3800000000000002E-002     6.7830120589317672E-014
  -2.3699999999999999E-002     8.1782325323746102E-014
  -2.3599999999999999E-002     9.5768763741770763E-014
  -2.3500000000000000E-002     1.0929170573105787E-013
  -2.3400000000000001E-002     1.2177158424404172E-013
  -2.3300000000000001E-002     1.3255249762395005E-013
  -2.3199999999999998E-002     1.4091139821821586E-013
  -2.3099999999999999E-002     1.4607149582783474E-013
  -2.3000000000000000E-002     1.4721999118914864E-013
  -2.2900000000000000E-002     1.4353022080321881E-013
  -2.2800000000000001E-002     1.3418831475674187E-013
  -2.2700000000000001E-002     1.1842409648396557E-013
  -2.2599999999999999E-002     9.5545824670053431E-014
  -2.2499999999999999E-002     6.4978248747338957E-014
  -2.2400000000000000E-002     2.6303166526906070E-014
  -2.2300000000000000E-002    -2.0698510451184343E-014
  -2.2200000000000001E-002    -7.6004422211190664E-014
  -2.2100000000000002E-002    -1.3930951661342283E-013
  -2.1999999999999999E-002    -2.0998757203558038E-013
  -2.1899999999999999E-002    -2.8705721610497448E-013
  -2.1800000000000000E-002    -3.6915422433302092E-013
  -2.1700000000000001E-002    -4.5451224164536064E-013
  -2.1600000000000001E-002    -5.4095356666339356E-013
  -2.1499999999999998E-002    -6.2589235010068744E-013
  -2.1399999999999999E-002    -7.0635131858148847E-013
  -2.1299999999999999E-002    -7.7899432781095013E-013
  -2.1200000000000000E-002    -8.4017563956387264E-013
  -2.1100000000000001E-002    -8.8600670853852814E-013
  -2.1000000000000001E-002    -9.1244123801709209E-013
  -2.0899999999999998E-002    -9.1537845012257257E-013
  -2.0799999999999999E-002    -8.9078359489028203E-013
  -2.0700000000000000E-002    -8.3482504763254806E-013
  -2.0600000000000000E-002    -7.4402501304068891E-013
  -2.0500000000000001E-002    -6.1542199288056043E-013
  -2.0400000000000001E-002    -4.4674127678417941E-013
  -2.0299999999999999E-002    -2.3656920064389630E-013
  -2.0199999999999999E-002     1.5473874013182363E-014
  -2.0100000000000000E-002     3.0856700116051183E-013
  -2.0000000000000000E-002     6.4053460886032143E-013
  -1.9900000000000001E-002     1.0077116007964348E-012
  -1.9799999999999998E-002     1.4048340398961634E-012
  -1.9699999999999999E-002     1.8249624901545136E-012
  -1.9599999999999999E-002     2.2594441508733132E-012
  -1.9500000000000000E-002     2.6979204460764183E-012
  -1.9400000000000001E-002     3.1283866556292006E-012
  -1.9300000000000001E-002     3.5373062985677439E-012
  -1.9199999999999998E-002     3.9097869906912219E-012
  -1.9099999999999999E-002     4.2298178848376722E-012
  -1.9000000000000000E-002     4.4805734643327266E-012
  -1.8900000000000000E-002     4.6447780517600012E-012
  -1.8800000000000001E-002     4.7051325509361863E-012
  -1.8700000000000001E-002     4.6447984347608440E-012
  -1.8599999999999998E-002     4.4479311726852711E-012
  -1.8499999999999999E-002     4.1002552915447854E-012
  -1.8400000000000000E-002     3.5896695772114073E-012
  -1.8300000000000000E-002     2.9068694066408662E-012
  -1.8200000000000001E-002     2.0459716820048213E-012
  -1.8100000000000002E-002     1.0051246944128844E-012
  -1.7999999999999999E-002    -2.1291485013865546E-013
  -1.7899999999999999E-002    -1.6002572530982029E-012
  -1.7800000000000000E-002    -3.1434286597298300E-012
  -1.7700000000000000E-002    -4.8230135163418453E-012
  -1.7600000000000001E-002    -6.6134107738757830E-012
  -1.7499999999999998E-002    -8.4827249391405957E-012
  -1.7399999999999999E-002    -1.0392809876580422E-011
  -1.7299999999999999E-002    -1.2299480010857788E-011
  -1.7200000000000000E-002    -1.4152904542763522E-011
  -1.7100000000000001E-002    -1.5898199423602932E-011
  -1.7000000000000001E-002    -1.7476211450206947E-011
  -1.6899999999999998E-002    -1.8824516598292540E-011
  -1.6799999999999999E-002    -1.9878609175405515E-011
  -1.6700000000000000E-002    -2.0573287864977807E-011
  -1.6600000000000000E-002    -2.0844223916349769E-011
  -1.6500000000000001E-002    -2.0629687194628765E-011
  -1.6400000000000001E-002    -1.9872411008425850E-011
  -1.6299999999999999E-002    -1.8521557551554046E-011
  -1.6199999999999999E-002    -1.6534752733665670E-011
  -1.6100000000000000E-002    -1.3880149633826999E-011
  -1.6000000000000000E-002    -1.0538463331155601E-011
  -1.5900000000000001E-002    -6.5049337444333943E-012
  -1.5799999999999998E-002    -1.7911607527038020E-012
  -1.5699999999999999E-002     3.5732508531921559E-012
  -1.5599999999999999E-002     9.5392973034624795E-012
  -1.5500000000000000E-002     1.6037492514553442E-011
  -1.5400000000000000E-002     2.2977147962066624E-011
  -1.5300000000000001E-002     3.0246086885066248E-011
  -1.5199999999999998E-002     3.7710830985693278E-011
  -1.5099999999999999E-002     4.5217326410940117E-011
  -1.4999999999999999E-002     5.2592225713299356E-011
  -1.4900000000000000E-002     5.9644782168799537E-011
  -1.4800000000000001E-002     6.6169347778810561E-011
  -1.4700000000000001E-002     7.1948544344557774E-011
  -1.4599999999999998E-002     7.6756996592042270E-011
  -1.4499999999999999E-002     8.0365727961329014E-011
  -1.4400000000000000E-002     8.2547114976794234E-011
  -1.4300000000000000E-002     8.3080341217733888E-011
  -1.4200000000000001E-002     8.1757323133757609E-011
  -1.4099999999999998E-002     7.8388982804877827E-011
  -1.3999999999999999E-002     7.2811791318461161E-011
  -1.3899999999999999E-002     6.4894430107376166E-011
  -1.3800000000000000E-002     5.4544466165928895E-011
  -1.3700000000000000E-002     4.1714853793450857E-011
  -1.3600000000000001E-002     2.6410099801532638E-011
  -1.3499999999999998E-002     8.6919490702164204E-012
  -1.3399999999999999E-002    -1.1315642867160136E-011
  -1.3299999999999999E-002    -3.3422410672390157E-011
  -1.3200000000000000E-002    -5.7368752109931975E-011
  -1.3100000000000001E-002    -8.2823969904666228E-011
  -1.3000000000000001E-002    -1.0938592392983892E-010
  -1.2899999999999998E-002    -1.3658232878022147E-010
  -1.2799999999999999E-002    -1.6387376178261803E-010
  -1.2699999999999999E-002    -1.9065853062993909E-010
  -1.2600000000000000E-002    -2.1627952206948464E-010
  -1.2500000000000001E-002    -2.4003307674824725E-010
  -1.2399999999999998E-002    -2.6117988327634123E-010
  -1.2299999999999998E-002    -2.7895777354736140E-010
  -1.2199999999999999E-002    -2.9259650258239844E-010
  -1.2100000000000000E-002    -3.0133434636425704E-010
  -1.2000000000000000E-002    -3.0443622622833288E-010
  -1.1900000000000001E-002    -3.0121311000996798E-010
  -1.1799999999999998E-002    -2.9104246790367938E-010
  -1.1699999999999999E-002    -2.7338939445620269E-010
  -1.1599999999999999E-002    -2.4782798035971609E-010
  -1.1500000000000000E-002    -2.1406243444488382E-010
  -1.1400000000000000E-002    -1.7194737300663121E-010
  -1.1300000000000001E-002    -1.2150691564016824E-010
  -1.1199999999999998E-002    -6.2951859003401722E-011
  -1.1099999999999999E-002     3.3056281236593099E-012
  -1.0999999999999999E-002     7.6640367663305398E-011
  -1.0900000000000000E-002     1.5620614524092247E-010
  -1.0800000000000001E-002     2.4093194106455940E-010
  -1.0699999999999998E-002     3.2952282569276292E-010
  -1.0599999999999998E-002     4.2046605086554223E-010
  -1.0499999999999999E-002     5.1204263051829457E-010
  -1.0400000000000000E-002     6.0234472964992847E-010
  -1.0300000000000000E-002     6.8929911778425890E-010
  -1.0200000000000001E-002     7.7069661763573549E-010
  -1.0099999999999998E-002     8.4422735469047439E-010
  -9.9999999999999985E-003     9.0752194648047180E-010
  -9.8999999999999991E-003     9.5819785439488214E-010
  -9.7999999999999997E-003     9.9391039842799955E-010
  -9.7000000000000003E-003     1.0124079352635817E-009
  -9.6000000000000009E-003     1.0115900339613404E-009
  -9.4999999999999980E-003     9.8956776106717825E-010
  -9.3999999999999986E-003     9.4472485390184602E-010
  -9.2999999999999992E-003     8.7577878282729671E-010
  -9.1999999999999998E-003     7.8183942653353711E-010
  -9.1000000000000004E-003     6.6246497176791763E-010
  -9.0000000000000011E-003     5.1771265052735771E-010
  -8.8999999999999982E-003     3.4818306571260393E-010
  -8.7999999999999988E-003     1.5505673134352804E-010
  -8.6999999999999994E-003    -5.9879254332706466E-011
  -8.5999999999999965E-003    -2.9421509672999946E-010
  -8.5000000000000006E-003    -5.4491444689830359E-010
  -8.3999999999999977E-003    -8.0832401883057514E-010
  -8.3000000000000018E-003    -1.0801971539464716E-009
  -8.1999999999999990E-003    -1.3557321931756405E-009
  -8.0999999999999961E-003    -1.6296262117521110E-009
  -8.0000000000000002E-003    -1.8961436865083670E-009
  -7.8999999999999973E-003    -2.1492003732248577E-009
  -7.8000000000000014E-003    -2.3824608952338622E-009
  -7.6999999999999985E-003    -2.5894497657219517E-009
  -7.6000000000000026E-003    -2.7636748445303283E-009
  -7.4999999999999997E-003    -2.8987598987839647E-009
  -7.3999999999999969E-003    -2.9885856012157319E-009
  -7.3000000000000009E-003    -3.0274363016502548E-009
  -7.1999999999999981E-003    -3.0101490189338165E-009
  -7.1000000000000021E-003    -2.9322630989980780E-009
  -6.9999999999999993E-003    -2.7901660981655141E-009
  -6.8999999999999964E-003    -2.5812330051167010E-009
  -6.8000000000000005E-003    -2.3039559149395927E-009
  -6.6999999999999976E-003    -1.9580606025471070E-009
  -6.6000000000000017E-003    -1.5446063317270387E-009
  -6.4999999999999988E-003    -1.0660655691552279E-009
  -6.3999999999999960E-003    -5.2638149394823586E-010
  -6.3000000000000000E-003     6.9000201385893689E-011
  -6.1999999999999972E-003     7.1312644678300785E-010
  -6.1000000000000013E-003     1.3975621770967450E-009
  -5.9999999999999984E-003     2.1124459959054320E-009
  -5.9000000000000025E-003     2.8465778623143478E-009
  -5.7999999999999996E-003     3.5875387105477330E-009
  -5.6999999999999967E-003     4.3218419953916509E-009
  -5.6000000000000008E-003     5.0351141034354896E-009
  -5.4999999999999979E-003     5.7123061836250599E-009
  -5.4000000000000020E-003     6.3379306247668410E-009
  -5.2999999999999992E-003     6.8963226240725817E-009
  -5.1999999999999963E-003     7.3719208515399259E-009
  -5.1000000000000004E-003     7.7495645456338025E-009
  -4.9999999999999975E-003     8.0148030434656903E-009
  -4.9000000000000016E-003     8.1542115282218219E-009
  -4.7999999999999987E-003     8.1557063325021772E-009
  -4.6999999999999958E-003     8.0088558007673782E-009
  -4.5999999999999999E-003     7.7051849345366463E-009
  -4.4999999999999971E-003     7.2384604976605260E-009
  -4.4000000000000011E-003     6.6049521407762768E-009
  -4.2999999999999983E-003     5.8036682126783035E-009
  -4.2000000000000023E-003     4.8365573768194281E-009
  -4.0999999999999995E-003     3.7086711479616952E-009
  -3.9999999999999966E-003     2.4282809096831670E-009
  -3.9000000000000007E-003     1.0069476363838703E-009
  -3.7999999999999978E-003    -5.4046112030192717E-010
  -3.7000000000000019E-003    -2.1958102003338809E-009
  -3.5999999999999990E-003    -3.9377949789809463E-009
  -3.4999999999999962E-003    -5.7420983523570612E-009
  -3.4000000000000002E-003    -7.5816091182900891E-009
  -3.2999999999999974E-003    -9.4267029737693520E-009
  -3.2000000000000015E-003    -1.1245581355012746E-008
  -3.0999999999999986E-003    -1.3004670229577187E-008
  -2.9999999999999957E-003    -1.4669073955531076E-008
  -2.8999999999999998E-003    -1.6203079766796691E-008
  -2.7999999999999969E-003    -1.7570712884662498E-008
  -2.7000000000000010E-003    -1.8736326268253833E-008
  -2.5999999999999981E-003    -1.9665227668497209E-008
  -2.5000000000000022E-003    -2.0324334215615636E-008
  -2.3999999999999994E-003    -2.0682842105657073E-008
  -2.2999999999999965E-003    -2.0712905168807083E-008
  -2.2000000000000006E-003    -2.0390311661344640E-008
  -2.0999999999999977E-003    -1.9695146846743228E-008
  -2.0000000000000018E-003    -1.8612430707776184E-008
  -1.8999999999999989E-003    -1.7132716578771578E-008
  -1.7999999999999960E-003    -1.5252640039875587E-008
  -1.7000000000000001E-003    -1.2975409191540166E-008
  -1.5999999999999973E-003    -1.0311219433845054E-008
  -1.5000000000000013E-003    -7.2775767634425392E-009
  -1.3999999999999985E-003    -3.8995238149652778E-009
  -1.2999999999999956E-003    -2.0975780834486812E-010
  -1.1999999999999997E-003     3.7513752104700870E-009
  -1.0999999999999968E-003     7.9360171767461907E-009
  -1.0000000000000009E-003     1.2289071094073734E-008
  -8.9999999999999802E-004     1.6748620268458581E-008
  -8.0000000000000210E-004     2.1246494341653488E-008
  -6.9999999999999923E-004     2.5708985162964382E-008
  -5.9999999999999637E-004     3.0057712763209565E-008
  -5.0000000000000044E-004     3.4210639654475017E-008
  -3.9999999999999758E-004     3.8083221909346321E-008
  -3.0000000000000165E-004     4.1589693466903555E-008
  -1.9999999999999879E-004     4.4644462349197056E-008
  -9.9999999999995925E-005     4.7163617011847236E-008
   0.0000000000000000          4.9066507301631646E-008
   1.0000000000000286E-004     5.0277389362918257E-008
   1.9999999999999879E-004     5.0727106071235539E-008
   3.0000000000000165E-004     5.0354767466842532E-008
   4.0000000000000452E-004     4.9109424082871556E-008
   5.0000000000000044E-004     4.6951662113769999E-008
   6.0000000000000331E-004     4.3855113318613803E-008
   6.9999999999999923E-004     3.9807851237583236E-008
   8.0000000000000210E-004     3.4813613325468395E-008
   8.9999999999999802E-004     2.8892825909565545E-008
   1.0000000000000009E-003     2.2083403550254843E-008
   1.1000000000000038E-003     1.4441284612587424E-008
   1.1999999999999997E-003     6.0406710744587144E-009
   1.3000000000000025E-003    -3.0260478567356586E-009
   1.3999999999999985E-003    -1.2648710523421869E-008
   1.5000000000000013E-003    -2.2700156421251450E-008
   1.6000000000000042E-003    -3.3037359514764830E-008
   1.7000000000000001E-003    -4.3502936364347988E-008
   1.8000000000000030E-003    -5.3927010412735399E-008
   1.8999999999999989E-003    -6.4129437760129804E-008
   2.0000000000000018E-003    -7.3922365118050948E-008
   2.1000000000000046E-003    -8.3113093296560692E-008
   2.2000000000000006E-003    -9.1507224908582430E-008
   2.3000000000000034E-003    -9.8912003920759162E-008
   2.3999999999999994E-003    -1.0513987547255965E-007
   2.5000000000000022E-003    -1.1001215227679495E-007
   2.5999999999999981E-003    -1.1336274496898113E-007
   2.7000000000000010E-003    -1.1504186403499261E-007
   2.8000000000000039E-003    -1.1491965778986923E-007
   2.8999999999999998E-003    -1.1288970824807620E-007
   3.0000000000000027E-003    -1.0887227119837917E-007
   3.0999999999999986E-003    -1.0281721785077025E-007
   3.2000000000000015E-003    -9.4706614106598863E-008
   3.3000000000000043E-003    -8.4556845081351639E-008
   3.4000000000000002E-003    -7.2420220931235235E-008
   3.5000000000000031E-003    -5.8386046219993659E-008
   3.5999999999999990E-003    -4.2581032033695010E-008
   3.7000000000000019E-003    -2.5169072159769712E-008
   3.7999999999999978E-003    -6.3503526881447669E-009
   3.9000000000000007E-003     1.3640264029390892E-008
   4.0000000000000036E-003     3.4535538873115001E-008
   4.0999999999999995E-003     5.6038860662965817E-008
   4.2000000000000023E-003     7.7827891686865769E-008
   4.2999999999999983E-003     9.9558882027395157E-008
   4.4000000000000011E-003     1.2087153322681843E-007
   4.5000000000000040E-003     1.4139438064830756E-007
   4.5999999999999999E-003     1.6075061637366161E-007
   4.7000000000000028E-003     1.7856427803053521E-007
   4.7999999999999987E-003     1.9446665078248770E-007
   4.9000000000000016E-003     2.0810283274386165E-007
   5.0000000000000044E-003     2.1913838565978949E-007
   5.1000000000000004E-003     2.2726584347765311E-007
   5.2000000000000032E-003     2.3221102196657739E-007
   5.2999999999999992E-003     2.3373904411982949E-007
   5.4000000000000020E-003     2.3165995344243129E-007
   5.4999999999999979E-003     2.2583373038287391E-007
   5.6000000000000008E-003     2.1617468348722468E-007
   5.7000000000000037E-003     2.0265513001049840E-007
   5.7999999999999996E-003     1.8530820966589090E-007
   5.9000000000000025E-003     1.6422980309016566E-007
   5.9999999999999984E-003     1.3957949818177440E-007
   6.1000000000000013E-003     1.1158054036286558E-007
   6.2000000000000041E-003     8.0518766765180771E-008
   6.3000000000000000E-003     4.6740506576270491E-008
   6.4000000000000029E-003     1.0649396919859555E-008
   6.4999999999999988E-003    -2.7297785365476557E-008
   6.6000000000000017E-003    -6.6596285819287004E-008
   6.7000000000000046E-003    -1.0669946703956157E-007
   6.8000000000000005E-003    -1.4702571604630066E-007
   6.9000000000000034E-003    -1.8696619008551352E-007
   6.9999999999999993E-003    -2.2589316017729288E-007
   7.1000000000000021E-003    -2.6316899948142236E-007
   7.1999999999999981E-003    -2.9815555535606109E-007
   7.3000000000000009E-003    -3.3022379852809536E-007
   7.4000000000000038E-003    -3.5876377069143928E-007
   7.4999999999999997E-003    -3.8319450368362595E-007
   7.6000000000000026E-003    -4.0297379655385157E-007
   7.6999999999999985E-003    -4.1760779367905343E-007
   7.8000000000000014E-003    -4.2666016497605597E-007
   7.9000000000000042E-003    -4.2976080294465646E-007
   8.0000000000000002E-003    -4.2661372390284669E-007
   8.1000000000000030E-003    -4.1700423025758937E-007
   8.1999999999999990E-003    -4.0080522012431175E-007
   8.3000000000000018E-003    -3.7798238849973131E-007
   8.4000000000000047E-003    -3.4859823472288554E-007
   8.5000000000000006E-003    -3.1281493306778430E-007
   8.6000000000000035E-003    -2.7089581067230029E-007
   8.6999999999999994E-003    -2.2320544701415201E-007
   8.8000000000000023E-003    -1.7020835230141529E-007
   8.8999999999999982E-003    -1.1246613951243489E-007
   9.0000000000000011E-003    -5.0633261139410024E-008
   9.1000000000000039E-003     1.4548827920179974E-008
   9.1999999999999998E-003     8.2258956979330833E-008
   9.3000000000000027E-003     1.5160495081545378E-007
   9.3999999999999986E-003     2.2163375490436010E-007
   9.5000000000000015E-003     2.9134281476217438E-007
   9.6000000000000044E-003     3.5969276268588146E-007
   9.7000000000000003E-003     4.2562106727928040E-007
   9.8000000000000032E-003     4.8805674168761470E-007
   9.8999999999999991E-003     5.4593579079664778E-007
   1.0000000000000002E-002     5.9821718423336279E-007
   1.0100000000000005E-002     6.4389934095743229E-007
   1.0200000000000001E-002     6.8203678438294446E-007
   1.0300000000000004E-002     7.1175668381329160E-007
   1.0400000000000000E-002     7.3227505481554545E-007
   1.0500000000000002E-002     7.4291244800406275E-007
   1.0599999999999998E-002     7.4310889885964571E-007
   1.0700000000000001E-002     7.3243757015006850E-007
   1.0800000000000004E-002     7.1061720063880784E-007
   1.0900000000000000E-002     6.7752284849120770E-007
   1.1000000000000003E-002     6.3319464516098378E-007
   1.1099999999999999E-002     5.7784450291364919E-007
   1.1200000000000002E-002     5.1186049176976667E-007
   1.1300000000000004E-002     4.3580868691606156E-007
   1.1400000000000000E-002     3.5043197499362577E-007
   1.1500000000000003E-002     2.5664641611911065E-007
   1.1599999999999999E-002     1.5553449372873729E-007
   1.1700000000000002E-002     4.8335280666833569E-008
   1.1800000000000005E-002    -6.3568244001999119E-008
   1.1900000000000001E-002    -1.7866487667106412E-007
   1.2000000000000004E-002    -2.9533359224842570E-007
   1.2100000000000000E-002    -4.1186467569787055E-007
   1.2200000000000003E-002    -5.2648329074145295E-007
   1.2299999999999998E-002    -6.3737519440110191E-007
   1.2400000000000001E-002    -7.4271400762881967E-007
   1.2500000000000004E-002    -8.4069017702859128E-007
   1.2600000000000000E-002    -9.2954093133812421E-007
   1.2700000000000003E-002    -1.0075805221276823E-006
   1.2799999999999999E-002    -1.0732306918725953E-006
   1.2900000000000002E-002    -1.1250504030613229E-006
   1.3000000000000005E-002    -1.1617645441219793E-006
   1.3100000000000001E-002    -1.1822912711068057E-006
   1.3200000000000003E-002    -1.1857670187964686E-006
   1.3299999999999999E-002    -1.1715685559465783E-006
   1.3400000000000002E-002    -1.1393319709895877E-006
   1.3500000000000005E-002    -1.0889682471315609E-006
   1.3600000000000001E-002    -1.0206745173491072E-006
   1.3700000000000004E-002    -9.3494082875622553E-007
   1.3800000000000000E-002    -8.3255207528054598E-007
   1.3900000000000003E-002    -7.1458509864896769E-007
   1.3999999999999999E-002    -5.8240073030901840E-007
   1.4100000000000001E-002    -4.3763057533396932E-007
   1.4200000000000004E-002    -2.8215876568538079E-007
   1.4300000000000000E-002    -1.1809872546564293E-007
   1.4400000000000003E-002     5.2234671699125101E-008
   1.4499999999999999E-002     2.2635735774656496E-007