  -4.0000000000000001E-002     0.0000000000000000
  -3.9899999999999998E-002     0.0000000000000000
  -3.9800000000000002E-002     0.0000000000000000
  -3.9699999999999999E-002     0.0000000000000000
  -3.9600000000000003E-002     0.0000000000000000
  -3.9500000000000000E-002     0.0000000000000000
  -3.9399999999999998E-002     0.0000000000000000
  -3.9300000000000002E-002     0.0000000000000000
  -3.9199999999999999E-002     0.0000000000000000
  -3.9100000000000003E-002     0.0000000000000000
  -3.9000000000000000E-002    -5.6672753644271656E-033
  -3.8900000000000004E-002    -1.1722526900510249E-031
  -3.8800000000000001E-002    -1.2678922504974861E-030
  -3.8699999999999998E-002    -9.5408402773756229E-030
  -3.8600000000000002E-002    -5.6085902671631051E-029
  -3.8500000000000000E-002    -2.7424854814672931E-028
  -3.8400000000000004E-002    -1.1600512574890942E-027
  -3.8300000000000001E-002    -4.3594275552240503E-027
  -3.8199999999999998E-002    -1.4836862009029769E-026
  -3.8100000000000002E-002    -4.6396179294721296E-026
  -3.7999999999999999E-002    -1.3480587629527674E-025
  -3.7900000000000003E-002    -3.6718275320991297E-025
  -3.7800000000000000E-002    -9.4434824926085466E-025
  -3.7699999999999997E-002    -2.3069363509735958E-024
  -3.7600000000000001E-002    -5.3795296580715799E-024
  -3.7499999999999999E-002    -1.2024705385897036E-023
  -3.7400000000000003E-002    -2.5856801546182140E-023
  -3.7300000000000000E-002    -5.3650758330217585E-023
  -3.7200000000000004E-002    -1.0770321725514819E-022
  -3.7100000000000001E-002    -2.0966937100187330E-022
  -3.6999999999999998E-002    -3.9661535750425292E-022
  -3.6900000000000002E-002    -7.3029784061422332E-022
  -3.6799999999999999E-002    -1.3109956447784526E-021
  -3.6700000000000003E-002    -2.2975620060256579E-021
  -3.6600000000000001E-002    -3.9356845609521749E-021
  -3.6499999999999998E-002    -6.5965933250806361E-021
  -3.6400000000000002E-002    -1.0828460648011863E-020
  -3.6299999999999999E-002    -1.7422469033678271E-020
  -3.6200000000000003E-002    -2.7494614375384606E-020
  -3.6100000000000000E-002    -4.2582540613542416E-020
  -3.6000000000000004E-002    -6.4754050645517954E-020
  -3.5900000000000001E-002    -9.6719107711482845E-020
  -3.5799999999999998E-002    -1.4193098407369284E-019
  -3.5700000000000003E-002    -2.0465387980038977E-019
  -3.5600000000000000E-002    -2.8996183062889899E-019
  -3.5500000000000004E-002    -4.0362001401007663E-019
  -3.5400000000000001E-002    -5.5178308021632055E-019
  -3.5299999999999998E-002    -7.4042415214966446E-019
  -3.5200000000000002E-002    -9.7438608795327076E-019
  -3.5099999999999999E-002    -1.2559289001569992E-018
  -3.5000000000000003E-002    -1.5826263646266551E-018
  -3.4900000000000000E-002    -1.9444447805319703E-018
  -3.4799999999999998E-002    -2.3198534637088021E-018
  -3.4700000000000002E-002    -2.6708061384851974E-018
  -3.4599999999999999E-002    -2.9364740105655378E-018
  -3.4500000000000003E-002    -3.0257350704661350E-018
  -3.4400000000000000E-002    -2.8083538666435776E-018
  -3.4299999999999997E-002    -2.1052619265020798E-018
  -3.4200000000000001E-002    -6.7815833833488844E-019
  -3.4099999999999998E-002     1.7807314684421596E-018
  -3.4000000000000002E-002     5.6577516081014238E-018
  -3.3900000000000000E-002     1.1424312208339298E-017
  -3.3799999999999997E-002     1.9638786445613524E-017
  -3.3700000000000001E-002     3.0941746295007618E-017
  -3.3599999999999998E-002     4.6040750471970863E-017
  -3.3500000000000002E-002     6.5682415506116071E-017
  -3.3399999999999999E-002     9.0606710703653581E-017
  -3.3300000000000003E-002     1.2147944035707222E-016
  -3.3200000000000000E-002     1.5879993700622331E-016
  -3.3099999999999997E-002     2.0277701412493973E-016
  -3.3000000000000002E-002     2.5317245693169601E-016
  -3.2899999999999999E-002     3.0910834224644266E-016
  -3.2800000000000003E-002     3.6883732050833288E-016
  -3.2700000000000000E-002     4.2947791797970554E-016
  -3.2600000000000004E-002     4.8672127805787801E-016
  -3.2500000000000001E-002     5.3451770614510287E-016
  -3.2399999999999998E-002     5.6475815879062068E-016
  -3.2300000000000002E-002     5.6697272643121705E-016
  -3.2199999999999999E-002     5.2807459121313543E-016
  -3.2100000000000004E-002     4.3218087952373281E-016
  -3.2000000000000001E-002     2.6056731925902207E-016
  -3.1899999999999998E-002    -8.2134245450768966E-018
  -3.1800000000000002E-002    -3.9797308337195347E-016
  -3.1699999999999999E-002    -9.3421773087783025E-016
  -3.1600000000000003E-002    -1.6431334857528444E-015
  -3.1500000000000000E-002    -2.5501233425411851E-015
  -3.1399999999999997E-002    -3.6778445855489578E-015
  -3.1300000000000001E-002    -5.0436991890401468E-015
  -3.1199999999999999E-002    -6.6567561230227671E-015
  -3.1100000000000003E-002    -8.5140431488849033E-015
  -3.1000000000000000E-002    -1.0596261891472787E-014
  -3.0900000000000000E-002    -1.2863056736563908E-014
  -3.0800000000000001E-002    -1.5247807695823769E-014
  -3.0699999999999998E-002    -1.7652239465613083E-014
  -3.0600000000000002E-002    -1.9941110530408493E-014
  -3.0499999999999999E-002    -2.1937208045117243E-014
  -3.0400000000000000E-002    -2.3417162645284796E-014
  -3.0300000000000001E-002    -2.4108497384306600E-014
  -3.0200000000000001E-002    -2.3688590965100648E-014
  -3.0100000000000002E-002    -2.1786070262272764E-014
  -2.9999999999999999E-002    -1.7985362277175149E-014
  -2.9899999999999999E-002    -1.1835408412867732E-014
  -2.9800000000000000E-002    -2.8626395365624483E-015
  -2.9700000000000001E-002     9.4103573200434061E-015
  -2.9600000000000001E-002     2.5440333027053688E-014
  -2.9499999999999998E-002     4.5632673529617807E-014
  -2.9400000000000003E-002     7.0303517781672431E-014
  -2.9300000000000000E-002     9.9636085785972245E-014
  -2.9200000000000000E-002     1.3363037076625367E-013
  -2.9100000000000001E-002     1.7204734002480154E-013
  -2.8999999999999998E-002     2.1434973750383141E-013
  -2.8900000000000002E-002     2.5964037235308435E-013
  -2.8799999999999999E-002     3.0660191182793617E-013
  -2.8700000000000000E-002     3.5343936436414702E-013
  -2.8600000000000000E-002     3.9783107363966508E-013
  -2.8500000000000001E-002     4.3689181504318053E-013
  -2.8400000000000002E-002     4.6715409318665024E-013
  -2.8299999999999999E-002     4.8457115056632638E-013
  -2.8200000000000003E-002     4.8455017125428879E-013
  -2.8100000000000000E-002     4.6202023326960551E-013
  -2.8000000000000001E-002     4.1154135221183052E-013
  -2.7900000000000001E-002     3.2745965769694074E-013
  -2.7799999999999998E-002     2.0411247019826162E-013
  -2.7700000000000002E-002     3.6089905478160766E-014
  -2.7600000000000000E-002    -1.8145153348608778E-013
  -2.7500000000000000E-002    -4.5241908093116012E-013
  -2.7400000000000001E-002    -7.7936317339002970E-013
  -2.7299999999999998E-002    -1.1630114189406515E-012
  -2.7200000000000002E-002    -1.6017726424746859E-012
  -2.7099999999999999E-002    -2.0912236785991523E-012
  -2.7000000000000000E-002    -2.6235801725560393E-012
  -2.6900000000000000E-002    -3.1872189349552160E-012
  -2.6800000000000001E-002    -3.7662199747767744E-012
  -2.6700000000000002E-002    -4.3400092547551949E-012
  -2.6599999999999999E-002    -4.8831125774861928E-012
  -2.6500000000000003E-002    -5.3650729692211740E-012
  -2.6400000000000000E-002    -5.7505267908597446E-012
  -2.6300000000000000E-002    -5.9995671625179270E-012
  -2.6200000000000001E-002    -6.0683224938073987E-012
  -2.6099999999999998E-002    -5.9098945355551269E-012
  -2.6000000000000002E-002    -5.4755627115765648E-012
  -2.5899999999999999E-002    -4.7164125903387255E-012
  -2.5800000000000000E-002    -3.5852867983493519E-012
  -2.5700000000000001E-002    -2.0391104169764640E-012
  -2.5599999999999998E-002    -4.1534806057832649E-014
  -2.5500000000000002E-002     2.4340510076242827E-012
  -2.5399999999999999E-002     5.4013555780829670E-012
  -2.5300000000000000E-002     8.8577574094972356E-012
  -2.5200000000000000E-002     1.2780866642803090E-011
  -2.5100000000000001E-002     1.7125181481225660E-011
  -2.5000000000000001E-002     2.1818838402687390E-011
  -2.4899999999999999E-002     2.6760909460632476E-011
  -2.4800000000000003E-002     3.1819082091377737E-011
  -2.4700000000000000E-002     3.6828314703418741E-011
  -2.4600000000000000E-002     4.1590293708981818E-011
  -2.4500000000000001E-002     4.5874196802353495E-011
  -2.4399999999999998E-002     4.9418837078096800E-011
  -2.4299999999999999E-002     5.1936382278183757E-011
  -2.4199999999999999E-002     5.3117871212648993E-011
  -2.4100000000000000E-002     5.2640482250954079E-011
  -2.4000000000000000E-002     5.0177091648340166E-011
  -2.3900000000000001E-002     4.5407264753771770E-011
  -2.3800000000000002E-002     3.8030696647428641E-011
  -2.3699999999999999E-002     2.7782144640386974E-011
  -2.3599999999999999E-002     1.4447927229599422E-011
  -2.3500000000000000E-002    -2.1164201034068464E-012
  -2.3400000000000001E-002    -2.1967689819990532E-011
  -2.3300000000000001E-002    -4.5056205294491392E-011
  -2.3199999999999998E-002    -7.1208004770451083E-011
  -2.3099999999999999E-002    -1.0010738071830616E-010
  -2.3000000000000000E-002    -1.3128249876093179E-010
  -2.2900000000000000E-002    -1.6409311409670835E-010
  -2.2800000000000001E-002    -1.9772282422447773E-010
  -2.2700000000000001E-002    -2.3117567582442433E-010
  -2.2599999999999999E-002    -2.6327903746015124E-010
  -2.2499999999999999E-002    -2.9269334178572137E-010
  -2.2400000000000000E-002    -3.1792860011314872E-010
  -2.2300000000000000E-002    -3.3737057592020392E-010
  -2.2200000000000001E-002    -3.4931371684088219E-010
  -2.2100000000000002E-002    -3.5200489745257357E-010
  -2.1999999999999999E-002    -3.4369457280192250E-010
  -2.1899999999999999E-002    -3.2269845129384578E-010
  -2.1800000000000000E-002    -2.8746413582858565E-010
  -2.1700000000000001E-002    -2.3664739612350161E-010
  -2.1600000000000001E-002    -1.6919134149251391E-010
  -2.1499999999999998E-002    -8.4410312073401883E-011
  -2.1399999999999999E-002     1.7926195250428378E-011
  -2.1299999999999999E-002     1.3751118299598630E-010
  -2.1200000000000000E-002     2.7342322850287815E-010
  -2.1100000000000001E-002     4.2405701172754107E-010
  -2.1000000000000001E-002     5.8706745020842277E-010
  -2.0899999999999998E-002     7.5932898857544728E-010
  -2.0799999999999999E-002     9.3691365776749080E-010
  -2.0700000000000000E-002     1.1150941281456994E-009
  -2.0600000000000000E-002     1.2883725197809781E-009
  -2.0500000000000001E-002     1.4505380230289688E-009
  -2.0400000000000001E-002     1.5947609899313875E-009
  -2.0299999999999999E-002     1.7137141705703129E-009
  -2.0199999999999999E-002     1.7997353607412947E-009
  -2.0100000000000000E-002     1.8450158068006317E-009
  -2.0000000000000000E-002     1.8418374603257348E-009
  -1.9900000000000001E-002     1.7828172271805443E-009
  -1.9799999999999998E-002     1.6612001774163332E-009
  -1.9699999999999999E-002     1.4711578621984245E-009
  -1.9599999999999999E-002     1.2081070588365606E-009
  -1.9500000000000000E-002     8.6903417795269888E-010
  -1.9400000000000001E-002     4.5280593163887772E-010
  -1.9300000000000001E-002    -3.9519901240403499E-011
  -1.9199999999999998E-002    -6.0442545413152970E-010
  -1.9099999999999999E-002    -1.2356955458869834E-009
  -1.9000000000000000E-002    -1.9242312188083588E-009
  -1.8900000000000000E-002    -2.6579396461556826E-009
  -1.8800000000000001E-002    -3.4216869337910794E-009
  -1.8700000000000001E-002    -4.1973429176778154E-009
  -1.8599999999999998E-002    -4.9639390375944004E-009
  -1.8499999999999999E-002    -5.6979074791740913E-009
  -1.8400000000000000E-002    -6.3734626465361544E-009
  -1.8300000000000000E-002    -6.9630607946180589E-009
  -1.8200000000000001E-002    -7.4380088754821827E-009
  -1.8100000000000002E-002    -7.7691728606055221E-009
  -1.7999999999999999E-002    -7.9277597819782386E-009
  -1.7899999999999999E-002    -7.8862543162472321E-009
  -1.7800000000000000E-002    -7.6193469311647277E-009
  -1.7700000000000000E-002    -7.1049877092832503E-009
  -1.7600000000000001E-002    -6.3254135262980071E-009
  -1.7499999999999998E-002    -5.2682138651505284E-009
  -1.7399999999999999E-002    -3.9273446716947547E-009
  -1.7299999999999999E-002    -2.3040593877254878E-009
  -1.7200000000000000E-002    -4.0777761722843309E-010
  -1.7100000000000001E-002     1.7432110199777640E-009
  -1.7000000000000001E-002     4.1212424584102791E-009
  -1.6899999999999998E-002     6.6889298544481335E-009
  -1.6799999999999999E-002     9.3991241456592434E-009
  -1.6700000000000000E-002     1.2195092935485263E-008
  -1.6600000000000000E-002     1.5011030640721401E-008
  -1.6500000000000001E-002     1.7772913807334589E-008
  -1.6400000000000001E-002     2.0399593125830506E-008
  -1.6299999999999999E-002     2.2804311328172844E-008
  -1.6199999999999999E-002     2.4896449346556437E-008
  -1.6100000000000000E-002     2.6583711232319729E-008
  -1.6000000000000000E-002     2.7774381905487644E-008
  -1.5900000000000001E-002     2.8380039651665356E-008
  -1.5799999999999998E-002     2.8318188682874279E-008
  -1.5699999999999999E-002     2.7515335787597905E-008
  -1.5599999999999999E-002     2.5909814738156456E-008
  -1.5500000000000000E-002     2.3454690634139297E-008
  -1.5400000000000000E-002     2.0120708654758346E-008
  -1.5300000000000001E-002     1.5898748984000122E-008
  -1.5199999999999998E-002     1.0802172489832174E-008
  -1.5099999999999999E-002     4.8687751608156304E-009
  -1.4999999999999999E-002    -1.8378514266004231E-009
  -1.4900000000000000E-002    -9.2273815255339287E-009
  -1.4800000000000001E-002    -1.7182523848191522E-008
  -1.4700000000000001E-002    -2.5559579341916105E-008
  -1.4599999999999998E-002    -3.4189561404218693E-008
  -1.4499999999999999E-002    -4.2880259343291982E-008
  -1.4400000000000000E-002    -5.1419029034605046E-008
  -1.4300000000000000E-002    -5.9576471755917737E-008
  -1.4200000000000001E-002    -6.7110676127413171E-008
  -1.4099999999999998E-002    -7.3772419284523494E-008
  -1.3999999999999999E-002    -7.9310780165542383E-008
  -1.3899999999999999E-002    -8.3479683610221400E-008
  -1.3800000000000000E-002    -8.6044074976143747E-008
  -1.3700000000000000E-002    -8.6787366626595031E-008
  -1.3600000000000001E-002    -8.5518358616809564E-008
  -1.3499999999999998E-002    -8.2077917795686517E-008
  -1.3399999999999999E-002    -7.6346360344814457E-008
  -1.3299999999999999E-002    -6.8249207174631010E-008
  -1.3200000000000000E-002    -5.7763131167121173E-008
  -1.3100000000000001E-002    -4.4920771102852086E-008
  -1.3000000000000001E-002    -2.9814614777023962E-008
  -1.2899999999999998E-002    -1.2599496557186285E-008
  -1.2799999999999999E-002     6.5059411191725758E-009
  -1.2699999999999999E-002     2.7219471121497918E-008
  -1.2600000000000000E-002     4.9196934526207770E-008
  -1.2500000000000001E-002     7.2035710729778657E-008
  -1.2399999999999998E-002     9.5279524714442232E-008
  -1.2299999999999998E-002     1.1842536906669920E-007
  -1.2199999999999999E-002     1.4093150468852400E-007
  -1.2100000000000000E-002     1.6222726628711825E-007
  -1.2000000000000000E-002     1.8172433158269996E-007
  -1.1900000000000001E-002     1.9882881474586611E-007
  -1.1799999999999998E-002     2.1295470276072592E-007
  -1.1699999999999999E-002     2.2353773942995758E-007
  -1.1599999999999999E-002     2.3004987781405362E-007
  -1.1500000000000000E-002     2.3201401688766055E-007
  -1.1400000000000000E-002     2.2901825502685824E-007
  -1.1300000000000001E-002     2.2072968874908838E-007
  -1.1199999999999998E-002     2.0690762880803959E-007
  -1.1099999999999999E-002     1.8741522467280447E-007
  -1.0999999999999999E-002     1.6222989529524057E-007
  -1.0900000000000000E-002     1.3145161403826933E-007
  -1.0800000000000001E-002     9.5309296455070580E-008
  -1.0699999999999998E-002     5.4164900120667880E-008
  -1.0599999999999998E-002     8.5146352191145525E-009
  -1.0499999999999999E-002    -4.1012444995658370E-008
  -1.0400000000000000E-002    -9.3658613309344219E-008
  -1.0300000000000000E-002    -1.4854465746338974E-007
  -1.0200000000000001E-002    -2.0468002048801281E-007
  -1.0099999999999998E-002    -2.6097589511664410E-007
  -9.9999999999999985E-003    -3.1626103691451135E-007
  -9.8999999999999991E-003    -3.6930012470293150E-007
  -9.7999999999999997E-003    -4.1881489210027212E-007
  -9.7000000000000003E-003    -4.6350706384146179E-007
  -9.6000000000000009E-003    -5.0208336688228883E-007
  -9.4999999999999980E-003    -5.3328164995036786E-007
  -9.3999999999999986E-003    -5.5589833891644957E-007
  -9.2999999999999992E-003    -5.6881782484197174E-007
  -9.1999999999999998E-003    -5.7103807193925604E-007
  -9.1000000000000004E-003    -5.6170131301769288E-007
  -9.0000000000000011E-003    -5.4011900374462130E-007
  -8.8999999999999982E-003    -5.0579882326928782E-007
  -8.7999999999999988E-003    -4.5846798002457945E-007
  -8.6999999999999994E-003    -3.9809370377952291E-007
  -8.5999999999999965E-003    -3.2490268608853512E-007
  -8.5000000000000006E-003    -2.3939469429024030E-007
  -8.3999999999999977E-003    -1.4235345702218183E-007
  -8.3000000000000018E-003    -3.4852504882110225E-008
  -8.1999999999999990E-003     8.1743401381118019E-008
  -8.0999999999999961E-003     2.0578306703100679E-007
  -8.0000000000000002E-003     3.3533925147821719E-007
  -7.8999999999999973E-003     4.6822526655887486E-007
  -7.8000000000000014E-003     6.0201648466318147E-007
  -7.6999999999999985E-003     7.3408062917224015E-007
  -7.6000000000000026E-003     8.6161145418373053E-007
  -7.4999999999999997E-003     9.8167299711349187E-007
  -7.3999999999999969E-003     1.0912444849964231E-006
  -7.3000000000000009E-003     1.1872759841935476E-006
  -7.1999999999999981E-003     1.2667478586081415E-006
  -7.1000000000000021E-003     1.3267302847452811E-006
  -6.9999999999999993E-003     1.3644545333590941E-006
  -6.8999999999999964E-003     1.3773818636764190E-006
  -6.8000000000000005E-003     1.3632746913572191E-006
  -6.6999999999999976E-003     1.3202662785261055E-006
  -6.6000000000000017E-003     1.2469337207221542E-006
  -6.4999999999999988E-003     1.1423671821830794E-006
  -6.3999999999999960E-003     1.0062278761324706E-006
  -6.3000000000000000E-003     8.3880996726293233E-007
  -6.1999999999999972E-003     6.4108309061339241E-007
  -6.1000000000000013E-003     4.1473728629171092E-007
  -5.9999999999999984E-003     1.6220344889461558E-007
  -5.9000000000000025E-003    -1.1333339955399424E-007
  -5.7999999999999996E-003    -4.0793594280330581E-007
  -5.6999999999999967E-003    -7.1693699510433362E-007
  -5.6000000000000008E-003    -1.0349781405238900E-006
  -5.4999999999999979E-003    -1.3560672869061818E-006
  -5.4000000000000020E-003    -1.6736556744945119E-006
  -5.2999999999999992E-003    -1.9807371245406102E-006
  -5.1999999999999963E-003    -2.2699614419252612E-006
  -5.1000000000000004E-003    -2.5337726583529729E-006
  -4.9999999999999975E-003    -2.7645587579172570E-006
  -4.9000000000000016E-003    -2.9548166367021622E-006
  -4.7999999999999987E-003    -3.0973333196016029E-006
  -4.6999999999999958E-003    -3.1853696782491170E-006
  -4.5999999999999999E-003    -3.2128566544997739E-006
  -4.4999999999999971E-003    -3.1745830710860901E-006
  -4.4000000000000011E-003    -3.0663882171211299E-006
  -4.2999999999999983E-003    -2.8853394269390265E-006
  -4.2000000000000023E-003    -2.6298987449990818E-006
  -4.0999999999999995E-003    -2.3000641249382170E-006
  -3.9999999999999966E-003    -1.8974999420606764E-006
  -3.9000000000000007E-003    -1.4256198710427270E-006
  -3.7999999999999978E-003    -8.8964446831596433E-007
  -3.7000000000000019E-003    -2.9662265887964168E-007
  -3.5999999999999990E-003     3.4459930020602769E-007
  -3.4999999999999962E-003     1.0234448382107075E-006
  -3.4000000000000002E-003     1.7277251345149125E-006
  -3.2999999999999974E-003     2.4438043055852177E-006
  -3.2000000000000015E-003     3.1568156373396050E-006
  -3.0999999999999986E-003     3.8509151636390015E-006
  -2.9999999999999957E-003     4.5095853238308337E-006
  -2.8999999999999998E-003     5.1159709073544946E-006
  -2.7999999999999969E-003     5.6532549024268519E-006
  -2.7000000000000010E-003     6.1050445765431505E-006
  -2.5999999999999981E-003     6.4557939367659856E-006
  -2.5000000000000022E-003     6.6912125475937501E-006
  -2.3999999999999994E-003     6.7986902649863623E-006
  -2.2999999999999965E-003     6.7676933213078883E-006
  -2.2000000000000006E-003     6.5901567722903565E-006
  -2.0999999999999977E-003     6.2608050939161330E-006
  -2.0000000000000018E-003     5.7774655033426825E-006
  -1.8999999999999989E-003     5.1413039727776777E-006
  -1.7999999999999960E-003     4.3569921217567753E-006
  -1.7000000000000001E-003     3.4328190849919338E-006
  -1.5999999999999973E-003     2.3806865101505537E-006
  -1.5000000000000013E-003     1.2160667210991960E-006
  -1.3999999999999985E-003    -4.2186119486586904E-008
  -1.2999999999999956E-003    -1.3720564311370254E-006
  -1.1999999999999997E-003    -2.7487242277857149E-006
  -1.0999999999999968E-003    -4.1449861782894004E-006
  -1.0000000000000009E-003    -5.5317559599643573E-006
  -8.9999999999999802E-004    -6.8786207521043252E-006
  -8.0000000000000210E-004    -8.1545049397391267E-006
  -6.9999999999999923E-004    -9.3283169917413034E-006
  -5.9999999999999637E-004    -1.0369674782850780E-005
  -5.0000000000000044E-004    -1.1249621820752509E-005
  -3.9999999999999758E-004    -1.1941349839617033E-005
  -3.0000000000000165E-004    -1.2420910024957266E-005
  -1.9999999999999879E-004    -1.2667848750425037E-005
  -9.9999999999995925E-005    -1.2665859685512260E-005
   0.0000000000000000         -1.2403274922689889E-005
   1.0000000000000286E-004    -1.1873527000716422E-005
   1.9999999999999879E-004    -1.1075505426560994E-005
   3.0000000000000165E-004    -1.0013770406658296E-005
   4.0000000000000452E-004    -8.6986556198098697E-006
   5.0000000000000044E-004    -7.1462654887000099E-006
   6.0000000000000331E-004    -5.3783110161020886E-006
   6.9999999999999923E-004    -3.4218110158690251E-006
   8.0000000000000210E-004    -1.3086938679407467E-006
   8.9999999999999802E-004     9.2472453161462909E-007
   1.0000000000000009E-003     3.2384195947088301E-006
   1.1000000000000038E-003     5.5893688113428652E-006
   1.1999999999999997E-003     7.9323872341774404E-006
   1.3000000000000025E-003     1.0220991498499643E-005
   1.3999999999999985E-003     1.2408358088578098E-005
   1.5000000000000013E-003     1.4448249203269370E-005
   1.6000000000000042E-003     1.6295965906465426E-005
   1.7000000000000001E-003     1.7909271264215931E-005
   1.8000000000000030E-003     1.9249266188126057E-005
   1.8999999999999989E-003     2.0281240722397342E-005
   2.0000000000000018E-003     2.0975361621822231E-005
   2.1000000000000046E-003     2.1307372662704438E-005
   2.2000000000000006E-003     2.1259071218082681E-005
   2.3000000000000034E-003     2.0818772100028582E-005
   2.3999999999999994E-003     1.9981551304226741E-005
   2.5000000000000022E-003     1.8749429727904499E-005
   2.5999999999999981E-003     1.7131411368609406E-005
   2.7000000000000010E-003     1.5143357813940383E-005
   2.8000000000000039E-003     1.2807762686861679E-005
   2.8999999999999998E-003     1.0153490620723460E-005
   3.0000000000000027E-003     7.2152561187976971E-006
   3.0999999999999986E-003     4.0331910895474721E-006
   3.2000000000000015E-003     6.5220734768445254E-007
   3.3000000000000043E-003    -2.8786389520973898E-006
   3.4000000000000002E-003    -6.5067961259046569E-006
   3.5000000000000031E-003    -1.0176981049880851E-005
   3.5999999999999990E-003    -1.3831868272973225E-005
   3.7000000000000019E-003    -1.7412859961041249E-005
   3.7999999999999978E-003    -2.0860798031208105E-005
   3.9000000000000007E-003    -2.4116650820360519E-005
   4.0000000000000036E-003    -2.7122310712002218E-005
   4.0999999999999995E-003    -2.9821147109032609E-005
   4.2000000000000023E-003    -3.2158790418179706E-005
   4.2999999999999983E-003    -3.4083735954482108E-005
   4.4000000000000011E-003    -3.5547953302739188E-005
   4.5000000000000040E-003    -3.6507561162579805E-005
   4.5999999999999999E-003    -3.6923451261827722E-005
   4.7000000000000028E-003    -3.6761928640771657E-005
   4.7999999999999987E-003    -3.5995366488350555E-005
   4.9000000000000016E-003    -3.4602810046635568E-005
   5.0000000000000044E-003    -3.2570671464782208E-005
   5.1000000000000004E-003    -2.9893459213781171E-005
   5.2000000000000032E-003    -2.6574329240247607E-005
   5.2999999999999992E-003    -2.2625841666013002E-005
   5.4000000000000020E-003    -1.8070522855850868E-005
   5.4999999999999979E-003    -1.2941514796693809E-005
   5.6000000000000008E-003    -7.2829602686397266E-006
   5.7000000000000037E-003    -1.1505458132887725E-006
   5.7999999999999996E-003     5.3883541113464162E-006
   5.9000000000000025E-003     1.2254490684426855E-005
   5.9999999999999984E-003     1.9356946722837165E-005
   6.1000000000000013E-003     2.6593350412440486E-005
   6.2000000000000041E-003     3.3850596082629636E-005
   6.3000000000000000E-003     4.1005750972544774E-005
   6.4000000000000029E-003     4.7927260311553255E-005
   6.4999999999999988E-003     5.4476491641253233E-005
   6.6000000000000017E-003     6.0509762988658622E-005
   6.7000000000000046E-003     6.5880529291462153E-005
   6.8000000000000005E-003     7.0442016294691712E-005
   6.9000000000000034E-003     7.4050229159183800E-005
   6.9999999999999993E-003     7.6566953794099391E-005
   7.1000000000000021E-003     7.7863354817964137E-005
   7.1999999999999981E-003     7.7823489846196026E-005
   7.3000000000000009E-003     7.6347896538209170E-005
   7.4000000000000038E-003     7.3357296059839427E-005
   7.4999999999999997E-003     6.8796187406405807E-005
   7.6000000000000026E-003     6.2635925132781267E-005
   7.6999999999999985E-003     5.4878193623153493E-005
   7.8000000000000014E-003     4.5557120756711811E-005
   7.9000000000000042E-003     3.4741537092486396E-005
   8.0000000000000002E-003     2.2536505639436655E-005
   8.1000000000000030E-003     9.0837693278444931E-006
   8.1999999999999990E-003    -5.4383299357141368E-006
   8.3000000000000018E-003    -2.0815790776396170E-005
   8.4000000000000047E-003    -3.6801084206672385E-005
   8.5000000000000006E-003    -5.3115971240913495E-005
   8.6000000000000035E-003    -6.9455447373911738E-005
   8.6999999999999994E-003    -8.5492632933892310E-005
   8.8000000000000023E-003    -1.0088449926115572E-004
   8.8999999999999982E-003    -1.1527827882673591E-004
   9.0000000000000011E-003    -1.2831884669139981E-004
   9.1000000000000039E-003    -1.3965660764370114E-004
   9.1999999999999998E-003    -1.4895531057845801E-004
   9.3000000000000027E-003    -1.5590099792461842E-004
   9.3999999999999986E-003    -1.6021008195821196E-004
   9.5000000000000015E-003    -1.6163772670552135E-004
   9.6000000000000044E-003    -1.5998572052922100E-004
   9.7000000000000003E-003    -1.5510947559960186E-004
   9.8000000000000032E-003    -1.4692489639855921E-004
   9.8999999999999991E-003    -1.3541300722863525E-004
   1.0000000000000002E-002    -1.2062469613738358E-004
   1.0100000000000005E-002    -1.0268265032209456E-004
   1.0200000000000001E-002    -8.1783007772173733E-005
   1.0300000000000004E-002    -5.8194575103698298E-005
   1.0400000000000000E-002    -3.2256586564471945E-005
   1.0500000000000002E-002    -4.3743539208662696E-006
   1.0599999999999998E-002     2.4986045900732279E-005
   1.0700000000000001E-002     5.5305652495007962E-005
   1.0800000000000004E-002     8.6021384049672633E-005
   1.0900000000000000E-002     1.1653655383270234E-004
   1.1000000000000003E-002     1.4623238530475646E-004
   1.1099999999999999E-002     1.7448056314606220E-004
   1.1200000000000002E-002     2.0065681019332260E-004
   1.1300000000000004E-002     2.2415390412788838E-004
   1.1400000000000000E-002     2.4439609842374921E-004
   1.1500000000000003E-002     2.6085207355208695E-004
   1.1599999999999999E-002     2.7304820832796395E-004
   1.1700000000000002E-002     2.8058045427314937E-004
   1.1800000000000005E-002     2.8312488575465977E-004
   1.1900000000000001E-002     2.8044739156030118E-004
   1.2000000000000004E-002     2.7241097996011376E-004
   1.2100000000000000E-002     2.5898151216097176E-004
   1.2200000000000003E-002     2.4023116566240788E-004
   1.2299999999999998E-002     2.1633904543705285E-004
   1.2400000000000001E-002     1.8759115482680500E-004
   1.2500000000000004E-002     1.5437591355293989E-004
   1.2600000000000000E-002     1.1717896995833144E-004
   1.2700000000000003E-002     7.6575306593440473E-005
   1.2799999999999999E-002     3.3218984754057601E-005
   1.2900000000000002E-002    -1.2167853128630668E-005
   1.3000000000000005E-002    -5.8809007896343246E-005
   1.3100000000000001E-002    -1.0588818258838728E-004
   1.3200000000000003E-002    -1.5256440383382142E-004
   1.3299999999999999E-002    -1.9798813445959240E-004
   1.3400000000000002E-002    -2.4131714599207044E-004
   1.3500000000000005E-002    -2.8173305327072740E-004
   1.3600000000000001E-002    -3.1845623743720353E-004
   1.3700000000000004E-002    -3.5076116910204291E-004
   1.3800000000000000E-002    -3.7798937410116196E-004
   1.3900000000000003E-002    -3.9956235559657216E-004
   1.3999999999999999E-002    -4.1499146027490497E-004
   1.4100000000000001E-002    -4.2388710426166654E-004
   1.4200000000000004E-002    -4.2596561252139509E-004
   1.4300000000000000E-002    -4.2105390457436442E-004
   1.4400000000000003E-002    -4.0909185190685093E-004
   1.4499999999999999E-002    -3.9013396599330008E-004