  -8.0000000000000002E-002     3.2281956626015879E-004
  -7.9579999999999998E-002     4.0625636733217316E-004
  -7.9160000000000008E-002     4.4959559700982266E-004
  -7.8740000000000004E-002     3.1259771922571822E-004
  -7.8320000000000001E-002    -1.4330462046320026E-004
  -7.7899999999999997E-002    -9.8221800172316760E-004
  -7.7480000000000007E-002    -2.1330471778769847E-003
  -7.7060000000000003E-002    -3.3636624893400298E-003
  -7.6640000000000000E-002    -4.3041089005473945E-003
  -7.6219999999999996E-002    -4.5194183315312841E-003
  -7.5800000000000006E-002    -3.6181902902253779E-003
  -7.5380000000000003E-002    -1.3715508062001041E-003
  -7.4959999999999999E-002     2.1882348967100567E-003
  -7.4539999999999995E-002     6.7173295339000329E-003
  -7.4120000000000005E-002     1.1576118679052325E-002
  -7.3700000000000002E-002     1.5913878881267114E-002
  -7.3279999999999998E-002     1.8809135121216628E-002
  -7.2860000000000008E-002     1.9438711039928436E-002
  -7.2440000000000004E-002     1.7241652255341869E-002
  -7.2020000000000001E-002     1.2044560520096607E-002
  -7.1599999999999997E-002     4.1230959801521316E-003
  -7.1180000000000007E-002    -5.8117677293829731E-003
  -7.0760000000000003E-002    -1.6699552757047220E-002
  -7.0340000000000000E-002    -2.7270417218702544E-002
  -6.9919999999999996E-002    -3.6213341711812570E-002
  -6.9500000000000006E-002    -4.2343724348801168E-002
  -6.9080000000000003E-002    -4.4744447984027803E-002
  -6.8659999999999999E-002    -4.2863266843380342E-002
  -6.8239999999999995E-002    -3.6558734666743753E-002
  -6.7820000000000005E-002    -2.6096459823924764E-002
  -6.7400000000000002E-002    -1.2104080483799434E-002
  -6.6979999999999998E-002     4.5041163186351971E-003
  -6.6560000000000008E-002     2.2621618898067828E-002
  -6.6140000000000004E-002     4.1054837999271898E-002
  -6.5720000000000001E-002     5.8631782182614847E-002
  -6.5299999999999997E-002     7.4308114740715178E-002
  -6.4879999999999993E-002     8.7266318398258061E-002
  -6.4460000000000003E-002     9.6997414534731832E-002
  -6.4040000000000000E-002    0.10335538875655423
  -6.3619999999999996E-002    0.10657406801656530
  -6.3200000000000006E-002    0.10723782786171954
  -6.2780000000000002E-002    0.10620450296911195
  -6.2359999999999999E-002    0.10448664442176112
  -6.1940000000000002E-002    0.10310840966502449
  -6.1520000000000005E-002    0.10296563899129774
  -6.1100000000000002E-002    0.10470902475255298
  -6.0679999999999998E-002    0.10868491819002213
  -6.0260000000000001E-002    0.11494031001106086
  -5.9840000000000004E-002    0.12330207351545289
  -5.9420000000000001E-002    0.13350615946534675
  -5.8999999999999997E-002    0.14535583536372351
  -5.8580000000000000E-002    0.15887171527089541
  -5.8160000000000003E-002    0.17439310914381284
  -5.7740000000000000E-002    0.19260723670245061
  -5.7319999999999996E-002    0.21449768937048785
  -5.6899999999999999E-002    0.24121907834651807
  -5.6480000000000002E-002    0.27392285442224085
  -5.6059999999999999E-002    0.31357396280535865
  -5.5640000000000002E-002    0.36080269430842909
  -5.5220000000000005E-002    0.41582373078711576
  -5.4800000000000001E-002    0.47845263521339976
  -5.4379999999999998E-002    0.54819451487820259
  -5.3960000000000001E-002    0.62442971748345677
  -5.3540000000000004E-002    0.70659936130540668
  -5.3120000000000001E-002    0.79441288939478372
  -5.2699999999999997E-002    0.88800629622014671
  -5.2280000000000000E-002    0.98798676779879546
  -5.1860000000000003E-002     1.0954450252743704
  -5.1440000000000000E-002     1.2118313128505704
  -5.1019999999999996E-002     1.3388320455956559
  -5.0599999999999999E-002     1.4781790015669611
  -5.0180000000000002E-002     1.6315117468747431
  -4.9759999999999999E-002     1.8002196922007858
  -4.9340000000000002E-002     1.9854532376142533
  -4.8920000000000005E-002     2.1880794264051104
  -4.8500000000000001E-002     2.4087684212033942
  -4.8079999999999998E-002     2.6480883155388275
  -4.7660000000000001E-002     2.9066511364835801
  -4.7239999999999997E-002     3.1852034200869395
  -4.6820000000000001E-002     3.4847294639728124
  -4.6399999999999997E-002     3.8065034537059406
  -4.5980000000000000E-002     4.1521620109061903
  -4.5560000000000003E-002     4.5237511710261593
  -4.5140000000000000E-002     4.9236097191196935
  -4.4720000000000003E-002     5.3543290457383881
  -4.4299999999999999E-002     5.8188254541824316
  -4.3880000000000002E-002     6.3200395976303660
  -4.3459999999999999E-002     6.8608234471237974
  -4.3040000000000002E-002     7.4439725419217240
  -4.2619999999999998E-002     8.0717066072070995
  -4.2200000000000001E-002     8.7459192709797762
  -4.1779999999999998E-002     9.4677521612519087
  -4.1360000000000001E-002     10.237800423491212
  -4.0939999999999997E-002     11.056039515081252
  -4.0520000000000000E-002     11.922060825565630
  -4.0099999999999997E-002     12.835251771566821
  -3.9680000000000000E-002     13.794997697088597
  -3.9260000000000003E-002     14.800931506224085
  -3.8840000000000000E-002     15.853062817117824
  -3.8420000000000003E-002     16.952132592179211
  -3.7999999999999999E-002     18.099018539033672
  -3.7580000000000002E-002     19.295028385561494
  -3.7159999999999999E-002     20.541613242066614
  -3.6740000000000002E-002     21.839994090139257
  -3.6319999999999998E-002     23.190916331980254
  -3.5900000000000001E-002     24.594155657355646
  -3.5479999999999998E-002     26.048455206117882
  -3.5060000000000001E-002     27.551662354434335
  -3.4639999999999997E-002     29.100361780389584
  -3.4220000000000000E-002     30.690381068555020
  -3.3799999999999997E-002     32.316286859197625
  -3.3380000000000000E-002     33.972357400438689
  -3.2960000000000003E-002     35.651657843310375
  -3.2539999999999999E-002     37.347171807240841
  -3.2120000000000003E-002     39.051451456695446
  -3.1699999999999999E-002     40.756100868413895
  -3.1280000000000002E-002     42.452654849198517
  -3.0859999999999999E-002     44.131136717257100
  -3.0440000000000002E-002     45.782245866038849
  -3.0019999999999998E-002     47.394763264310328
  -2.9600000000000001E-002     48.957314450693566
  -2.9179999999999998E-002     50.456835708620105
  -2.8760000000000001E-002     51.879731116287559
  -2.8339999999999997E-002     53.211353943143628
  -2.7920000000000000E-002     54.436220223771571
  -2.7499999999999997E-002     55.536655749615065
  -2.7080000000000000E-002     56.494292733107351
  -2.6659999999999996E-002     57.291585567271213
  -2.6239999999999999E-002     57.908122136377351
  -2.5820000000000003E-002     58.324386331299962
  -2.5399999999999999E-002     58.520387714350164
  -2.4980000000000002E-002     58.474415430937796
  -2.4559999999999998E-002     58.167231478233916
  -2.4140000000000002E-002     57.577485953373639
  -2.3719999999999998E-002     56.685537482727767
  -2.3300000000000001E-002     55.469970810229484
  -2.2879999999999998E-002     53.911212428828001
  -2.2460000000000001E-002     51.989132538750845
  -2.2039999999999997E-002     49.683185897211750
  -2.1620000000000000E-002     46.973787951134490
  -2.1199999999999997E-002     43.840410655521630
  -2.0780000000000000E-002     40.264451441731936
  -2.0359999999999996E-002     36.225406837329544
  -1.9939999999999999E-002     31.710199623788682
  -1.9519999999999996E-002     26.702909185178953
  -1.9099999999999999E-002     21.191755044900432
  -1.8680000000000002E-002     15.165804786083648
  -1.8259999999999998E-002     8.6191746461563028
  -1.7840000000000002E-002     1.5477848576304325
  -1.7420000000000005E-002    -6.0489738806654465
  -1.7000000000000001E-002    -14.167706866709437
  -1.6579999999999998E-002    -22.803119106717489
  -1.6159999999999994E-002    -31.947033663696601
  -1.5740000000000004E-002    -41.590372273025871
  -1.5320000000000000E-002    -51.717518692303621
  -1.4899999999999997E-002    -62.308569171467610
  -1.4479999999999993E-002    -73.341649650473855
  -1.4060000000000003E-002    -84.791039751590773
  -1.3639999999999999E-002    -96.619855829108204
  -1.3219999999999996E-002    -108.79722123141117
  -1.2799999999999992E-002    -121.28066665473861
  -1.2380000000000002E-002    -134.02660811711095
  -1.1959999999999998E-002    -146.98387792345213
  -1.1539999999999995E-002    -160.09665564151382
  -1.1120000000000005E-002    -173.30703148367954
  -1.0700000000000001E-002    -186.55118438847913
  -1.0279999999999997E-002    -199.76154261281391
  -9.8599999999999938E-003    -212.86839216201477
  -9.4400000000000039E-003    -225.79541280337497
  -9.0200000000000002E-003    -238.47128063571458
  -8.5999999999999965E-003    -250.81555211088036
  -8.1799999999999928E-003    -262.74629212086245
  -7.7600000000000030E-003    -274.17429991472034
  -7.3399999999999993E-003    -285.02023872992629
  -6.9199999999999956E-003    -295.19533359282116
  -6.4999999999999919E-003    -304.61056646956160
  -6.0800000000000021E-003    -313.18025207710275
  -5.6599999999999984E-003    -320.82034324659980
  -5.2399999999999947E-003    -327.43892824310296
  -4.8200000000000048E-003    -332.95661976227132
  -4.4000000000000011E-003    -337.28830816918440
  -3.9799999999999974E-003    -340.35566316648942
  -3.5599999999999937E-003    -342.08341262473550
  -3.1400000000000039E-003    -342.40337586356623
  -2.7200000000000002E-003    -341.25006885199042
  -2.2999999999999965E-003    -338.56994958619487
  -1.8799999999999928E-003    -334.30270686665301
  -1.4600000000000030E-003    -328.41031412926719
  -1.0399999999999993E-003    -320.86182254062953
  -6.1999999999999555E-004    -311.61815792565892
  -1.9999999999999185E-004    -300.67060430524032
   2.1999999999999797E-004    -288.00356216205756
   6.4000000000000168E-004    -273.62130772180672
   1.0600000000000054E-003    -257.52777403006365
   1.4799999999999952E-003    -239.74541435014811
   1.8999999999999989E-003    -220.30328878193208
   2.3200000000000026E-003    -199.24551442190466
   2.7400000000000063E-003    -176.62297608747593
   3.1599999999999961E-003    -152.50303328760270
   3.5799999999999998E-003    -126.96358950740296
   4.0000000000000036E-003    -100.08421765052651
   4.4200000000000073E-003    -71.969284465021488
   4.8399999999999971E-003    -42.721374914288859
   5.2600000000000008E-003    -12.460767231044350
   5.6800000000000045E-003     18.687632664807722
   6.1000000000000082E-003     50.583941249730856
   6.5199999999999980E-003     83.091349023131386
   6.9400000000000017E-003     116.05654038822456
   7.3600000000000054E-003     149.32353202926546
   7.7799999999999953E-003     182.72762622864764
   8.1999999999999990E-003     216.10265998914042
   8.6200000000000027E-003     249.27715280728370
   9.0400000000000064E-003     282.07841842544889
   9.4599999999999962E-003     314.32928025041718
   9.8799999999999999E-003     345.85415588655582
   1.0300000000000004E-002     376.47733192484935
   1.0720000000000007E-002     406.03171646894856
   1.1139999999999997E-002     434.34178696281833
   1.1560000000000001E-002     461.24313850158433
   1.1980000000000005E-002     486.57653799164865
   1.2400000000000008E-002     510.18582501068795
   1.2819999999999998E-002     531.93055675459323
   1.3240000000000002E-002     551.67369711813933
   1.3660000000000005E-002     569.28266930998916
   1.4079999999999995E-002     584.65204072422853
   1.4499999999999999E-002     597.66894955842315
   1.4920000000000003E-002     608.24448521621457
   1.5340000000000006E-002     616.30755846533134
   1.5759999999999996E-002     621.78928384720882
   1.6180000000000000E-002     624.64591164698834
   1.6600000000000004E-002     624.84306793760697
   1.7020000000000007E-002     622.36407034103547
   1.7439999999999997E-002     617.20132048551523
   1.7860000000000001E-002     609.36568856343069
   1.8280000000000005E-002     598.89428390725493
   1.8700000000000008E-002     585.82956895967868
   1.9119999999999998E-002     570.23734617874118
   1.9540000000000002E-002     552.18435862648369
   1.9960000000000006E-002     531.76080238832230
   2.0380000000000009E-002     509.07260495250358
   2.0799999999999999E-002     484.23410146432695
   2.1220000000000003E-002     457.37390028527676
   2.1640000000000006E-002     428.63651800150183
   2.2059999999999996E-002     398.16735001394670
   2.2480000000000000E-002     366.12928541483507
   2.2900000000000004E-002     332.69596137021927
   2.3320000000000007E-002     298.03948632550276
   2.3739999999999997E-002     262.35328308527539
   2.4160000000000001E-002     225.81394494633992
   2.4580000000000005E-002     188.61560207313047
   2.5000000000000008E-002     150.95177501186214
   2.5419999999999998E-002     113.02477160587858
   2.5840000000000002E-002     75.016443690949487
   2.6260000000000006E-002     37.131410516286621
   2.6680000000000009E-002   -0.44435932470740624
   2.7099999999999999E-002    -37.524742189225464
   2.7520000000000003E-002    -73.934774174447838
   2.7940000000000006E-002    -109.49857503405741
   2.8359999999999996E-002    -144.05133303221484
   2.8780000000000000E-002    -177.42720336643910
   2.9200000000000004E-002    -209.47925969082067
   2.9620000000000007E-002    -240.07645085968090
   3.0039999999999997E-002    -269.08326296484472
   3.0460000000000001E-002    -296.38095889518610
   3.0880000000000005E-002    -321.86366465204912
   3.1300000000000008E-002    -345.44288392719363
   3.1719999999999998E-002    -367.03914532216879
   3.2140000000000002E-002    -386.58762484974591
   3.2560000000000006E-002    -404.03832405333583
   3.2980000000000009E-002    -419.34830810997818
   3.3399999999999999E-002    -432.49298768099584
   3.3820000000000003E-002    -443.46164793369348
   3.4240000000000007E-002    -452.25564175499960
   3.4659999999999996E-002    -458.88918840817530
   3.5080000000000000E-002    -463.38619050386251
   3.5500000000000004E-002    -465.78372643800122
   3.5920000000000007E-002    -466.12837520540222
   3.6339999999999997E-002    -464.48225270362173
   3.6760000000000001E-002    -460.91011300788944
   3.7180000000000005E-002    -455.48956181803084
   3.7600000000000008E-002    -448.30609311915077
   3.8019999999999998E-002    -439.45357042781825
   3.8440000000000002E-002    -429.03524385744709
   3.8860000000000006E-002    -417.15439794500583
   3.9280000000000009E-002    -403.92411623239462
   3.9699999999999999E-002    -389.45773308185989
   4.0120000000000003E-002    -373.87357293623438
   4.0540000000000007E-002    -357.28808954431565
   4.0960000000000010E-002    -339.82323296866389
   4.1380000000000000E-002    -321.59954987922589
   4.1800000000000004E-002    -302.73829092208285
   4.2220000000000008E-002    -283.35628497655205
   4.2639999999999997E-002    -263.57231353505949
   4.3060000000000001E-002    -243.50436367868366
   4.3480000000000005E-002    -223.26358333352994
   4.3900000000000008E-002    -202.96085562751244
   4.4319999999999998E-002    -182.70062280947764
   4.4740000000000002E-002    -162.58546159117100
   4.5159999999999992E-002    -142.70906175870948
   4.5579999999999996E-002    -123.15979767008523
   4.5999999999999999E-002    -104.02099321535006
   4.6420000000000003E-002    -85.367381153184553
   4.6840000000000007E-002    -67.268499128645331
   4.7260000000000010E-002    -49.786653920884454
   4.7680000000000014E-002    -32.975470012748197
   4.8099999999999990E-002    -16.884642704959894
   4.8519999999999994E-002    -1.5571400369228243
   4.8939999999999997E-002     12.969046741789846
   4.9360000000000001E-002     26.664820955634831
   4.9780000000000005E-002     39.505095668613194
   5.0200000000000009E-002     51.472822984981875
   5.0620000000000012E-002     62.553449963750225
   5.1040000000000016E-002     72.741809982200408
   5.1459999999999992E-002     82.037330635000416
   5.1879999999999996E-002     90.442155455004709
   5.2299999999999999E-002     97.966887875417896
   5.2720000000000003E-002     104.62720276279148
   5.3140000000000007E-002     110.44180626621699
   5.3560000000000010E-002     115.43117143102506
   5.3980000000000014E-002     119.62121743455145
   5.4400000000000018E-002     123.03873289915134
   5.4819999999999994E-002     125.71938847127856
   5.5239999999999997E-002     127.69606109726813
   5.5660000000000001E-002     129.00285065471746
   5.6080000000000005E-002     129.67859450330243
   5.6500000000000009E-002     129.76219191242802
   5.6920000000000012E-002     129.28992250489429
   5.7340000000000016E-002     128.30206926614807
   5.7759999999999992E-002     126.83748936165682
   5.8179999999999996E-002     124.93439290203875
   5.8599999999999999E-002     122.63369996175661
   5.9020000000000003E-002     119.97237814361591
   5.9440000000000007E-002     116.98933662710529
   5.9860000000000010E-002     113.72428889864322
   6.0280000000000014E-002     110.21087745735467
   6.0700000000000018E-002     106.48827897905532
   6.1119999999999994E-002     102.58947993725295
   6.1539999999999997E-002     98.548222429669394
   6.1960000000000001E-002     94.394340486147343
   6.2380000000000005E-002     90.159072873041481
   6.2800000000000009E-002     85.868192252680089
   6.3220000000000012E-002     81.547645908318728
   6.3640000000000016E-002     77.220767792816588
   6.4059999999999992E-002     72.908003784343748
   6.4479999999999996E-002     68.629806145675005
   6.4899999999999999E-002     64.405656656469475
   6.5320000000000003E-002     60.252052976615659
   6.5740000000000007E-002     56.184706041035227
   6.6160000000000010E-002     52.217774615585611
   6.6580000000000014E-002     48.364026075081554
   6.7000000000000018E-002     44.632022272554181
   6.7419999999999994E-002     41.030850801579639
   6.7839999999999998E-002     37.567887136990137
   6.8260000000000001E-002     34.245437592714502
   6.8680000000000005E-002     31.068414256570200
   6.9100000000000009E-002     28.038524397491582
   6.9520000000000012E-002     25.158034958240144
   6.9940000000000016E-002     22.428024939752071
   7.0359999999999992E-002     19.848853136971183
   7.0779999999999996E-002     17.420688729842151
   7.1199999999999999E-002     15.142616410854114
   7.1620000000000003E-002     13.013246598312513
   7.2040000000000007E-002     11.030665708957414
   7.2460000000000011E-002     9.1918989222150440
   7.2880000000000014E-002     7.4911665365202404
   7.3300000000000018E-002     5.9238186814665408
   7.3719999999999994E-002     4.4846414141968181
   7.4139999999999998E-002     3.1684286636912113
   7.4560000000000001E-002     1.9690808476986024
   7.4980000000000005E-002    0.88111147225786945
   7.5400000000000009E-002   -0.10001473669938798
   7.5820000000000012E-002   -0.97944761922043933
   7.6240000000000016E-002    -1.7616953275378058
   7.6659999999999992E-002    -2.4521614071952462
   7.7079999999999996E-002    -3.0555954509510945
   7.7499999999999999E-002    -3.5785543916838258
   7.7920000000000003E-002    -4.0255457359633340
   7.8340000000000007E-002    -4.4039026044173308
   7.8760000000000011E-002    -4.7188854356573362
   7.9180000000000014E-002    -4.9762111035882821
   7.9600000000000018E-002    -5.1805347463959004
   8.0019999999999994E-002    -5.3369051371689569
   8.0439999999999998E-002    -5.4489510037070001
   8.0860000000000001E-002    -5.5203156324619034
   8.1280000000000005E-002    -5.5545255159190887
   8.1700000000000009E-002    -5.5540353407601897
   8.2120000000000012E-002    -5.5220903760810014
   8.2540000000000016E-002    -5.4619136520467952
   8.2959999999999992E-002    -5.3769637385367366
   8.3379999999999996E-002    -5.2696061123636113
   8.3799999999999999E-002    -5.1433606954275408
   8.4220000000000003E-002    -5.0010538501218820
   8.4640000000000007E-002    -4.8453799581269896
   8.5060000000000011E-002    -4.6782981601684970
   8.5480000000000014E-002    -4.5028920601410105
   8.5900000000000018E-002    -4.3207117212079478
   8.6319999999999994E-002    -4.1339709171054215
   8.6739999999999998E-002    -3.9441976429130814
   8.7160000000000001E-002    -3.7531849697783581
   8.7580000000000005E-002    -3.5618820615426756
   8.8000000000000009E-002    -3.3713068470770748
   8.8420000000000012E-002    -3.1819344947728947
   8.8840000000000016E-002    -2.9937324384721440
   8.9259999999999992E-002    -2.8074465751511721
   8.9679999999999996E-002    -2.6223653891476228
   9.0100000000000000E-002    -2.4397284780462782
   9.0520000000000003E-002    -2.2603251489445819
   9.0940000000000007E-002    -2.0854963680660767
   9.1360000000000011E-002    -1.9169581594312395
   9.1780000000000014E-002    -1.7567064593192965
   9.2200000000000018E-002    -1.6072611247718678
   9.2619999999999994E-002    -1.4695188179996177
   9.3039999999999998E-002    -1.3448915202062937
   9.3460000000000001E-002    -1.2333628643606254
   9.3880000000000005E-002    -1.1338882179138754
   9.4300000000000009E-002    -1.0456662953578673
   9.4720000000000013E-002   -0.96699577124241209
   9.5140000000000016E-002   -0.89599939753779123
   9.5559999999999992E-002   -0.83184617070353339
   9.5979999999999996E-002   -0.77438504567932376
   9.6400000000000000E-002   -0.72444433240362782
   9.6820000000000003E-002   -0.68373211615834639
   9.7240000000000007E-002   -0.65420359554843177
   9.7660000000000011E-002   -0.63843507544698763
   9.8080000000000014E-002   -0.63866551427347407
   9.8500000000000018E-002   -0.65629130192731000
   9.8919999999999994E-002   -0.69282789732553440
   9.9339999999999998E-002   -0.74721239290336949
   9.9760000000000001E-002   -0.81877023054230746
  0.10018000000000001        -0.90641441562756853
  0.10060000000000001         -1.0080512171242497
  0.10102000000000001         -1.1225886872718758
  0.10144000000000002         -1.2484100094940771
  0.10185999999999999         -1.3853320396136648
  0.10228000000000000         -1.5328228435769160
  0.10270000000000000         -1.6914859994510127
  0.10312000000000000         -1.8615637225081880
  0.10354000000000001         -2.0431597782387563
  0.10396000000000001         -2.2369651095656029
  0.10438000000000001         -2.4432840568568577
  0.10480000000000002         -2.6607763302752776
  0.10521999999999999         -2.8894334999820561
  0.10564000000000000         -3.1284972053318998
  0.10606000000000000         -3.3769967344171468
  0.10648000000000001         -3.6328528226818677
  0.10690000000000001         -3.8951045171291319
  0.10732000000000001         -4.1626963246731146
  0.10774000000000002         -4.4332189754658531
  0.10815999999999999         -4.7053483468807951
  0.10858000000000000         -4.9773906253929709
  0.10900000000000000         -5.2470947970989563
  0.10942000000000000         -5.5126000049566484
  0.10984000000000001         -5.7724479282883241
  0.11026000000000001         -6.0248172056628722
  0.11068000000000001         -6.2687587882681743
  0.11110000000000002         -6.5018028744396084
  0.11151999999999999         -6.7237190035668357
  0.11194000000000000         -6.9321933538701082
  0.11236000000000000         -7.1250447349767851
  0.11278000000000001         -7.3001406051578979
  0.11320000000000001         -7.4553012612865324
  0.11362000000000001         -7.5877773029712179
  0.11404000000000002         -7.6947441654545390
  0.11446000000000002         -7.7745020576015236
  0.11488000000000000         -7.8239856907674206
  0.11530000000000000         -7.8431488650182892
  0.11572000000000000         -7.8304367906283234
  0.11614000000000001         -7.7860847983656525
  0.11656000000000001         -7.7090163962771427
  0.11698000000000001         -7.5988376802174784
  0.11740000000000002         -7.4553629990712640
  0.11781999999999999         -7.2782865529456089
  0.11824000000000000         -7.0660394514047633
  0.11866000000000000         -6.8166209293876241
  0.11908000000000001         -6.5301658654831023
  0.11950000000000001         -6.2043804703094390
  0.11992000000000001         -5.8386175459771898
  0.12034000000000002         -5.4333869296069093
  0.12076000000000002         -4.9889016316135644
  0.12118000000000000         -4.5064258589854207
  0.12160000000000000         -3.9894414862212577
  0.12202000000000000         -3.4383164939883031
  0.12244000000000001         -2.8564318094374901
  0.12286000000000001         -2.2455821468724397
  0.12328000000000001         -1.6082943512825585
  0.12370000000000002        -0.94684831004382319
  0.12411999999999999        -0.26412499482760926
  0.12454000000000000         0.43758995961731323
  0.12496000000000000          1.1556297678176259
  0.12537999999999999          1.8861425594175543
  0.12580000000000002          2.6252670307492378
  0.12622000000000000          3.3694693256741575
  0.12664000000000003          4.1140767069516713
  0.12706000000000001          4.8560547418797499
  0.12747999999999998          5.5918621923620950
  0.12790000000000001          6.3184023381150212
  0.12831999999999999          7.0321747212733667
  0.12874000000000002          7.7311716152507657
  0.12916000000000000          8.4118694236275253
  0.12958000000000003          9.0706681598133780
  0.13000000000000000          9.7046709054956040
  0.13041999999999998          10.308964426326702
  0.13084000000000001          10.878760665531301
  0.13125999999999999          11.409891096637107
  0.13168000000000002          11.897638280182317
  0.13210000000000000          12.338014174744092
  0.13252000000000003          12.727966365455400
  0.13294000000000000          13.064672977349149
  0.13336000000000003          13.346632294792780
  0.13378000000000001          13.573104017906182
  0.13419999999999999          13.742136313009269
  0.13462000000000002          13.855012483629869
  0.13503999999999999          13.910142247075939
  0.13546000000000002          13.907385084421648
  0.13588000000000000          13.846254908745857
  0.13630000000000003          13.726413672243778
  0.13672000000000001          13.547978827972839
  0.13713999999999998          13.311565128002309
  0.13756000000000002          13.017175693211168
  0.13797999999999999          12.666374094098433
  0.13840000000000002          12.260703356157677
  0.13882000000000000          11.801995988518675
  0.13924000000000003          11.292137022838141
  0.13966000000000001          10.734102110640148
  0.14007999999999998          10.131583118027667
  0.14050000000000001          9.4861987418932951
  0.14091999999999999          8.8015586793392409
  0.14134000000000002          8.0826162613357138
  0.14176000000000000          7.3325661023152904
  0.14218000000000003          6.5542060133134594
  0.14260000000000000          5.7534584632051979
  0.14301999999999998          4.9352476508142535
  0.14344000000000001          4.1038000324631225
  0.14385999999999999          3.2644241239055534
  0.14428000000000002          2.4200176156206994
  0.14470000000000000          1.5746498693138729
  0.14512000000000003         0.73094085564514732
  0.14554000000000000        -0.10677388726825186
  0.14596000000000003        -0.93521771769123885
  0.14638000000000001         -1.7498234538325108
  0.14679999999999999         -2.5475050842838187
  0.14722000000000002         -3.3236327217986306
  0.14763999999999999         -4.0729102397561210
  0.14806000000000002         -4.7930084529772934
  0.14848000000000000         -5.4781538393270992
  0.14890000000000003         -6.1265927382392764
  0.14932000000000001         -6.7361605787019023
  0.14973999999999998         -7.3054190237723189
  0.15016000000000002         -7.8318430329245237
  0.15057999999999999         -8.3143709751921353
  0.15100000000000002         -8.7528875899346517
  0.15142000000000000         -9.1466789637394328
  0.15184000000000003         -9.4940810651990510
  0.15226000000000001         -9.7927602031589362
  0.15267999999999998         -10.041815448542117
  0.15310000000000001         -10.241782357969864
  0.15351999999999999         -10.391653786474080
  0.15394000000000002         -10.492128486483701
  0.15436000000000000         -10.544315131611654
  0.15478000000000003         -10.549868230804142
  0.15520000000000000         -10.511782959546245
  0.15561999999999998         -10.432100268628940
  0.15604000000000001         -10.313206340766484
  0.15645999999999999         -10.156894308871639
  0.15688000000000002         -9.9653122542892856
  0.15730000000000000         -9.7395302517386977
  0.15772000000000003         -9.4809095256592535
  0.15814000000000000         -9.1906110514887853
  0.15856000000000003         -8.8700688952608573
  0.15898000000000001         -8.5212825074627645
  0.15939999999999999         -8.1468244936346483
  0.15982000000000002         -7.7500704344576885
  0.16023999999999999         -7.3344535959912847
  0.16066000000000003         -6.9038901697677559
  0.16108000000000000         -6.4615573449600330
  0.16150000000000003         -6.0109600873841744
  0.16192000000000001         -5.5544914606357381
  0.16233999999999998         -5.0947019043796118
  0.16276000000000002         -4.6335238222339150
  0.16317999999999999         -4.1726859737028104
  0.16360000000000002         -3.7140777576920763
  0.16402000000000000         -3.2593861033202698
  0.16444000000000003         -2.8106616708009806
  0.16486000000000001         -2.3699621892509142
  0.16527999999999998         -1.9394845064752499
  0.16570000000000001         -1.5215868357745452
  0.16611999999999999         -1.1178827014080135
  0.16654000000000002        -0.73013303678292174
  0.16696000000000000        -0.35968340597957715
  0.16738000000000003         -7.5849174036035083E-003
  0.16780000000000000         0.32560010578144594
  0.16822000000000004         0.63941864817970484
  0.16864000000000001         0.93356500656938590
  0.16905999999999999          1.2078152218932887
  0.16948000000000002          1.4623570492730535
  0.16990000000000000          1.6969104753264248