  -8.0000000000000002E-002     0.0000000000000000
  -7.9579999999999998E-002     0.0000000000000000
  -7.9160000000000008E-002     0.0000000000000000
  -7.8740000000000004E-002     0.0000000000000000
  -7.8320000000000001E-002     0.0000000000000000
  -7.7899999999999997E-002     0.0000000000000000
  -7.7480000000000007E-002     0.0000000000000000
  -7.7060000000000003E-002     0.0000000000000000
  -7.6640000000000000E-002     0.0000000000000000
  -7.6219999999999996E-002     0.0000000000000000
  -7.5800000000000006E-002    -2.7363358027905539E-037
  -7.5380000000000003E-002    -4.7667667658817597E-036
  -7.4959999999999999E-002    -4.2551333823450179E-035
  -7.4539999999999995E-002    -2.5853857500899956E-034
  -7.4120000000000005E-002    -1.1978640522375154E-033
  -7.3700000000000002E-002    -4.4927902168362132E-033
  -7.3279999999999998E-002    -1.4127238006460701E-032
  -7.2860000000000008E-002    -3.8016758418910147E-032
  -7.2440000000000004E-002    -8.8421479495268798E-032
  -7.2020000000000001E-002    -1.7753490683640265E-031
  -7.1599999999999997E-002    -3.0208557906223099E-031
  -7.1180000000000007E-002    -4.1004370356548497E-031
  -7.0760000000000003E-002    -3.4736684707053633E-031
  -7.0340000000000000E-002     2.0220443567574869E-031
  -6.9919999999999996E-002     1.7431679507265074E-030
  -6.9500000000000006E-002     4.8812191217219030E-030
  -6.9080000000000003E-002     1.0011630392644151E-029
  -6.8659999999999999E-002     1.6673152363824921E-029
  -6.8239999999999995E-002     2.2535540544824034E-029
  -6.7820000000000005E-002     2.2187647628072831E-029
  -6.7400000000000002E-002     6.2380850243687935E-030
  -6.6979999999999998E-002    -3.8296610834567774E-029
  -6.6560000000000008E-002    -1.2488632390725829E-028
  -6.6140000000000004E-002    -2.6005288094000781E-028
  -6.5720000000000001E-002    -4.3051301229144970E-028
  -6.5299999999999997E-002    -5.8554621110659343E-028
  -6.4879999999999993E-002    -6.1866220473581636E-028
  -6.4460000000000003E-002    -3.5778187585099853E-028
  -6.4040000000000000E-002     4.2088437986041344E-028
  -6.3619999999999996E-002     1.9356524759272519E-027
  -6.3200000000000006E-002     4.2804885910437778E-027
  -6.2780000000000002E-002     7.2383439044223386E-027
  -6.2359999999999999E-002     1.0048996374245322E-026
  -6.1940000000000002E-002     1.1199749808058438E-026
  -6.1520000000000005E-002     8.3648556695791861E-027
  -6.1100000000000002E-002    -1.3294220793524743E-027
  -6.0679999999999998E-002    -2.0524012121382824E-026
  -6.0260000000000001E-002    -5.0205404216833167E-026
  -5.9840000000000004E-002    -8.7699544447669417E-026
  -5.9420000000000001E-002    -1.2445035740819762E-025
  -5.8999999999999997E-002    -1.4436203302742010E-025
  -5.8580000000000000E-002    -1.2389027628682005E-025
  -5.8160000000000003E-002    -3.5287818656071361E-026
  -5.7740000000000000E-002     1.4578578793493706E-025
  -5.7319999999999996E-002     4.2791588674068696E-025
  -5.6899999999999999E-002     7.8806281796412438E-025
  -5.6480000000000002E-002     1.1556275482304597E-024
  -5.6059999999999999E-002     1.4023697827352405E-024
  -5.5640000000000002E-002     1.3460012922805512E-024
  -5.5220000000000005E-002     7.7556545948069612E-025
  -5.4800000000000001E-002    -4.9566396714714931E-025
  -5.4379999999999998E-002    -2.5498917142537288E-024
  -5.3960000000000001E-002    -5.2665199712415547E-024
  -5.3540000000000004E-002    -8.2268763811377905E-024
  -5.3120000000000001E-002    -1.0654360176597664E-023
  -5.2699999999999997E-002    -1.1429933353598853E-023
  -5.2280000000000000E-002    -9.2222818741316143E-024
  -5.1860000000000003E-002    -2.7592858214795986E-024
  -5.1440000000000000E-002     8.7597865136138899E-024
  -5.1019999999999996E-002     2.5152280148935698E-023
  -5.0599999999999999E-002     4.4731091710986214E-023
  -5.0180000000000002E-002     6.3914120499446063E-023
  -4.9759999999999999E-002     7.7139750543708999E-023
  -4.9340000000000002E-002     7.7270783414798390E-023
  -4.8920000000000005E-002     5.6633339385297537E-023
  -4.8500000000000001E-002     8.7458343582481225E-024
  -4.8079999999999998E-002    -6.9352640511808425E-023
  -4.7660000000000001E-002    -1.7446183876231512E-022
  -4.7239999999999997E-002    -2.9477141705344790E-022
  -4.6820000000000001E-002    -4.0830677505904482E-022
  -4.6399999999999997E-002    -4.8309824086448796E-022
  -4.5980000000000000E-002    -4.7988564985609213E-022
  -4.5560000000000003E-002    -3.5795368266452427E-022
  -4.5140000000000000E-002    -8.4224242903698651E-023
  -4.4720000000000003E-002     3.5499299399999151E-022
  -4.4299999999999999E-002     9.4111277200655024E-022
  -4.3880000000000002E-002     1.6117718485435361E-021
  -4.3459999999999999E-002     2.2540962849469131E-021
  -4.3040000000000002E-002     2.7065570352563150E-021
  -4.2619999999999998E-002     2.7729583448914890E-021
  -4.2200000000000001E-002     2.2508598852571634E-021
  -4.1779999999999998E-002     9.7435485374627730E-022
  -4.1360000000000001E-002    -1.1322190269162993E-021
  -4.0939999999999997E-002    -3.9970520749226015E-021
  -4.0520000000000000E-002    -7.3514600183881158E-021
  -4.0099999999999997E-002    -1.0702467568951311E-020
  -3.9680000000000000E-002    -1.3342379289794105E-020
  -3.9260000000000003E-002    -1.4407992333826392E-020
  -3.8840000000000000E-002    -1.2996201832140313E-020
  -3.8420000000000003E-002    -8.3332141266650767E-021
  -3.7999999999999999E-002     1.7520967249360795E-023
  -3.7580000000000002E-002     1.1936752842134554E-020
  -3.7159999999999999E-002     2.6559871034228423E-020
  -3.6740000000000002E-002     4.2163182883912228E-020
  -3.6319999999999998E-002     5.6173366092077031E-020
  -3.5900000000000001E-002     6.5338829670230281E-020
  -3.5479999999999998E-002     6.6083810985081066E-020
  -3.5060000000000001E-002     5.5039787180954447E-020
  -3.4639999999999997E-002     2.9716627063939251E-020
  -3.4220000000000000E-002    -1.0758443786373102E-020
  -3.3799999999999997E-002    -6.4936239299247057E-020
  -3.3380000000000000E-002    -1.2850186318812911E-019
  -3.2960000000000003E-002    -1.9402626669476756E-019
  -3.2539999999999999E-002    -2.5114210174638589E-019
  -3.2120000000000003E-002    -2.8724661610405531E-019
  -3.1699999999999999E-002    -2.8878448898130216E-019
  -3.1280000000000002E-002    -2.4309835088549988E-019
  -3.0859999999999999E-002    -1.4074472566150292E-019
  -3.0440000000000002E-002     2.1924054489301428E-020
  -3.0019999999999998E-002     2.4021798316615246E-019
  -2.9600000000000001E-002     4.9901087079126615E-019
  -2.9179999999999998E-002     7.7155815645445958E-019
  -2.8760000000000001E-002     1.0197230058729219E-018
  -2.8339999999999997E-002     1.1960614452345312E-018
  -2.7920000000000000E-002     1.2480668436946887E-018
  -2.7499999999999997E-002     1.1246377614351960E-018
  -2.7080000000000000E-002     7.8449290131563131E-019
  -2.6659999999999996E-002     2.0584199884684993E-019
  -2.6239999999999999E-002    -6.0381510468860417E-019
  -2.5820000000000003E-002    -1.5992660682853304E-018
  -2.5399999999999999E-002    -2.6923163712509511E-018
  -2.4980000000000002E-002    -3.7514746137681783E-018
  -2.4559999999999998E-002    -4.6081384772017541E-018
  -2.4140000000000002E-002    -5.0702933243445387E-018
  -2.3719999999999998E-002    -4.9437992170145807E-018
  -2.3300000000000001E-002    -4.0602506700719895E-018
  -2.2879999999999998E-002    -2.3091494516665509E-018
  -2.2460000000000001E-002     3.2916450576614099E-019
  -2.2039999999999997E-002     3.7543023481623599E-018
  -2.1620000000000000E-002     7.7254283587066345E-018
  -2.1199999999999997E-002     1.1854873575515394E-017
  -2.0780000000000000E-002     1.5620231286681302E-017
  -2.0359999999999996E-002     1.8398109095417880E-017
  -1.9939999999999999E-002     1.9520560978615472E-017
  -1.9519999999999996E-002     1.8352663784229821E-017
  -1.9099999999999999E-002     1.4386326497153283E-017
  -1.8680000000000002E-002     7.3425140078363225E-018
  -1.8259999999999998E-002    -2.7295988956851718E-018
  -1.7840000000000002E-002    -1.5370184720397455E-017
  -1.7420000000000005E-002    -2.9658193812696843E-017
  -1.7000000000000001E-002    -4.4207961421377226E-017
  -1.6579999999999998E-002    -5.7225749572225552E-017
  -1.6159999999999994E-002    -6.6634476070898640E-017
  -1.5740000000000004E-002    -7.0267750393512297E-017
  -1.5320000000000000E-002    -6.6125018971847148E-017
  -1.4899999999999997E-002    -5.2669191340437996E-017
  -1.4479999999999993E-002    -2.9136829353812448E-017
  -1.4060000000000003E-002     4.1767875719662026E-018
  -1.3639999999999999E-002     4.5702151397720222E-017
  -1.3219999999999996E-002     9.2493011567827523E-017
  -1.2799999999999992E-002     1.4027506967598414E-016
  -1.2380000000000002E-002     1.8367001323295239E-016
  -1.1959999999999998E-002     2.1660063326216927E-016
  -1.1539999999999995E-002     2.3285859149610134E-016
  -1.1120000000000005E-002     2.2679413159123547E-016
  -1.0700000000000001E-002     1.9406453440859188E-016
  -1.0279999999999997E-002     1.3236117690077537E-016
  -9.8599999999999938E-003     4.2032351207176351E-017
  -9.4400000000000039E-003    -7.3482146463823592E-017
  -9.0200000000000002E-003    -2.0747007007285351E-016
  -8.5999999999999965E-003    -3.5006337502183281E-016
  -8.1799999999999928E-003    -4.8867550589678162E-016
  -7.7600000000000030E-003    -6.0874334183952019E-016
  -7.3399999999999993E-003    -6.9474331511671012E-016
  -6.9199999999999956E-003    -7.3142486232225344E-016
  -6.4999999999999919E-003    -7.0518901812721345E-016
  -6.0800000000000021E-003    -6.0553380478177524E-016
  -5.6599999999999984E-003    -4.2648370879027914E-016
  -5.2399999999999947E-003    -1.6790027103642116E-016
  -4.8200000000000048E-003     1.6342126361849198E-016
  -4.4000000000000011E-003     5.5298037323771875E-016
  -3.9799999999999974E-003     9.7824894561365950E-016
  -3.5599999999999937E-003     1.4089163222921481E-015
  -3.1400000000000039E-003     1.8078294531554209E-015
  -2.7200000000000002E-003     2.1326960732230711E-015
  -2.2999999999999965E-003     2.3386084461025860E-015
  -1.8799999999999928E-003     2.3813542434113990E-015
  -1.4600000000000030E-003     2.2213968800293921E-015
  -1.0399999999999993E-003     1.8283054254857008E-015
  -6.1999999999999555E-004     1.1853406180928443E-015
  -1.9999999999999185E-004     2.9379744112879668E-016
   2.1999999999999797E-004    -8.2332744864151109E-016
   6.4000000000000168E-004    -2.1188001411423085E-015
   1.0600000000000054E-003    -3.5201615977144969E-015
   1.4799999999999952E-003    -4.9306815402043895E-015
   1.8999999999999989E-003    -6.2325019975326906E-015
   2.3200000000000026E-003    -7.2921165734420483E-015
   2.7400000000000063E-003    -7.9682134528551696E-015
   3.1599999999999961E-003    -8.1216806530698173E-015
   3.5799999999999998E-003    -7.6274726217938527E-015
   4.0000000000000036E-003    -6.3876789506372449E-015
   4.4200000000000073E-003    -4.3451583961825712E-015
   4.8399999999999971E-003    -1.4966261989529866E-015
   5.2600000000000008E-003     2.0959938967468982E-015
   5.6800000000000045E-003     6.2971719190175465E-015
   6.1000000000000082E-003     1.0893919443763532E-014
   6.5199999999999980E-003     1.5597600505688354E-014
   6.9400000000000017E-003     2.0052431058836072E-014
   7.3600000000000054E-003     2.3851444732857542E-014
   7.7799999999999953E-003     2.6559561396752351E-014
   8.1999999999999990E-003     2.7743173494653167E-014
   8.6200000000000027E-003     2.7004915401978075E-014
   9.0400000000000064E-003     2.4021090906117358E-014
   9.4599999999999962E-003     1.8579252334596502E-014
   9.8799999999999999E-003     1.0612789557648587E-014
   1.0300000000000004E-002     2.2992582809126755E-016
   1.0720000000000007E-002    -1.2266037125887226E-014
   1.1139999999999997E-002    -2.6367202024909997E-014
   1.1560000000000001E-002    -4.1363553544623092E-014
   1.1980000000000005E-002    -5.6358649689059862E-014
   1.2400000000000008E-002    -7.0298699832774938E-014
   1.2819999999999998E-002    -8.2014930779033634E-014
   1.3240000000000002E-002    -9.0278447527495160E-014
   1.3660000000000005E-002    -9.3866683795018936E-014
   1.4079999999999995E-002    -9.1640394493176280E-014
   1.4499999999999999E-002    -8.2629370413934247E-014
   1.4920000000000003E-002    -6.6123669737883933E-014
   1.5340000000000006E-002    -4.1767024933218173E-014
   1.5759999999999996E-002    -9.6460895409066305E-015
   1.6180000000000000E-002     2.9628925173922063E-014
   1.6600000000000004E-002     7.4862470565033266E-014
   1.7020000000000007E-002     1.2423717191745641E-013
   1.7439999999999997E-002     1.7531299533540249E-013
   1.7860000000000001E-002     2.2506594731011955E-013
   1.8280000000000005E-002     2.6997480759754503E-013
   1.8700000000000008E-002     3.0615490349366650E-013
   1.9119999999999998E-002     3.2954424178456157E-013
   1.9540000000000002E-002     3.3612571313739315E-013
   1.9960000000000006E-002     3.2218930522190575E-013
   2.0380000000000009E-002     2.8461662722929434E-013
   2.0799999999999999E-002     2.2117788713881769E-013
   2.1220000000000003E-002     1.3082226450278822E-013
   2.1640000000000006E-002     1.3950668640461085E-014
   2.2059999999999996E-002    -1.2734476417874403E-013
   2.2480000000000000E-002    -2.8910138925005482E-013
   2.2900000000000004E-002    -4.6537333707120487E-013
   2.3320000000000007E-002    -6.4820701693328178E-013
   2.3739999999999997E-002    -8.2772766230454456E-013
   2.4160000000000001E-002    -9.9235542939053313E-013
   2.4580000000000005E-002    -1.1291486362133774E-012
   2.5000000000000008E-002    -1.2243065174114338E-012
   2.5419999999999998E-002    -1.2638215152466159E-012
   2.5840000000000002E-002    -1.2342792845687246E-012
   2.6260000000000006E-002    -1.1237681500104964E-012
   2.6680000000000009E-002    -9.2289274388856435E-013
   2.7099999999999999E-002    -6.2582065920655972E-013
   2.7520000000000003E-002    -2.3131265806227716E-013
   2.7940000000000006E-002     2.5632711147749937E-013
   2.8359999999999996E-002     8.2646549981746858E-013
   2.8780000000000000E-002     1.4615988662689920E-012
   2.9200000000000004E-002     2.1371085135459072E-012
   2.9620000000000007E-002     2.8213863863299186E-012
   3.0039999999999997E-002     3.4763996304979575E-012
   3.0460000000000001E-002     4.0587109265536228E-012
   3.0880000000000005E-002     4.5209626749017934E-012
   3.1300000000000008E-002     4.8138512376858802E-012
   3.1719999999999998E-002     4.8885544788162829E-012
   3.2140000000000002E-002     4.6995083293533581E-012
   3.2560000000000006E-002     4.2075182031008170E-012
   3.2980000000000009E-002     3.3830461930525412E-012
   3.3399999999999999E-002     2.2095102171813249E-012
   3.3820000000000003E-002     6.8646540376226721E-013
   3.4240000000000007E-002    -1.1675302942158020E-012
   3.4659999999999996E-002    -3.3126616891499546E-012
   3.5080000000000000E-002    -5.6863115345341244E-012
   3.5500000000000004E-002    -8.2023784549403228E-012
   3.5920000000000007E-002    -1.0752087346131707E-011
   3.6339999999999997E-002    -1.3205591101451600E-011
   3.6760000000000001E-002    -1.5415513052008520E-011
   3.7180000000000005E-002    -1.7221411984054631E-011
   3.7600000000000008E-002    -1.8456009877552610E-011
   3.8019999999999998E-002    -1.8952556622963783E-011
   3.8440000000000002E-002    -1.8553189698062177E-011
   3.8860000000000006E-002    -1.7118382197955825E-011
   3.9280000000000009E-002    -1.4536621365154002E-011
   3.9699999999999999E-002    -1.0734375377563875E-011
   4.0120000000000003E-002    -5.6856676368087038E-012
   4.0540000000000007E-002     5.7937221993804305E-013
   4.0960000000000010E-002     7.9670134805969302E-012
   4.1380000000000000E-002     1.6314886559820293E-011
   4.1800000000000004E-002     2.5388417260453968E-011
   4.2220000000000008E-002     3.4881394921031727E-011
   4.2639999999999997E-002     4.4418705665691378E-011
   4.3060000000000001E-002     5.3563154100477802E-011
   4.3480000000000005E-002     6.1826152111066584E-011
   4.3900000000000008E-002     6.8681747577444532E-011
   4.4319999999999998E-002     7.3584583413919520E-011
   4.4740000000000002E-002     7.5990963029778742E-011
   4.5159999999999992E-002     7.5382646023767682E-011
   4.5579999999999996E-002     7.1292908049772484E-011
   4.5999999999999999E-002     6.3334022635175330E-011
   4.6420000000000003E-002     5.1224473334672838E-011
   4.6840000000000007E-002     3.4815927027686831E-011
   4.7260000000000010E-002     1.4118159610371180E-011
   4.7680000000000014E-002    -1.0678396799906420E-011
   4.8099999999999990E-002    -3.9185531362986008E-011
   4.8519999999999994E-002    -7.0804503350930288E-011
   4.8939999999999997E-002    -1.0472021679023548E-010
   4.9360000000000001E-002    -1.3990261581672357E-010
   4.9780000000000005E-002    -1.7511613319562457E-010
   5.0200000000000009E-002    -2.0893711924424741E-010
   5.0620000000000012E-002    -2.3978233220056959E-010
   5.1040000000000016E-002    -2.6594534894491134E-010
   5.1459999999999992E-002    -2.8564254023558373E-010
   5.1879999999999996E-002    -2.9706910571146738E-010
   5.2299999999999999E-002    -2.9846209924501950E-010
   5.2720000000000003E-002    -2.8817397127585946E-010
   5.3140000000000007E-002    -2.6474629023491579E-010
   5.3560000000000010E-002    -2.2699565618320600E-010
   5.3980000000000014E-002    -1.7409632700803136E-010
   5.4400000000000018E-002    -1.0566870923752831E-010
   5.4819999999999994E-002    -2.1860692219661484E-011
   5.5239999999999997E-002     7.6565137185581594E-011
   5.5660000000000001E-002     1.8816410296389853E-010
   5.6080000000000005E-002     3.1074045688982503E-010
   5.6500000000000009E-002     4.4129471396047866E-010
   5.6920000000000012E-002     5.7598833007253774E-010
   5.7340000000000016E-002     7.1011353157320597E-010
   5.7759999999999992E-002     8.3809041485370229E-010
   5.8179999999999996E-002     9.5348806168693914E-010
   5.8599999999999999E-002     1.0490478276277646E-009
   5.9020000000000003E-002     1.1167373704692675E-009
   5.9440000000000007E-002     1.1478168402205994E-009
   5.9860000000000010E-002     1.1329113511940087E-009
   6.0280000000000014E-002     1.0620975454705992E-009
   6.0700000000000018E-002     9.2499676409262668E-010
   6.1119999999999994E-002     7.1086192739408182E-010
   6.1539999999999997E-002     4.0864964633400441E-010
   6.1960000000000001E-002     7.0989661836338804E-012
   6.2380000000000005E-002    -5.0524608172926119E-010
   6.2800000000000009E-002    -1.1400289329525536E-009
   6.3220000000000012E-002    -1.9090777170715159E-009
   6.3640000000000016E-002    -2.8245367063540061E-009
   6.4059999999999992E-002    -3.8989336911173154E-009
   6.4479999999999996E-002    -5.1454124000551447E-009
   6.4899999999999999E-002    -6.5778995851584976E-009
   6.5320000000000003E-002    -8.2115138862990170E-009
   6.5740000000000007E-002    -1.0062787351906168E-008
   6.6160000000000010E-002    -1.2150225980949265E-008
   6.6580000000000014E-002    -1.4494697526137133E-008
   6.7000000000000018E-002    -1.7119878221634771E-008
   6.7419999999999994E-002    -2.0053138770483382E-008
   6.7839999999999998E-002    -2.3325790302892794E-008
   6.8260000000000001E-002    -2.6974012557406466E-008
   6.8680000000000005E-002    -3.1039390006292200E-008
   6.9100000000000009E-002    -3.5569748942056477E-008
   6.9520000000000012E-002    -4.0620119118872237E-008
   6.9940000000000016E-002    -4.6252709029331739E-008
   7.0359999999999992E-002    -5.2538777622803927E-008
   7.0779999999999996E-002    -5.9558887909695953E-008
   7.1199999999999999E-002    -6.7403919499230998E-008
   7.1620000000000003E-002    -7.6175496209139322E-008
   7.2040000000000007E-002    -8.5987958671380081E-008
   7.2460000000000011E-002    -9.6968353611643532E-008
   7.2880000000000014E-002    -1.0925837918074535E-007
   7.3300000000000018E-002    -1.2301532919387543E-007
   7.3719999999999994E-002    -1.3841278765161496E-007
   7.4139999999999998E-002    -1.5564218131056014E-007
   7.4560000000000001E-002    -1.7491466523395659E-007
   7.4980000000000005E-002    -1.9646258516868799E-007
   7.5400000000000009E-002    -2.2053978860770041E-007
   7.5820000000000012E-002    -2.4742412186004194E-007
   7.6240000000000016E-002    -2.7742081299922358E-007
   7.6659999999999992E-002    -3.1086099601288859E-007
   7.7079999999999996E-002    -3.4810880585273313E-007
   7.7499999999999999E-002    -3.8955540783861367E-007
   7.7920000000000003E-002    -4.3563239733078839E-007
   7.8340000000000007E-002    -4.8680505659838893E-007
   7.8760000000000011E-002    -5.4357925709144187E-007
   7.9180000000000014E-002    -6.0650147196392431E-007
   7.9600000000000018E-002    -6.7615836642767619E-007
   8.0019999999999994E-002    -7.5319604271181429E-007
   8.0439999999999998E-002    -8.3829939532052310E-007
   8.0860000000000001E-002    -9.3221379234147244E-007
   8.1280000000000005E-002    -1.0357394257845349E-006
   8.1700000000000009E-002    -1.1497395190275585E-006
   8.2120000000000012E-002    -1.2751388918762103E-006
   8.2540000000000016E-002    -1.4129341803655893E-006
   8.2959999999999992E-002    -1.5641863215452781E-006
   8.3379999999999996E-002    -1.7300242509816062E-006
   8.3799999999999999E-002    -1.9116680959785880E-006
   8.4220000000000003E-002    -2.1103981511084693E-006
   8.4640000000000007E-002    -2.3276129227076952E-006
   8.5060000000000011E-002    -2.5647791228588887E-006
   8.5480000000000014E-002    -2.8234643940125089E-006
   8.5900000000000018E-002    -3.1053246703852277E-006
   8.6319999999999994E-002    -3.4121131709174269E-006
   8.6739999999999998E-002    -3.7456800690475668E-006
   8.7160000000000001E-002    -4.1079705864772795E-006
   8.7580000000000005E-002    -4.5010601183908087E-006
   8.8000000000000009E-002    -4.9270938200293741E-006
   8.8420000000000012E-002    -5.3883605016274792E-006
   8.8840000000000016E-002    -5.8872054574008125E-006
   8.9259999999999992E-002    -6.4260924415074348E-006
   8.9679999999999996E-002    -7.0075887788644321E-006
   9.0100000000000000E-002    -7.6343534110530893E-006
   9.0520000000000003E-002    -8.3091659059511421E-006
   9.0940000000000007E-002    -9.0348244723835248E-006
   9.1360000000000011E-002    -9.8143226652813341E-006
   9.1780000000000014E-002    -1.0650601604451351E-005
   9.2200000000000018E-002    -1.1546787918445919E-005
   9.2619999999999994E-002    -1.2505872163110805E-005
   9.3039999999999998E-002    -1.3531091141596397E-005
   9.3460000000000001E-002    -1.4625616506141178E-005
   9.3880000000000005E-002    -1.5792684641929342E-005
   9.4300000000000009E-002    -1.7035637968251146E-005
   9.4720000000000013E-002    -1.8357513036496292E-005
   9.5140000000000016E-002    -1.9761773068933449E-005
   9.5559999999999992E-002    -2.1251388684209693E-005
   9.5979999999999996E-002    -2.2829471166623025E-005
   9.6400000000000000E-002    -2.4498994217738985E-005
   9.6820000000000003E-002    -2.6263115867916958E-005
   9.7240000000000007E-002    -2.8124174340735439E-005
   9.7660000000000011E-002    -3.0084911411608760E-005
   9.8080000000000014E-002    -3.2147987478741723E-005
   9.8500000000000018E-002    -3.4315604917952764E-005
   9.8919999999999994E-002    -3.6589212828825118E-005
   9.9339999999999998E-002    -3.8970758329664174E-005
   9.9760000000000001E-002    -4.1461255617700267E-005
  0.10018000000000001         -4.4061680322672252E-005
  0.10060000000000001         -4.6772439574358987E-005
  0.10102000000000001         -4.9593884152086652E-005
  0.10144000000000002         -5.2525327308739685E-005
  0.10185999999999999         -5.5565952088606455E-005
  0.10228000000000000         -5.8713793089552614E-005
  0.10270000000000000         -6.1967173223875183E-005
  0.10312000000000000         -6.5322824552984927E-005
  0.10354000000000001         -6.8777374361433301E-005
  0.10396000000000001         -7.2325416479172814E-005
  0.10438000000000001         -7.5962797197549133E-005
  0.10480000000000002         -7.9683438807548175E-005
  0.10521999999999999         -8.3479236118944809E-005
  0.10564000000000000         -8.7343428509028479E-005
  0.10606000000000000         -9.1267007904689346E-005
  0.10648000000000001         -9.5240997839819605E-005
  0.10690000000000001         -9.9254644225299702E-005
  0.10732000000000001         -1.0329550154540761E-004
  0.10774000000000002         -1.0735202447276378E-004
  0.10815999999999999         -1.1141101462224151E-004
  0.10858000000000000         -1.1545719391706459E-004
  0.10900000000000000         -1.1947500773326281E-004
  0.10942000000000000         -1.2344704755613576E-004
  0.10984000000000001         -1.2735639512827701E-004
  0.11026000000000001         -1.3118373016184835E-004
  0.11068000000000001         -1.3490979337072725E-004
  0.11110000000000002         -1.3851351655873569E-004
  0.11151999999999999         -1.4197394677680525E-004
  0.11194000000000000         -1.4526823065899025E-004
  0.11236000000000000         -1.4837431485526014E-004
  0.11278000000000001         -1.5126716681897033E-004
  0.11320000000000001         -1.5392477561877588E-004
  0.11362000000000001         -1.5632037262350556E-004
  0.11404000000000002         -1.5843081359558962E-004
  0.11446000000000002         -1.6023034887897955E-004
  0.11488000000000000         -1.6169271875867357E-004
  0.11530000000000000         -1.6278874138622138E-004
  0.11572000000000000         -1.6349334854336226E-004
  0.11614000000000001         -1.6378064612811733E-004
  0.11656000000000001         -1.6362598437564250E-004
  0.11698000000000001         -1.6300308388178102E-004
  0.11740000000000002         -1.6188860129000298E-004
  0.11781999999999999         -1.6025855078911897E-004
  0.11824000000000000         -1.5808903274235926E-004
  0.11866000000000000         -1.5536337057587955E-004
  0.11908000000000001         -1.5205856603380942E-004
  0.11950000000000001         -1.4815855444740971E-004
  0.11992000000000001         -1.4364664947384416E-004
  0.12034000000000002         -1.3850331227665367E-004
  0.12076000000000002         -1.3272043962285349E-004
  0.12118000000000000         -1.2628480817382555E-004
  0.12160000000000000         -1.1918707705248944E-004
  0.12202000000000000         -1.1142342734636224E-004
  0.12244000000000001         -1.0298695823700982E-004
  0.12286000000000001         -9.3882943743501797E-005
  0.12328000000000001         -8.4113466695484842E-005
  0.12370000000000002         -7.3680157341135115E-005
  0.12411999999999999         -6.2591656260005293E-005
  0.12454000000000000         -5.0861586696077137E-005
  0.12496000000000000         -3.8510326084145595E-005
  0.12537999999999999         -2.5548188627742772E-005
  0.12580000000000002         -1.2003327498421286E-005
  0.12622000000000000          2.0990535258952044E-006
  0.12664000000000003          1.6732785457716638E-005
  0.12706000000000001          3.1857288362669833E-005
  0.12747999999999998          4.7434486637529021E-005
  0.12790000000000001          6.3433839903712295E-005
  0.12831999999999999          7.9803090991001837E-005
  0.12874000000000002          9.6497498365517035E-005
  0.12916000000000000          1.1346997207962106E-004
  0.12958000000000003          1.3066350231221048E-004
  0.13000000000000000          1.4802691034603247E-004
  0.13041999999999998          1.6550557155737511E-004
  0.13084000000000001          1.8303657168106046E-004
  0.13125999999999999          2.0055079813228742E-004
  0.13168000000000002          2.1798782350060958E-004
  0.13210000000000000          2.3527883469155731E-004
  0.13252000000000003          2.5235486447538970E-004
  0.13294000000000000          2.6914836023791738E-004
  0.13336000000000003          2.8558829345510693E-004
  0.13378000000000001          3.0160137615791669E-004
  0.13419999999999999          3.1711678684567910E-004
  0.13462000000000002          3.3206763313885614E-004
  0.13503999999999999          3.4638319062395501E-004
  0.13546000000000002          3.5999576740684217E-004
  0.13588000000000000          3.7283504432775291E-004
  0.13630000000000003          3.8483803090110869E-004
  0.13672000000000001          3.9593937234685966E-004
  0.13713999999999998          4.0607513925679917E-004
  0.13756000000000002          4.1518824733170040E-004
  0.13797999999999999          4.2322101669088564E-004
  0.13840000000000002          4.3011968177291738E-004
  0.13882000000000000          4.3583476585207524E-004
  0.13924000000000003          4.4032134529224947E-004
  0.13966000000000001          4.4353669227535669E-004
  0.14007999999999998          4.4544418359372299E-004
  0.14050000000000001          4.4601077429198507E-004
  0.14091999999999999          4.4520979454105698E-004
  0.14134000000000002          4.4301925033713693E-004
  0.14176000000000000          4.3942054666609574E-004
  0.14218000000000003          4.3440322061309277E-004
  0.14260000000000000          4.2796465578219154E-004
  0.14301999999999998          4.2010111037151134E-004
  0.14344000000000001          4.1081989309315822E-004
  0.14385999999999999          4.0013513016153181E-004
  0.14428000000000002          3.8806128023680683E-004
  0.14470000000000000          3.7461870775252278E-004
  0.14512000000000003          3.5983927676524520E-004
  0.14554000000000000          3.4375296171209869E-004
  0.14596000000000003          3.2639354665750417E-004
  0.14638000000000001          3.0780916664729441E-004
  0.14679999999999999          2.8803920347763738E-004
  0.14722000000000002          2.6713252696157784E-004
  0.14763999999999999          2.4515034190419384E-004
  0.14806000000000002          2.2215249240796541E-004
  0.14848000000000000          1.9820057642069394E-004
  0.14890000000000003          1.7336767098664714E-004