  -8.0000000000000002E-002     0.0000000000000000
  -7.9579999999999998E-002     0.0000000000000000
  -7.9160000000000008E-002     0.0000000000000000
  -7.8740000000000004E-002     0.0000000000000000
  -7.8320000000000001E-002     0.0000000000000000
  -7.7899999999999997E-002     0.0000000000000000
  -7.7480000000000007E-002     0.0000000000000000
  -7.7060000000000003E-002     0.0000000000000000
  -7.6640000000000000E-002     0.0000000000000000
  -7.6219999999999996E-002     0.0000000000000000
  -7.5800000000000006E-002     0.0000000000000000
  -7.5380000000000003E-002     0.0000000000000000
  -7.4959999999999999E-002     0.0000000000000000
  -7.4539999999999995E-002     0.0000000000000000
  -7.4120000000000005E-002     0.0000000000000000
  -7.3700000000000002E-002     0.0000000000000000
  -7.3279999999999998E-002     0.0000000000000000
  -7.2860000000000008E-002     0.0000000000000000
  -7.2440000000000004E-002     0.0000000000000000
  -7.2020000000000001E-002     0.0000000000000000
  -7.1599999999999997E-002     0.0000000000000000
  -7.1180000000000007E-002     0.0000000000000000
  -7.0760000000000003E-002     0.0000000000000000
  -7.0340000000000000E-002     0.0000000000000000
  -6.9919999999999996E-002     0.0000000000000000
  -6.9500000000000006E-002     0.0000000000000000
  -6.9080000000000003E-002     0.0000000000000000
  -6.8659999999999999E-002     0.0000000000000000
  -6.8239999999999995E-002     0.0000000000000000
  -6.7820000000000005E-002     0.0000000000000000
  -6.7400000000000002E-002     0.0000000000000000
  -6.6979999999999998E-002     0.0000000000000000
  -6.6560000000000008E-002     0.0000000000000000
  -6.6140000000000004E-002     0.0000000000000000
  -6.5720000000000001E-002     0.0000000000000000
  -6.5299999999999997E-002     0.0000000000000000
  -6.4879999999999993E-002     0.0000000000000000
  -6.4460000000000003E-002     0.0000000000000000
  -6.4040000000000000E-002     0.0000000000000000
  -6.3619999999999996E-002     0.0000000000000000
  -6.3200000000000006E-002     0.0000000000000000
  -6.2780000000000002E-002     0.0000000000000000
  -6.2359999999999999E-002     0.0000000000000000
  -6.1940000000000002E-002     0.0000000000000000
  -6.1520000000000005E-002     0.0000000000000000
  -6.1100000000000002E-002     0.0000000000000000
  -6.0679999999999998E-002     0.0000000000000000
  -6.0260000000000001E-002     0.0000000000000000
  -5.9840000000000004E-002     0.0000000000000000
  -5.9420000000000001E-002     0.0000000000000000
  -5.8999999999999997E-002     0.0000000000000000
  -5.8580000000000000E-002     0.0000000000000000
  -5.8160000000000003E-002     0.0000000000000000
  -5.7740000000000000E-002     0.0000000000000000
  -5.7319999999999996E-002     0.0000000000000000
  -5.6899999999999999E-002     0.0000000000000000
  -5.6480000000000002E-002     0.0000000000000000
  -5.6059999999999999E-002     0.0000000000000000
  -5.5640000000000002E-002     0.0000000000000000
  -5.5220000000000005E-002     0.0000000000000000
  -5.4800000000000001E-002     0.0000000000000000
  -5.4379999999999998E-002     0.0000000000000000
  -5.3960000000000001E-002     0.0000000000000000
  -5.3540000000000004E-002     0.0000000000000000
  -5.3120000000000001E-002     0.0000000000000000
  -5.2699999999999997E-002     0.0000000000000000
  -5.2280000000000000E-002     0.0000000000000000
  -5.1860000000000003E-002     0.0000000000000000
  -5.1440000000000000E-002     0.0000000000000000
  -5.1019999999999996E-002     0.0000000000000000
  -5.0599999999999999E-002     0.0000000000000000
  -5.0180000000000002E-002     0.0000000000000000
  -4.9759999999999999E-002     0.0000000000000000
  -4.9340000000000002E-002     0.0000000000000000
  -4.8920000000000005E-002     0.0000000000000000
  -4.8500000000000001E-002     0.0000000000000000
  -4.8079999999999998E-002     0.0000000000000000
  -4.7660000000000001E-002     0.0000000000000000
  -4.7239999999999997E-002     0.0000000000000000
  -4.6820000000000001E-002     0.0000000000000000
  -4.6399999999999997E-002     0.0000000000000000
  -4.5980000000000000E-002     0.0000000000000000
  -4.5560000000000003E-002     0.0000000000000000
  -4.5140000000000000E-002     0.0000000000000000
  -4.4720000000000003E-002     0.0000000000000000
  -4.4299999999999999E-002     0.0000000000000000
  -4.3880000000000002E-002     0.0000000000000000
  -4.3459999999999999E-002     0.0000000000000000
  -4.3040000000000002E-002     0.0000000000000000
  -4.2619999999999998E-002     0.0000000000000000
  -4.2200000000000001E-002     0.0000000000000000
  -4.1779999999999998E-002     0.0000000000000000
  -4.1360000000000001E-002     0.0000000000000000
  -4.0939999999999997E-002     0.0000000000000000
  -4.0520000000000000E-002     0.0000000000000000
  -4.0099999999999997E-002     0.0000000000000000
  -3.9680000000000000E-002     0.0000000000000000
  -3.9260000000000003E-002     0.0000000000000000
  -3.8840000000000000E-002     0.0000000000000000
  -3.8420000000000003E-002     0.0000000000000000
  -3.7999999999999999E-002     0.0000000000000000
  -3.7580000000000002E-002     0.0000000000000000
  -3.7159999999999999E-002     0.0000000000000000
  -3.6740000000000002E-002     0.0000000000000000
  -3.6319999999999998E-002     0.0000000000000000
  -3.5900000000000001E-002     0.0000000000000000
  -3.5479999999999998E-002     0.0000000000000000
  -3.5060000000000001E-002     0.0000000000000000
  -3.4639999999999997E-002     0.0000000000000000
  -3.4220000000000000E-002     0.0000000000000000
  -3.3799999999999997E-002     0.0000000000000000
  -3.3380000000000000E-002     0.0000000000000000
  -3.2960000000000003E-002     0.0000000000000000
  -3.2539999999999999E-002     0.0000000000000000
  -3.2120000000000003E-002     0.0000000000000000
  -3.1699999999999999E-002     0.0000000000000000
  -3.1280000000000002E-002     0.0000000000000000
  -3.0859999999999999E-002     0.0000000000000000
  -3.0440000000000002E-002     0.0000000000000000
  -3.0019999999999998E-002     0.0000000000000000
  -2.9600000000000001E-002     0.0000000000000000
  -2.9179999999999998E-002     5.9280890301494344E-043
  -2.8760000000000001E-002     0.0000000000000000
  -2.8339999999999997E-002     0.0000000000000000
  -2.7920000000000000E-002     0.0000000000000000
  -2.7499999999999997E-002    -6.0253225383238246E-043
  -2.7080000000000000E-002    -2.7145592548344339E-042
  -2.6659999999999996E-002    -4.8693429924785883E-043
  -2.6239999999999999E-002     1.1591658204866888E-043
  -2.5820000000000003E-002    -2.0787582520599221E-042
  -2.5399999999999999E-002     2.5522637010601175E-042
  -2.4980000000000002E-002     6.1326042108274888E-042
  -2.4559999999999998E-002     7.8971895155756287E-042
  -2.4140000000000002E-002     6.9710869772853065E-042
  -2.3719999999999998E-002     3.5699127178646486E-042
  -2.3300000000000001E-002    -1.2158271146037259E-041
  -2.2879999999999998E-002    -3.3659851852922397E-041
  -2.2460000000000001E-002    -4.1825164221884820E-041
  -2.2039999999999997E-002    -5.4417090840496572E-042
  -2.1620000000000000E-002     4.4226221474699696E-041
  -2.1199999999999997E-002     1.3661461089687669E-040
  -2.0780000000000000E-002     1.6392660448515940E-040
  -2.0359999999999996E-002     1.1951446738839889E-040
  -1.9939999999999999E-002     4.7828898295817546E-041
  -1.9519999999999996E-002    -1.7696869643723190E-040
  -1.9099999999999999E-002    -5.3785894572377674E-040
  -1.8680000000000002E-002    -8.7313777143489940E-040
  -1.8259999999999998E-002    -8.0862132671030925E-040
  -1.7840000000000002E-002    -1.2245693824084924E-040
  -1.7420000000000005E-002     1.0831032174534576E-039
  -1.7000000000000001E-002     2.6799595652388710E-039
  -1.6579999999999998E-002     3.6168799750300010E-039
  -1.6159999999999994E-002     3.0633081590988066E-039
  -1.5740000000000004E-002     1.1879665707739893E-040
  -1.5320000000000000E-002    -5.0966359513201426E-039
  -1.4899999999999997E-002    -1.1262511340578119E-038
  -1.4479999999999993E-002    -1.5054945528119184E-038
  -1.4060000000000003E-002    -1.2006999344671093E-038
  -1.3639999999999999E-002     4.8318107693272301E-040
  -1.3219999999999996E-002     2.2046830748874374E-038
  -1.2799999999999992E-002     4.5881994223287695E-038
  -1.2380000000000002E-002     5.9104378622284706E-038
  -1.1959999999999998E-002     4.6036250227514160E-038
  -1.1539999999999995E-002    -3.7535536907696264E-039
  -1.1120000000000005E-002    -8.6038585667527768E-038
  -1.0700000000000001E-002    -1.7465854121669767E-037
  -1.0279999999999997E-002    -2.2197713631530632E-037
  -9.8599999999999938E-003    -1.7261289727471510E-037
  -9.4400000000000039E-003     8.8875433607862005E-039
  -9.0200000000000002E-003     3.0535598614127138E-037
  -8.5999999999999965E-003     6.2294601767806649E-037
  -8.1799999999999928E-003     7.9558549710923894E-037
  -7.7600000000000030E-003     6.3515434916595347E-037
  -7.3399999999999993E-003     2.2113690962203122E-038
  -6.9199999999999956E-003    -9.8508031498404747E-037
  -6.4999999999999919E-003    -2.0751719929712680E-036
  -6.0800000000000021E-003    -2.7073032814829710E-036
  -5.6599999999999984E-003    -2.2695328617115565E-036
  -5.2399999999999947E-003    -3.6987105376996973E-037
  -4.8200000000000048E-003     2.8308301311021423E-036
  -4.4000000000000011E-003     6.3972085592237622E-036
  -3.9799999999999974E-003     8.6859155016954836E-036
  -3.5599999999999937E-003     7.8170410134622469E-036
  -3.1400000000000039E-003     2.5139416072710237E-036
  -2.7200000000000002E-003    -6.9323243142529396E-036
  -2.2999999999999965E-003    -1.8004588189971580E-035
  -1.8799999999999928E-003    -2.6087490187788624E-035
  -1.4600000000000030E-003    -2.5700427481498155E-035
  -1.0399999999999993E-003    -1.2748716282902512E-035
  -6.1999999999999555E-004     1.2831413291819207E-035
  -1.9999999999999185E-004     4.5139725282537067E-035
   2.1999999999999797E-004     7.2332433824784192E-035
   6.4000000000000168E-004     7.9440486578048564E-035
   1.0600000000000054E-003     5.3858773334081463E-035
   1.4799999999999952E-003    -7.9181400337227192E-036
   1.8999999999999989E-003    -9.4863993151028183E-035
   2.3200000000000026E-003    -1.8021271759167149E-034
   2.7400000000000063E-003    -2.2658449680455646E-034
   3.1599999999999961E-003    -1.9754746137880868E-034
   3.5799999999999998E-003    -7.3053181071893867E-035
   4.0000000000000036E-003     1.3620350694236905E-034
   4.4200000000000073E-003     3.8147581093190125E-034
   4.8399999999999971E-003     5.8068694858550199E-034
   5.2600000000000008E-003     6.3709495785161352E-034
   5.6800000000000045E-003     4.6947479794331453E-034
   6.1000000000000082E-003     4.7044155816340151E-035
   6.5199999999999980E-003    -5.8069407811929337E-034
   6.9400000000000017E-003    -1.2699138984102313E-033
   7.3600000000000054E-003    -1.7935777897802751E-033
   7.7799999999999953E-003    -1.8835179681560154E-033
   8.1999999999999990E-003    -1.3038414374944098E-033
   8.6200000000000027E-003     5.1876122387414089E-035
   9.0400000000000064E-003     2.0580901279224937E-033
   9.4599999999999962E-003     4.2814037411704192E-033
   9.8799999999999999E-003     5.9757151321182067E-033
   1.0300000000000004E-002     6.1963617160131924E-033
   1.0720000000000007E-002     4.0648039286641925E-033
   1.1139999999999997E-002    -8.3061417228018770E-034
   1.1560000000000001E-002    -7.9871905538574113E-033
   1.1980000000000005E-002    -1.5668242361103305E-032
   1.2400000000000008E-002    -2.0942070025583926E-032
   1.2819999999999998E-002    -2.0285442876312558E-032
   1.3240000000000002E-002    -1.0810360110798171E-032
   1.3660000000000005E-002     8.0972393894491340E-033
   1.4079999999999995E-002     3.3265121878198240E-032
   1.4499999999999999E-002     5.7133725807676683E-032
   1.4920000000000003E-002     6.8844300186567197E-032
   1.5340000000000006E-002     5.7397869416288309E-032
   1.5759999999999996E-002     1.6470948252772303E-032
   1.6180000000000000E-002    -5.0522982855147889E-032
   1.6600000000000004E-002    -1.2734570043372293E-031
   1.7020000000000007E-002    -1.8616515801494907E-031
   1.7439999999999997E-002    -1.9450837068018426E-031
   1.7860000000000001E-002    -1.2730286533147029E-031
   1.8280000000000005E-002     1.9248608875840193E-032
   1.8700000000000008E-002     2.1742781781942965E-031
   1.9119999999999998E-002     4.0740146291145625E-031
   1.9540000000000002E-002     5.1022770995540876E-031
   1.9960000000000006E-002     4.5375448844392712E-031
   2.0380000000000009E-002     2.0463171452409596E-031
   2.0799999999999999E-002    -2.0542954324407255E-031
   2.1220000000000003E-002    -6.7233465951793843E-031
   2.1640000000000006E-002    -1.0400656211319649E-030
   2.2059999999999996E-002    -1.1479668149496034E-030
   2.2480000000000000E-002    -8.9162685943049573E-031
   2.2900000000000004E-002    -2.7459539822620548E-031
   2.3320000000000007E-002     5.7316198110605082E-031
   2.3739999999999997E-002     1.4242335373840771E-030
   2.4160000000000001E-002     2.0249781239411261E-030
   2.4580000000000005E-002     2.1824575177582621E-030
   2.5000000000000008E-002     1.8280120620293361E-030
   2.5419999999999998E-002     1.0242155317533132E-030
   2.5840000000000002E-002    -9.1524344393216566E-032
   2.6260000000000006E-002    -1.3949756481914978E-030
   2.6680000000000009E-002    -2.8318946026696521E-030
   2.7099999999999999E-002    -4.3797387412551011E-030
   2.7520000000000003E-002    -5.8934583301216050E-030
   2.7940000000000006E-002    -6.8953002137524863E-030
   2.8359999999999996E-002    -6.4531234800370738E-030
   2.8780000000000000E-002    -3.3287597135736957E-030
   2.9200000000000004E-002     3.4838866824627801E-030
   2.9620000000000007E-002     1.3888473019196098E-029
   3.0039999999999997E-002     2.5791897013621164E-029
   3.0460000000000001E-002     3.4711843538578103E-029
   3.0880000000000005E-002     3.4452877359679308E-029
   3.1300000000000008E-002     1.9160178178155803E-029
   3.1719999999999998E-002    -1.3510147382616764E-029
   3.2140000000000002E-002    -5.9109993436911667E-029
   3.2560000000000006E-002    -1.0462240544588334E-028
   3.2980000000000009E-002    -1.2989435785836171E-028
   3.3399999999999999E-002    -1.1325821663991074E-028
   3.3820000000000003E-002    -4.0742797259686843E-029
   3.4240000000000007E-002     8.3757147388581383E-029
   3.4659999999999996E-002     2.3168689281247087E-028
   3.5080000000000000E-002     3.5113643349176958E-028
   3.5500000000000004E-002     3.7928051880600107E-028
   3.5920000000000007E-002     2.6513494629105511E-028
   3.6339999999999997E-002    -3.2904691789754604E-030
   3.6760000000000001E-002    -3.7782956822857660E-028
   3.7180000000000005E-002    -7.4685752498842905E-028
   3.7600000000000008E-002    -9.5831933256642098E-028
   3.8019999999999998E-002    -8.6900296902360576E-028
   3.8440000000000002E-002    -4.0816404740543481E-028
   3.8860000000000006E-002     3.6716056551182627E-028
   3.9280000000000009E-002     1.2522817294801238E-027
   3.9699999999999999E-002     1.9313613501161628E-027
   4.0120000000000003E-002     2.0734034641161586E-027
   4.0540000000000007E-002     1.4654603813084094E-027
   4.0960000000000010E-002     1.3690921872803619E-028
   4.1380000000000000E-002    -1.5824147828613388E-027
   4.1800000000000004E-002    -3.1160674405065691E-027
   4.2220000000000008E-002    -3.8168681811265766E-027
   4.2639999999999997E-002    -3.2227611579829716E-027
   4.3060000000000001E-002    -1.3014192627827559E-027
   4.3480000000000005E-002     1.4303357305341882E-027
   4.3900000000000008E-002     4.0028736745950055E-027
   4.4319999999999998E-002     5.3229225139676098E-027
   4.4740000000000002E-002     4.6473736901619108E-027
   4.5159999999999992E-002     2.0165974501811029E-027
   4.5579999999999996E-002    -1.5771387713959666E-027
   4.5999999999999999E-002    -4.4524370158631852E-027
   4.6420000000000003E-002    -4.9386677218149741E-027
   4.6840000000000007E-002    -2.2980928208531347E-027
   4.7260000000000010E-002     2.5373262034667678E-027
   4.7680000000000014E-002     6.8805953516273483E-027
   4.8099999999999990E-002     7.1641477948871564E-027
   4.8519999999999994E-002     7.0343189399530876E-028
   4.8939999999999997E-002    -1.2221090061039285E-026
   4.9360000000000001E-002    -2.6953605340753018E-026
   4.9780000000000005E-002    -3.4810341628673493E-026
   5.0200000000000009E-002    -2.5857518754863501E-026
   5.0620000000000012E-002     6.1452733801852811E-027
   5.1040000000000016E-002     5.8132906014959763E-026
   5.1459999999999992E-002     1.1400977409867861E-025
   5.1879999999999996E-002     1.4566740328574373E-025
   5.2299999999999999E-002     1.2066783255472438E-025
   5.2720000000000003E-002     1.6234087935482024E-026
   5.3140000000000007E-002    -1.6397607978624319E-025
   5.3560000000000010E-002    -3.7684663140064079E-025
   5.3980000000000014E-002    -5.3848444659033071E-025
   5.4400000000000018E-002    -5.4109066465203677E-025
   5.4819999999999994E-002    -2.8950462352048876E-025
   5.5239999999999997E-002     2.4898505163949754E-025
   5.5660000000000001E-002     9.9667045665473972E-025
   5.6080000000000005E-002     1.7406658586237789E-024
   5.6500000000000009E-002     2.1529553031677251E-024
   5.6920000000000012E-002     1.8684907818349841E-024
   5.7340000000000016E-002     6.1732169079494546E-025
   5.7759999999999992E-002    -1.6162772871525738E-024
   5.8179999999999996E-002    -4.4572274075248557E-024
   5.8599999999999999E-002    -7.0886242961957371E-024
   5.9020000000000003E-002    -8.3451877236036296E-024
   5.9440000000000007E-002    -6.9832011466074603E-024
   5.9860000000000010E-002    -2.1096880884917222E-024
   6.0280000000000014E-002     6.3098793784121901E-024
   6.0700000000000018E-002     1.7008529551015843E-023
   6.1119999999999994E-002     2.7222696789295351E-023
   6.1539999999999997E-002     3.2925987241888444E-023
   6.1960000000000001E-002     2.9611493086297763E-023
   6.2380000000000005E-002     1.3618069053138435E-023
   6.2800000000000009E-002    -1.6180304378148762E-023
   6.3220000000000012E-002    -5.6699385321457743E-023
   6.3640000000000016E-002    -9.9531394340599861E-023
   6.4059999999999992E-002    -1.3102418789684429E-022
   6.4479999999999996E-002    -1.3411677157966051E-022
   6.4899999999999999E-002    -9.2224740179369076E-023
   6.5320000000000003E-002     5.0173007017941294E-024
   6.5740000000000007E-002     1.5502683621525519E-022
   6.6160000000000010E-002     3.3618943704578711E-022
   6.6580000000000014E-002     5.0470068133502056E-022
   6.7000000000000018E-002     5.9691194316344454E-022
   6.7419999999999994E-002     5.3939028615763844E-022
   6.7839999999999998E-002     2.6764303971969533E-022
   6.8260000000000001E-002    -2.4782126842726266E-022
   6.8680000000000005E-002    -9.7250850133228885E-022
   6.9100000000000009E-002    -1.7838373406374749E-021
   6.9520000000000012E-002    -2.4624545590981067E-021
   6.9940000000000016E-002    -2.7102537101021024E-021
   7.0359999999999992E-002    -2.2039697431776429E-021
   7.0779999999999996E-002    -6.8642493144497094E-022
   7.1199999999999999E-002     1.9134914461452737E-021
   7.1620000000000003E-002     5.3553273650158147E-021
   7.2040000000000007E-002     8.9934622617951744E-021
   7.2460000000000011E-002     1.1762782068719527E-020
   7.2880000000000014E-002     1.2290811029991899E-020
   7.3300000000000018E-002     9.1682623101168415E-021
   7.3719999999999994E-002     1.3764364889923562E-021
   7.4139999999999998E-002    -1.1180329823568267E-020
   7.4560000000000001E-002    -2.7149183229535697E-020
   7.4980000000000005E-002    -4.3377748204696183E-020
   7.5400000000000009E-002    -5.4937360976022002E-020
   7.5820000000000012E-002    -5.5706993274779092E-020
   7.6240000000000016E-002    -3.9627334054840689E-020
   7.6659999999999992E-002    -2.5858906321356235E-021
   7.7079999999999996E-002     5.5316322323497483E-020
   7.7499999999999999E-002     1.2760521620000342E-019
   7.7920000000000003E-002     2.0008002350781764E-019
   7.8340000000000007E-002     2.5107155810148485E-019
   7.8760000000000011E-002     2.5404084186186123E-019
   7.9180000000000014E-002     1.8291696644241483E-019
   7.9600000000000018E-002     1.9973776667511774E-020
   8.0019999999999994E-002    -2.3478557315406617E-019
   8.0439999999999998E-002    -5.5469433676624680E-019
   8.0860000000000001E-002    -8.8071080268770980E-019
   8.1280000000000005E-002    -1.1221162231676757E-018
   8.1700000000000009E-002    -1.1665183038905467E-018
   8.2120000000000012E-002    -9.0083608160295445E-019
   8.2540000000000016E-002    -2.4267844423719597E-019
   8.2959999999999992E-002     8.2160621765145295E-019
   8.3379999999999996E-002     2.1995277009810582E-018
   8.3799999999999999E-002     3.6662093615839670E-018
   8.4220000000000003E-002     4.8617051048505489E-018
   8.4640000000000007E-002     5.3236600002553197E-018
   8.5060000000000011E-002     4.5629872673506381E-018
   8.5480000000000014E-002     2.1824247207429832E-018
   8.5900000000000018E-002    -1.9736795471752185E-018
   8.6319999999999994E-002    -7.6635059833823764E-018
   8.6739999999999998E-002    -1.4123787249542552E-017
   8.7160000000000001E-002    -2.0024610045285089E-017
   8.7580000000000005E-002    -2.3550440418258634E-017
   8.8000000000000009E-002    -2.2643469160513401E-017
   8.8420000000000012E-002    -1.5420065612630079E-017
   8.8840000000000016E-002    -7.3180556049972869E-019
   8.9259999999999992E-002     2.1206044632745874E-017
   8.9679999999999996E-002     4.8246690242719965E-017
   9.0100000000000000E-002     7.5972467138237021E-017
   9.0520000000000003E-002     9.7768056005266296E-017
   9.0940000000000007E-002     1.0546805450469847E-016
   9.1360000000000011E-002     9.0667830325703311E-017
   9.1780000000000014E-002     4.6666583698753871E-017
   9.2200000000000018E-002    -2.9158268488580450E-017
   9.2619999999999994E-002    -1.3292896877232196E-016
   9.3039999999999998E-002    -2.5235504874731701E-016
   9.3460000000000001E-002    -3.6599629107415877E-016
   9.3880000000000005E-002    -4.4436442069355643E-016
   9.4300000000000009E-002    -4.5336997394923670E-016
   9.4720000000000013E-002    -3.6028115349805533E-016
   9.5140000000000016E-002    -1.4185179262033836E-016
   9.5559999999999992E-002     2.0635362886127004E-016
   9.5979999999999996E-002     6.6107452918407553E-016
   9.6400000000000000E-002     1.1650844104896818E-015
   9.6820000000000003E-002     1.6259817007190930E-015
   9.7240000000000007E-002     1.9223238775717758E-015
   9.7660000000000011E-002     1.9186327801220566E-015
   9.8080000000000014E-002     1.4894570820271914E-015
   9.8500000000000018E-002     5.5076781067146250E-016
   9.8919999999999994E-002    -9.0526098329547734E-016
   9.9339999999999998E-002    -2.7782816077686142E-015
   9.9760000000000001E-002    -4.8384417325763230E-015
  0.10018000000000001         -6.7243040988650927E-015
  0.10060000000000001         -7.9675797952635813E-015
  0.10102000000000001         -8.0495974813373221E-015
  0.10144000000000002         -6.4894258073822378E-015
  0.10185999999999999         -2.9572641185812411E-015
  0.10228000000000000          2.6009893063172973E-015
  0.10270000000000000          9.8490746759437400E-015
  0.10312000000000000          1.7982358086427027E-014
  0.10354000000000001          2.5715020079603737E-014
  0.10396000000000001          3.1358085781741564E-014
  0.10438000000000001          3.3004671671979471E-014
  0.10480000000000002          2.8823452522684614E-014
  0.10521999999999999          1.7440988955736331E-014
  0.10564000000000000         -1.6308553363756155E-015
  0.10606000000000000         -2.7588280994945155E-014
  0.10648000000000001         -5.8034402982233163E-014
  0.10690000000000001         -8.8875102926985282E-014
  0.10732000000000001         -1.1449643602391880E-013
  0.10774000000000002         -1.2828353611818601E-013
  0.10815999999999999         -1.2349567178045347E-013
  0.10858000000000000         -9.4452331392451315E-014
  0.10900000000000000         -3.7915433801005791E-014
  0.10942000000000000          4.5520812008544762E-014
  0.10984000000000001          1.5027647874661934E-013
  0.11026000000000001          2.6514742417476947E-013
  0.11068000000000001          3.7345228784302327E-013
  0.11110000000000002          4.5417871594611845E-013
  0.11151999999999999          4.8423131849838725E-013
  0.11194000000000000          4.4172524369842966E-013
  0.11236000000000000          3.1007323659462544E-013
  0.11278000000000001          8.2410537243310020E-014
  0.11320000000000001         -2.3429031604416073E-013
  0.11362000000000001         -6.1618108842199874E-013
  0.11404000000000002         -1.0213845629218092E-012
  0.11446000000000002         -1.3914474479100858E-012
  0.11488000000000000         -1.6558792776896820E-012
  0.11530000000000000         -1.7399083283272119E-012
  0.11572000000000000         -1.5750828230094434E-012
  0.11614000000000001         -1.1118175829577051E-012
  0.11656000000000001         -3.3244090435076712E-013
  0.11698000000000001          7.3715507419011954E-013
  0.11740000000000002          2.0194018309127899E-012
  0.11781999999999999          3.3826299090203877E-012
  0.11824000000000000          4.6461291095325211E-012
  0.11866000000000000          5.5938192085583301E-012
  0.11908000000000001          5.9966401528811156E-012
  0.11950000000000001          5.6424786021745007E-012
  0.11992000000000001          4.3711812092909010E-012
  0.12034000000000002          2.1107461808642371E-012
  0.12076000000000002         -1.0900875006257832E-012
  0.12118000000000000         -5.0383081838770207E-012
  0.12160000000000000         -9.3874903961648335E-012
  0.12202000000000000         -1.3647526273759662E-011
  0.12244000000000001         -1.7216133032942872E-011
  0.12286000000000001         -1.9432568125933176E-011
  0.12328000000000001         -1.9651382097355976E-011
  0.12370000000000002         -1.7330576497281671E-011
  0.12411999999999999         -1.2125966773809296E-011
  0.12454000000000000         -3.9807183422370407E-012
  0.12496000000000000          6.8020613927761083E-012
  0.12537999999999999          1.9516189537586481E-011
  0.12580000000000002          3.3050004910382220E-011
  0.12622000000000000          4.5932642133075554E-011
  0.12664000000000003          5.6433146274428412E-011
  0.12706000000000001          6.2710392517602933E-011
  0.12747999999999998          6.3006152570878751E-011
  0.12790000000000001          5.5866885138835934E-011
  0.12831999999999999          4.0374549012748043E-011
  0.12874000000000002          1.6362542831173326E-011
  0.12916000000000000         -1.5409767745462590E-011
  0.12958000000000003         -5.3149810542927232E-011
  0.13000000000000000         -9.4015190170410532E-011
  0.13041999999999998         -1.3420479789099629E-010
  0.13084000000000001         -1.6916749129356183E-010
  0.13125999999999999         -1.9392699425431924E-010
  0.13168000000000002         -2.0351095350480879E-010
  0.13210000000000000         -1.9346074096533519E-010
  0.13252000000000003         -1.6038561702680096E-010
  0.13294000000000000         -1.0251815949335935E-010
  0.13336000000000003         -2.0217836381903034E-011
  0.13378000000000001          8.3631796446173289E-011
  0.13419999999999999          2.0338799946490300E-010
  0.13462000000000002          3.3062568038376519E-010
  0.13503999999999999          4.5436817649543583E-010
  0.13546000000000002          5.6159725684522072E-010
  0.13588000000000000          6.3805008345381709E-010
  0.13630000000000003          6.6929215581935792E-010
  0.13672000000000001          6.4201886993827150E-010
  0.13713999999999998          5.4552555752106642E-010
  0.13756000000000002          3.7324590383234325E-010
  0.13797999999999999          1.2423980531750794E-010
  0.13840000000000002         -1.9550715828231877E-010
  0.13882000000000000         -5.7213161988983727E-010
  0.13924000000000003         -9.8343619140576683E-010
  0.13966000000000001         -1.3990844409592630E-009
  0.14007999999999998         -1.7815615848298429E-009
  0.14050000000000001         -2.0879769968474686E-009
  0.14091999999999999         -2.2727389846361585E-009
  0.14134000000000002         -2.2910490310837591E-009
  0.14176000000000000         -2.1030730606095091E-009
  0.14218000000000003         -1.6785685418273078E-009
  0.14260000000000000         -1.0016705083318897E-009
  0.14301999999999998         -7.5421186464618338E-011
  0.14344000000000001          1.0743909218180053E-009
  0.14385999999999999          2.3965636504435927E-009
  0.14428000000000002          3.8134666212349131E-009
  0.14470000000000000          5.2221106792681714E-009
  0.14512000000000003          6.4976154762775796E-009
  0.14554000000000000          7.4992804278140704E-009
  0.14596000000000003          8.0792492919721005E-009
  0.14638000000000001          8.0935442119473615E-009
  0.14679999999999999          7.4150396257689706E-009
  0.14722000000000002          5.9475971389968902E-009
  0.14763999999999999          3.6405149026630064E-009
  0.14806000000000002          5.0208257082853684E-010
  0.14848000000000000         -3.3889932872519897E-009
  0.14890000000000003         -7.8756114953842105E-009
  0.14932000000000001         -1.2719043548200005E-008
  0.14973999999999998         -1.7601563647080895E-008
  0.15016000000000002         -2.2135893944213424E-008
  0.15057999999999999         -2.5881865511610507E-008
  0.15100000000000002         -2.8370410442015938E-008
  0.15142000000000000         -2.9134443240481343E-008
  0.15184000000000003         -2.7745352796185885E-008
  0.15226000000000001         -2.3853690515005674E-008
  0.15267999999999998         -1.7231370964605173E-008
  0.15310000000000001         -7.8129644231267528E-009