  -4.0000000000000001E-002     0.0000000000000000
  -3.9899999999999998E-002     0.0000000000000000
  -3.9800000000000002E-002     0.0000000000000000
  -3.9699999999999999E-002    -4.6753746678563810E-021
  -3.9600000000000003E-002     1.9050820921515789E-020
  -3.9500000000000000E-002     9.9981824702470230E-020
  -3.9399999999999998E-002     3.2513361489813908E-020
  -3.9300000000000002E-002    -2.1051625420439512E-020
  -3.9199999999999999E-002     9.4634197685073232E-019
  -3.9100000000000003E-002     3.9725539169400041E-018
  -3.9000000000000000E-002     1.0323147870212781E-017
  -3.8900000000000004E-002    -1.2073083611244745E-018
  -3.8800000000000001E-002     2.9555417644558039E-018
  -3.8699999999999998E-002     1.3859871075746558E-017
  -3.8600000000000002E-002     2.9290958490147792E-017
  -3.8500000000000000E-002     4.7987371151104154E-017
  -3.8400000000000004E-002     4.6711286237563498E-017
  -3.8300000000000001E-002     7.4327544785703781E-017
  -3.8199999999999998E-002     1.1094114611825685E-016
  -3.8100000000000002E-002     1.1254252807949011E-016
  -3.7999999999999999E-002     1.1510857468852761E-016
  -3.7900000000000003E-002     1.8102590948860874E-016
  -3.7800000000000000E-002     2.4148390518539909E-016
  -3.7699999999999997E-002     4.9380214262467894E-017
  -3.7600000000000001E-002    -1.7772588236099579E-016
  -3.7499999999999999E-002    -4.2225611507141537E-016
  -3.7400000000000003E-002    -4.8136358290825775E-016
  -3.7300000000000000E-002    -2.9386778430561444E-016
  -3.7200000000000004E-002    -5.0611457384129805E-016
  -3.7100000000000001E-002    -6.5192081367840358E-016
  -3.6999999999999998E-002    -7.0367103274473390E-016
  -3.6900000000000002E-002    -9.7861284522579627E-016
  -3.6799999999999999E-002    -1.2135703615526010E-015
  -3.6700000000000003E-002    -3.7393052962017299E-016
  -3.6600000000000001E-002     2.8725523631441654E-015
  -3.6499999999999998E-002     4.4529623179989999E-015
  -3.6400000000000002E-002     3.5976974810468087E-015
  -3.6299999999999999E-002     3.8169057961479590E-015
  -3.6200000000000003E-002     3.8126867250376853E-015
  -3.6100000000000000E-002     1.6058445543158683E-015
  -3.6000000000000004E-002    -3.1193004722176315E-015
  -3.5900000000000001E-002    -6.8969589967545625E-015
  -3.5799999999999998E-002    -9.5987620114682329E-015
  -3.5700000000000003E-002    -1.2092148334345246E-014
  -3.5600000000000000E-002    -1.3505733667930689E-014
  -3.5500000000000004E-002    -1.5827923620739294E-014
  -3.5400000000000001E-002    -1.6928014437249395E-014
  -3.5299999999999998E-002    -1.9853732305635634E-014
  -3.5200000000000002E-002    -2.7812957015607709E-014
  -3.5099999999999999E-002    -3.5053238794675173E-014
  -3.5000000000000003E-002    -4.1733774097142684E-014
  -3.4900000000000000E-002    -4.7979273277900386E-014
  -3.4799999999999998E-002    -5.1955378069451844E-014
  -3.4700000000000002E-002    -5.4757515524899575E-014
  -3.4599999999999999E-002    -4.8692739293768050E-014
  -3.4500000000000003E-002    -3.2732222829531463E-014
  -3.4400000000000000E-002    -1.4882575559297187E-014
  -3.4299999999999997E-002     3.2459086044260999E-015
  -3.4200000000000001E-002     2.5402890782653259E-014
  -3.4099999999999998E-002     5.8791289707631894E-014
  -3.4000000000000002E-002     9.0939117401798303E-014
  -3.3900000000000000E-002     1.2582368144348904E-013
  -3.3799999999999997E-002     1.6935186434620386E-013
  -3.3700000000000001E-002     2.1247646654273811E-013
  -3.3599999999999998E-002     2.5388057541680942E-013
  -3.3500000000000002E-002     2.8620427425588013E-013
  -3.3399999999999999E-002     3.0952670981854169E-013
  -3.3300000000000003E-002     3.4025766145612257E-013
  -3.3200000000000000E-002     3.6056308763340872E-013
  -3.3099999999999997E-002     3.6342253533806768E-013
  -3.3000000000000002E-002     3.6275510048068560E-013
  -3.2899999999999999E-002     3.4191169318541215E-013
  -3.2800000000000003E-002     3.0806352477666388E-013
  -3.2700000000000000E-002     2.6658479568807125E-013
  -3.2600000000000004E-002     2.0590618782494879E-013
  -3.2500000000000001E-002     1.4668249796213895E-013
  -3.2399999999999998E-002     5.5093309878377281E-014
  -3.2300000000000002E-002    -6.8329239835684952E-014
  -3.2199999999999999E-002    -1.7402606319969621E-013
  -3.2100000000000004E-002    -2.7619332060128954E-013
  -3.2000000000000001E-002    -3.8890025639941317E-013
  -3.1899999999999998E-002    -5.1237871367612597E-013
  -3.1800000000000002E-002    -6.2239807491898391E-013
  -3.1699999999999999E-002    -6.9921737670675110E-013
  -3.1600000000000003E-002    -7.3765272319212261E-013
  -3.1500000000000000E-002    -7.5571076089617217E-013
  -3.1399999999999997E-002    -7.4499537398506344E-013
  -3.1300000000000001E-002    -6.9998412448313285E-013
  -3.1199999999999999E-002    -6.3663820309284302E-013
  -3.1100000000000003E-002    -5.4196810884629687E-013
  -3.1000000000000000E-002    -4.2746101797108693E-013
  -3.0900000000000000E-002    -2.9477884976730762E-013
  -3.0800000000000001E-002    -1.2035403056109839E-013
  -3.0699999999999998E-002     8.4921124494409528E-014
  -3.0600000000000002E-002     3.1162399050099765E-013
  -3.0499999999999999E-002     5.5054702116641430E-013
  -3.0400000000000000E-002     8.2446213484771436E-013
  -3.0300000000000001E-002     1.1192127953585373E-012
  -3.0200000000000001E-002     1.4152914951104378E-012
  -3.0100000000000002E-002     1.7680908820372210E-012
  -2.9999999999999999E-002     2.1433070162418799E-012
  -2.9899999999999999E-002     2.4644123547412633E-012
  -2.9800000000000000E-002     2.8142978399092744E-012
  -2.9700000000000001E-002     3.1574512969478885E-012
  -2.9600000000000001E-002     3.4438710563855501E-012
  -2.9499999999999998E-002     3.7419086926226974E-012
  -2.9400000000000003E-002     3.9955204943209477E-012
  -2.9300000000000000E-002     4.2130908137205658E-012
  -2.9200000000000000E-002     4.3710638407412628E-012
  -2.9100000000000001E-002     4.3926637501023880E-012
  -2.8999999999999998E-002     4.4047335223673656E-012
  -2.8900000000000002E-002     4.3866858930041719E-012
  -2.8799999999999999E-002     4.1567639087747299E-012
  -2.8700000000000000E-002     3.7483471188037853E-012
  -2.8600000000000000E-002     3.2707554113026172E-012
  -2.8500000000000001E-002     2.6955573190212689E-012
  -2.8400000000000002E-002     1.9880317010667614E-012
  -2.8299999999999999E-002     1.2440850216330346E-012
  -2.8200000000000003E-002     3.9077424564444574E-013
  -2.8100000000000000E-002    -5.1566867095842461E-013
  -2.8000000000000001E-002    -1.4136084880780886E-012
  -2.7900000000000001E-002    -2.4293806983460842E-012
  -2.7799999999999998E-002    -3.5297860554589500E-012
  -2.7700000000000002E-002    -4.5645635708690957E-012
  -2.7600000000000000E-002    -5.5047186427181760E-012
  -2.7500000000000000E-002    -6.4072163373507518E-012
  -2.7400000000000001E-002    -7.2618512765576515E-012
  -2.7299999999999998E-002    -7.9892837137607309E-012
  -2.7200000000000002E-002    -8.6021745282494066E-012
  -2.7099999999999999E-002    -9.1067492088980906E-012
  -2.7000000000000000E-002    -9.4271639106136007E-012
  -2.6900000000000000E-002    -9.4854827117907270E-012
  -2.6800000000000001E-002    -9.2720362637743747E-012
  -2.6700000000000002E-002    -8.6987934216908869E-012
  -2.6599999999999999E-002    -7.8445375195634881E-012
  -2.6500000000000003E-002    -6.6753998162472072E-012
  -2.6400000000000000E-002    -4.9979811955758180E-012
  -2.6300000000000000E-002    -2.8270482742981384E-012
  -2.6200000000000001E-002    -6.5198920481263078E-013
  -2.6099999999999998E-002     1.6483578824805223E-012
  -2.6000000000000002E-002     4.4775880052305705E-012
  -2.5899999999999999E-002     7.4065788224775275E-012
  -2.5800000000000000E-002     1.0496804814241756E-011
  -2.5700000000000001E-002     1.4176352799988301E-011
  -2.5599999999999998E-002     1.7639929447699210E-011
  -2.5500000000000002E-002     2.0375203260702968E-011
  -2.5399999999999999E-002     2.3015122793679232E-011
  -2.5300000000000000E-002     2.5078912904707984E-011
  -2.5200000000000000E-002     2.6586684243046221E-011
  -2.5100000000000001E-002     2.7880904182597810E-011
  -2.5000000000000001E-002     2.8826330211728646E-011
  -2.4899999999999999E-002     2.8594454928865254E-011
  -2.4800000000000003E-002     2.7090408041829939E-011
  -2.4700000000000000E-002     2.4178443969180563E-011
  -2.4600000000000000E-002     1.9742863593963378E-011
  -2.4500000000000001E-002     1.4218613265948310E-011
  -2.4399999999999998E-002     6.8407397801895087E-012
  -2.4299999999999999E-002    -2.0712103906972423E-012
  -2.4199999999999999E-002    -1.1711802534730698E-011
  -2.4100000000000000E-002    -2.2812246883163745E-011
  -2.4000000000000000E-002    -3.5104780193861984E-011
  -2.3900000000000001E-002    -4.8555531123595230E-011
  -2.3800000000000002E-002    -6.2715305171323621E-011
  -2.3699999999999999E-002    -7.6180672881065448E-011
  -2.3599999999999999E-002    -8.9672637371140951E-011
  -2.3500000000000000E-002    -1.0328429084216495E-010
  -2.3400000000000001E-002    -1.1585182119189241E-010
  -2.3300000000000001E-002    -1.2652777436894524E-010
  -2.3199999999999998E-002    -1.3571936630096815E-010
  -2.3099999999999999E-002    -1.4333946529720976E-010
  -2.3000000000000000E-002    -1.4900133904482971E-010
  -2.2900000000000000E-002    -1.5181320089929784E-010
  -2.2800000000000001E-002    -1.5095087679828367E-010
  -2.2700000000000001E-002    -1.4612729082319476E-010
  -2.2599999999999999E-002    -1.3790873998331676E-010
  -2.2499999999999999E-002    -1.2752232603219227E-010
  -2.2400000000000000E-002    -1.1503516195165986E-010
  -2.2300000000000000E-002    -9.7346949945453787E-011
  -2.2200000000000001E-002    -7.5525877218929338E-011
  -2.2100000000000002E-002    -5.1037268161691074E-011
  -2.1999999999999999E-002    -2.1926434626284852E-011
  -2.1899999999999999E-002     1.0171039357964595E-011
  -2.1800000000000000E-002     4.4059929316109248E-011
  -2.1700000000000001E-002     7.8240303125198807E-011
  -2.1600000000000001E-002     1.1354003848218497E-010
  -2.1499999999999998E-002     1.4971442141575864E-010
  -2.1399999999999999E-002     1.8492031517158836E-010
  -2.1299999999999999E-002     2.1627184765282692E-010
  -2.1200000000000000E-002     2.4303056789243271E-010
  -2.1100000000000001E-002     2.6797591923255482E-010
  -2.1000000000000001E-002     2.8972857446518674E-010
  -2.0899999999999998E-002     3.0664421002413178E-010
  -2.0799999999999999E-002     3.1797250943377264E-010
  -2.0700000000000000E-002     3.2323282939117348E-010
  -2.0600000000000000E-002     3.2610580902314723E-010
  -2.0500000000000001E-002     3.2697797247571714E-010
  -2.0400000000000001E-002     3.1883273798882783E-010
  -2.0299999999999999E-002     3.0198757383637087E-010
  -2.0199999999999999E-002     2.8139787722203380E-010
  -2.0100000000000000E-002     2.5566926353803865E-010
  -2.0000000000000000E-002     2.2284558920393494E-010
  -1.9900000000000001E-002     1.8576172544637615E-010
  -1.9799999999999998E-002     1.4435209971797036E-010
  -1.9699999999999999E-002     9.6230787227646886E-011
  -1.9599999999999999E-002     4.8797518109600091E-011
  -1.9500000000000000E-002     4.7099221224533583E-012
  -1.9400000000000001E-002    -4.1842654341373020E-011
  -1.9300000000000001E-002    -8.8884108406794837E-011
  -1.9199999999999998E-002    -1.4226299305253320E-010
  -1.9099999999999999E-002    -2.0109065801410253E-010
  -1.9000000000000000E-002    -2.6124535867921850E-010
  -1.8900000000000000E-002    -3.2183172793409653E-010
  -1.8800000000000001E-002    -3.8199818308548572E-010
  -1.8700000000000001E-002    -4.4259060305584796E-010
  -1.8599999999999998E-002    -4.9599568896496748E-010
  -1.8499999999999999E-002    -5.4730714404982450E-010
  -1.8400000000000000E-002    -5.9408289398987790E-010
  -1.8300000000000000E-002    -6.3190341847985110E-010
  -1.8200000000000001E-002    -6.7258848490681089E-010
  -1.8100000000000002E-002    -7.2265754491596113E-010
  -1.7999999999999999E-002    -7.7428274902757721E-010
  -1.7899999999999999E-002    -8.2063272843768686E-010
  -1.7800000000000000E-002    -8.5789142456604850E-010
  -1.7700000000000000E-002    -8.8828411293206955E-010
  -1.7600000000000001E-002    -9.1751295450137604E-010
  -1.7499999999999998E-002    -9.4979835107977806E-010
  -1.7399999999999999E-002    -9.8629471256828083E-010
  -1.7299999999999999E-002    -1.0055190013957827E-009
  -1.7200000000000000E-002    -1.0212213297222661E-009
  -1.7100000000000001E-002    -1.0361659308344429E-009
  -1.7000000000000001E-002    -1.0261297367364364E-009
  -1.6899999999999998E-002    -1.0027683128299714E-009
  -1.6799999999999999E-002    -9.6656993520127799E-010
  -1.6700000000000000E-002    -8.9766699629123536E-010
  -1.6600000000000000E-002    -7.9820849929745918E-010
  -1.6500000000000001E-002    -6.8192884672413356E-010
  -1.6400000000000001E-002    -5.4133508786691209E-010
  -1.6299999999999999E-002    -3.6339142805985603E-010
  -1.6199999999999999E-002    -1.4751209975738533E-010
  -1.6100000000000000E-002     8.4509101105911810E-011
  -1.6000000000000000E-002     3.2329755539350913E-010
  -1.5900000000000001E-002     5.8059512753061426E-010
  -1.5799999999999998E-002     8.7368634549278568E-010
  -1.5699999999999999E-002     1.1853631409763921E-009
  -1.5599999999999999E-002     1.5007515230536228E-009
  -1.5500000000000000E-002     1.8187771289035481E-009
  -1.5400000000000000E-002     2.1352559720355657E-009
  -1.5300000000000001E-002     2.4319444236198251E-009
  -1.5199999999999998E-002     2.7024578130863119E-009
  -1.5099999999999999E-002     2.9361661990634502E-009
  -1.4999999999999999E-002     3.1158053914737138E-009
  -1.4900000000000000E-002     3.2352445167305177E-009
  -1.4800000000000001E-002     3.2816531714274788E-009
  -1.4700000000000001E-002     3.2444291697686367E-009
  -1.4599999999999998E-002     3.1279623335933593E-009
  -1.4499999999999999E-002     2.9462776662825263E-009
  -1.4400000000000000E-002     2.6859228174913596E-009
  -1.4300000000000000E-002     2.3208284183340311E-009
  -1.4200000000000001E-002     1.8587347216936223E-009
  -1.4099999999999998E-002     1.3076743021755988E-009
  -1.3999999999999999E-002     6.3028054997360528E-010
  -1.3899999999999999E-002    -1.1930736953935650E-010
  -1.3800000000000000E-002    -9.2401020168608738E-010
  -1.3700000000000000E-002    -1.7736555557590350E-009
  -1.3600000000000001E-002    -2.6424853416529004E-009
  -1.3499999999999998E-002    -3.5735283621107783E-009
  -1.3399999999999999E-002    -4.5047197083647461E-009
  -1.3299999999999999E-002    -5.3524451537612094E-009
  -1.3200000000000000E-002    -6.1551723717911955E-009
  -1.3100000000000001E-002    -6.9619980891388877E-009
  -1.3000000000000001E-002    -7.7092279227031213E-009
  -1.2899999999999998E-002    -8.2959843439311953E-009
  -1.2799999999999999E-002    -8.6317921699219369E-009
  -1.2699999999999999E-002    -8.6935516563357851E-009
  -1.2600000000000000E-002    -8.4777997955143292E-009
  -1.2500000000000001E-002    -8.0505948574227659E-009
  -1.2399999999999998E-002    -7.4416055539927584E-009
  -1.2299999999999998E-002    -6.5703651408455244E-009
  -1.2199999999999999E-002    -5.4870459287315043E-009
  -1.2100000000000000E-002    -4.2067305194848359E-009
  -1.2000000000000000E-002    -2.6428841337633457E-009
  -1.1900000000000001E-002    -8.5872087218774595E-010
  -1.1799999999999998E-002     9.8294550276989412E-010
  -1.1699999999999999E-002     2.8752311642676887E-009
  -1.1599999999999999E-002     4.8987529588373491E-009
  -1.1500000000000000E-002     7.0379777561413448E-009
  -1.1400000000000000E-002     9.1862712991996887E-009
  -1.1300000000000001E-002     1.1278762812594323E-008
  -1.1199999999999998E-002     1.3225968764629670E-008
  -1.1099999999999999E-002     1.4917713286877188E-008
  -1.0999999999999999E-002     1.6277406089670876E-008
  -1.0900000000000000E-002     1.7179342393092156E-008
  -1.0800000000000001E-002     1.7492128634444271E-008
  -1.0699999999999998E-002     1.7202156143980574E-008
  -1.0599999999999998E-002     1.6310366390825948E-008
  -1.0499999999999999E-002     1.4641871715070920E-008
  -1.0400000000000000E-002     1.2426590423331163E-008
  -1.0300000000000000E-002     9.6225347689937735E-009
  -1.0200000000000001E-002     5.7054165836234461E-009
  -1.0099999999999998E-002     9.3545915458292939E-010
  -9.9999999999999985E-003    -4.2708441228000993E-009
  -9.8999999999999991E-003    -9.8161718753431160E-009
  -9.7999999999999997E-003    -1.5563701438736643E-008
  -9.7000000000000003E-003    -2.1537100991508851E-008
  -9.6000000000000009E-003    -2.7475318020719897E-008
  -9.4999999999999980E-003    -3.3258338305586221E-008
  -9.3999999999999986E-003    -3.9005943364145423E-008
  -9.2999999999999992E-003    -4.4174168323252161E-008
  -9.1999999999999998E-003    -4.8767230254043170E-008
  -9.1000000000000004E-003    -5.3061555149724882E-008
  -9.0000000000000011E-003    -5.6974673867671299E-008
  -8.8999999999999982E-003    -6.0075841190609935E-008
  -8.7999999999999988E-003    -6.2240225418008777E-008
  -8.6999999999999994E-003    -6.3676552031211031E-008
  -8.5999999999999965E-003    -6.4067378957588517E-008
  -8.5000000000000006E-003    -6.3430796615193685E-008
  -8.3999999999999977E-003    -6.1536582052212907E-008
  -8.3000000000000018E-003    -5.8374624245516316E-008
  -8.1999999999999990E-003    -5.4473350274975019E-008
  -8.0999999999999961E-003    -4.9447546501824036E-008
  -8.0000000000000002E-003    -4.3386759074337533E-008
  -7.8999999999999973E-003    -3.6128753322373086E-008
  -7.8000000000000014E-003    -2.7538582969555137E-008
  -7.6999999999999985E-003    -1.8332981355229094E-008
  -7.6000000000000026E-003    -8.1478344071683750E-009
  -7.4999999999999997E-003     3.1897999797081411E-009
  -7.3999999999999969E-003     1.5452579660291121E-008
  -7.3000000000000009E-003     2.8488246428537423E-008
  -7.1999999999999981E-003     4.1748780432726562E-008
  -7.1000000000000021E-003     5.4684203831811828E-008
  -6.9999999999999993E-003     6.7132916115042462E-008
  -6.8999999999999964E-003     7.9168202660184761E-008
  -6.8000000000000005E-003     9.0420854803596740E-008
  -6.6999999999999976E-003     1.0160944441395259E-007
  -6.6000000000000017E-003     1.1304637581588395E-007
  -6.4999999999999988E-003     1.2395432236189663E-007
  -6.3999999999999960E-003     1.3392593700700672E-007
  -6.3000000000000000E-003     1.4228760392143158E-007
  -6.1999999999999972E-003     1.4826862582140166E-007
  -6.1000000000000013E-003     1.5196280855889199E-007
  -5.9999999999999984E-003     1.5385624863029079E-007
  -5.9000000000000025E-003     1.5326146751704073E-007
  -5.7999999999999996E-003     1.4856347263503267E-007
  -5.6999999999999967E-003     1.4096963241172489E-007
  -5.6000000000000008E-003     1.3147592881068704E-007
  -5.4999999999999979E-003     1.1956254297729174E-007
  -5.4000000000000020E-003     1.0592724919433749E-007
  -5.2999999999999992E-003     9.0374371097823314E-008
  -5.1999999999999963E-003     7.0622540704334824E-008
  -5.1000000000000004E-003     4.8161059140738871E-008
  -4.9999999999999975E-003     2.6354745941148394E-008
  -4.9000000000000016E-003     3.7668312913297086E-009
  -4.7999999999999987E-003    -2.1373255165713090E-008
  -4.6999999999999958E-003    -4.7022300719845589E-008
  -4.5999999999999999E-003    -7.3791177612747560E-008
  -4.4999999999999971E-003    -1.0446450460221968E-007
  -4.4000000000000011E-003    -1.3730662828947970E-007
  -4.2999999999999983E-003    -1.7112496664140053E-007
  -4.2000000000000023E-003    -2.0379970067097020E-007
  -4.0999999999999995E-003    -2.3363497803075006E-007
  -3.9999999999999966E-003    -2.6140511977246206E-007
  -3.9000000000000007E-003    -2.8870215373899555E-007
  -3.7999999999999978E-003    -3.1355313012682018E-007
  -3.7000000000000019E-003    -3.3417654776712880E-007
  -3.5999999999999990E-003    -3.5224135785938415E-007
  -3.4999999999999962E-003    -3.6632098954214598E-007
  -3.4000000000000002E-003    -3.7597817481582751E-007
  -3.2999999999999974E-003    -3.8241370248215389E-007
  -3.2000000000000015E-003    -3.8297542914733640E-007
  -3.0999999999999986E-003    -3.7778289652123931E-007
  -2.9999999999999957E-003    -3.6795381674892269E-007
  -2.8999999999999998E-003    -3.5376345408622001E-007
  -2.7999999999999969E-003    -3.3439374647059594E-007
  -2.7000000000000010E-003    -3.1375523690257978E-007
  -2.5999999999999981E-003    -2.8916318228766613E-007
  -2.5000000000000022E-003    -2.4894967509681010E-007
  -2.3999999999999994E-003    -2.0233734687735705E-007
  -2.2999999999999965E-003    -1.5540845765826816E-007
  -2.2000000000000006E-003    -1.0660472327117532E-007
  -2.0999999999999977E-003    -6.0616137886881916E-008
  -2.0000000000000018E-003    -1.6307375005908398E-008
  -1.8999999999999989E-003     2.8686994113513720E-008
  -1.7999999999999960E-003     7.2508413495597779E-008
  -1.7000000000000001E-003     1.1635084717909194E-007
  -1.5999999999999973E-003     1.6398976754317118E-007
  -1.5000000000000013E-003     2.1411477746369201E-007
  -1.3999999999999985E-003     2.6515036211094412E-007
  -1.2999999999999956E-003     3.1638185760130000E-007
  -1.1999999999999997E-003     3.6707589856632694E-007
  -1.0999999999999968E-003     4.1289951013823156E-007
  -1.0000000000000009E-003     4.5225743861010415E-007
  -8.9999999999999802E-004     4.9011111968866317E-007
  -8.0000000000000210E-004     5.2796144700550940E-007
  -6.9999999999999923E-004     5.6341053777941852E-007
  -5.9999999999999637E-004     5.8607747632777318E-007
  -5.0000000000000044E-004     5.9489616432983894E-007
  -3.9999999999999758E-004     6.0493721321108751E-007
  -3.0000000000000165E-004     6.0821366787422448E-007
  -1.9999999999999879E-004     5.9445653732836945E-007
  -9.9999999999995925E-005     5.7766931149672018E-007
   0.0000000000000000          5.5386789199474151E-007
   1.0000000000000286E-004     5.1691222324734554E-007
   1.9999999999999879E-004     4.6585725499426189E-007
   3.0000000000000165E-004     4.0880155438571819E-007
   4.0000000000000452E-004     3.5599393299889925E-007
   5.0000000000000044E-004     3.0013973173481645E-007
   6.0000000000000331E-004     2.3772007295974618E-007
   6.9999999999999923E-004     1.7792082473988557E-007
   8.0000000000000210E-004     1.1778336528323052E-007
   8.9999999999999802E-004     5.6234853218484204E-008
   1.0000000000000009E-003    -2.1245358805543901E-009
   1.1000000000000038E-003    -6.2834551783907955E-008
   1.1999999999999997E-003    -1.2433808649348066E-007
   1.3000000000000025E-003    -1.8601218698677258E-007
   1.3999999999999985E-003    -2.3845748842177272E-007
   1.5000000000000013E-003    -2.8335412594060472E-007
   1.6000000000000042E-003    -3.2953340678432141E-007
   1.7000000000000001E-003    -3.6287457305661519E-007
   1.8000000000000030E-003    -3.7287526311047259E-007
   1.8999999999999989E-003    -3.7077722936373902E-007
   2.0000000000000018E-003    -3.5566321798796707E-007
   2.1000000000000046E-003    -3.4180175134679303E-007
   2.2000000000000006E-003    -3.3201638416358037E-007
   2.3000000000000034E-003    -3.1267546773960930E-007
   2.3999999999999994E-003    -2.8809878926949750E-007
   2.5000000000000022E-003    -2.5317118002021743E-007
   2.5999999999999981E-003    -2.1808686767599283E-007
   2.7000000000000010E-003    -1.8592996298139042E-007
   2.8000000000000039E-003    -1.3806639742597326E-007
   2.8999999999999998E-003    -9.0461739432612376E-008
   3.0000000000000027E-003    -4.4101433616106078E-008
   3.0999999999999986E-003     1.9946185148000950E-008
   3.2000000000000015E-003     1.0469096167753378E-007
   3.3000000000000043E-003     2.1050011866918794E-007
   3.4000000000000002E-003     3.1145029311119288E-007
   3.5000000000000031E-003     3.9433251686205040E-007
   3.5999999999999990E-003     4.8241628292089445E-007
   3.7000000000000019E-003     5.6903922995843459E-007
   3.7999999999999978E-003     6.4191044657491148E-007
   3.9000000000000007E-003     7.0653328521075309E-007
   4.0000000000000036E-003     7.6593619269260671E-007
   4.0999999999999995E-003     8.4487527374221827E-007
   4.2000000000000023E-003     9.1946270686094067E-007
   4.2999999999999983E-003     9.6474389010836603E-007
   4.4000000000000011E-003     9.8721068297891179E-007
   4.5000000000000040E-003     1.0064784419228090E-006
   4.5999999999999999E-003     1.0388749842604739E-006
   4.7000000000000028E-003     1.0540081802901113E-006
   4.7999999999999987E-003     1.0483928463145276E-006
   4.9000000000000016E-003     1.0244532404612983E-006
   5.0000000000000044E-003     9.8260250069870381E-007
   5.1000000000000004E-003     9.1857140205320320E-007
   5.2000000000000032E-003     8.2257929534534924E-007
   5.2999999999999992E-003     7.1138288149086293E-007
   5.4000000000000020E-003     5.9761026705018594E-007
   5.4999999999999979E-003     4.7452880380660645E-007
   5.6000000000000008E-003     3.4303818097214389E-007
   5.7000000000000037E-003     1.9404288309488038E-007
   5.7999999999999996E-003     1.8688627534402258E-008
   5.9000000000000025E-003    -1.6596997909346101E-007
   5.9999999999999984E-003    -3.5424253042037890E-007
   6.1000000000000013E-003    -5.5198540849232813E-007
   6.2000000000000041E-003    -7.6206271160117467E-007
   6.3000000000000000E-003    -9.4941594852571143E-007
   6.4000000000000029E-003    -1.1282617151664454E-006
   6.4999999999999988E-003    -1.3107176073390292E-006
   6.6000000000000017E-003    -1.4605341220885748E-006
   6.7000000000000046E-003    -1.5825381751710665E-006
   6.8000000000000005E-003    -1.6732061567381606E-006
   6.9000000000000034E-003    -1.7365027815685607E-006
   6.9999999999999993E-003    -1.7802082084017457E-006
   7.1000000000000021E-003    -1.7994431118495413E-006
   7.1999999999999981E-003    -1.7723976952765952E-006
   7.3000000000000009E-003    -1.6854107798280893E-006
   7.4000000000000038E-003    -1.5696308537371806E-006
   7.4999999999999997E-003    -1.4452675713982899E-006
   7.6000000000000026E-003    -1.3015918511882774E-006
   7.6999999999999985E-003    -1.1041400966860238E-006
   7.8000000000000014E-003    -8.6836104173926287E-007
   7.9000000000000042E-003    -6.1355649449978955E-007
   8.0000000000000002E-003    -3.3846006886051327E-007
   8.1000000000000030E-003    -5.2771341074731026E-008
   8.1999999999999990E-003     2.5121892122115241E-007
   8.3000000000000018E-003     5.5292190381805995E-007
   8.4000000000000047E-003     8.7088631062215427E-007
   8.5000000000000006E-003     1.1892510656252853E-006
   8.6000000000000035E-003     1.4562358501279959E-006
   8.6999999999999994E-003     1.6984811281872680E-006
   8.8000000000000023E-003     1.9078170225839131E-006
   8.8999999999999982E-003     2.0836582734773401E-006
   9.0000000000000011E-003     2.2567035102838418E-006
   9.1000000000000039E-003     2.4181586013583001E-006
   9.1999999999999998E-003     2.5383703814441105E-006
   9.3000000000000027E-003     2.6242428248224314E-006
   9.3999999999999986E-003     2.6864049686992075E-006
   9.5000000000000015E-003     2.6891889319813345E-006
   9.6000000000000044E-003     2.6414272724650800E-006
   9.7000000000000003E-003     2.5516085315757664E-006
   9.8000000000000032E-003     2.4150094759534113E-006
   9.8999999999999991E-003     2.2338977032632101E-006
   1.0000000000000002E-002     2.0210038655932294E-006
   1.0100000000000005E-002     1.7560812466399511E-006
   1.0200000000000001E-002     1.4341063661049702E-006
   1.0300000000000004E-002     1.0678384114726214E-006
   1.0400000000000000E-002     6.2856719296178198E-007
   1.0500000000000002E-002     1.4660400893262704E-007
   1.0599999999999998E-002    -3.5412031706982816E-007
   1.0700000000000001E-002    -8.7934932935240795E-007
   1.0800000000000004E-002    -1.4140340454105171E-006
   1.0900000000000000E-002    -1.9610993149399292E-006
   1.1000000000000003E-002    -2.5201063635904575E-006
   1.1099999999999999E-002    -3.0564920052711386E-006
   1.1200000000000002E-002    -3.5569537431001663E-006
   1.1300000000000004E-002    -4.0219920265371911E-006
   1.1400000000000000E-002    -4.4671128307527397E-006
   1.1500000000000003E-002    -4.8910360419540666E-006
   1.1599999999999999E-002    -5.2856098591291811E-006
   1.1700000000000002E-002    -5.6435924307152163E-006
   1.1800000000000005E-002    -5.9475432863109745E-006
   1.1900000000000001E-002    -6.1958953665453009E-006
   1.2000000000000004E-002    -6.3990391936386004E-006
   1.2100000000000000E-002    -6.5661402004479896E-006
   1.2200000000000003E-002    -6.6804755078919698E-006
   1.2299999999999998E-002    -6.7440714701660909E-006
   1.2400000000000001E-002    -6.7475548348738812E-006
   1.2500000000000004E-002    -6.6785096350940876E-006
   1.2600000000000000E-002    -6.5264603108516894E-006
   1.2700000000000003E-002    -6.2882018028176390E-006
   1.2799999999999999E-002    -5.9811545725096948E-006
   1.2900000000000002E-002    -5.6071926337608602E-006
   1.3000000000000005E-002    -5.1591787268989719E-006
   1.3100000000000001E-002    -4.6326795200002380E-006
   1.3200000000000003E-002    -4.0300456021213904E-006
   1.3299999999999999E-002    -3.3443043321312871E-006
   1.3400000000000002E-002    -2.6101868115802063E-006
   1.3500000000000005E-002    -1.8209613017461379E-006
   1.3600000000000001E-002    -9.7946917776425835E-007
   1.3700000000000004E-002    -1.1324151216740574E-007
   1.3800000000000000E-002     8.1860480349860154E-007
   1.3900000000000003E-002     1.7565633925187285E-006
   1.3999999999999999E-002     2.6643142518878449E-006
   1.4100000000000001E-002     3.5343191484571435E-006
   1.4200000000000004E-002     4.3543809624679852E-006
   1.4300000000000000E-002     5.1476449698384386E-006
   1.4400000000000003E-002     5.9390204114606604E-006