  -4.0000000000000001E-002     0.0000000000000000
  -3.9899999999999998E-002    -1.1624650133089275E-009
  -3.9800000000000002E-002    -5.8187121735254889E-009
  -3.9699999999999999E-002    -1.6241718673840739E-008
  -3.9600000000000003E-002    -3.4501814909246426E-008
  -3.9500000000000000E-002    -6.2319775834794230E-008
  -3.9399999999999998E-002    -1.0092044762440131E-007
  -3.9300000000000002E-002    -1.5089106803300605E-007
  -3.9199999999999999E-002    -2.1204876218917518E-007
  -3.9100000000000003E-002    -2.8332270479298726E-007
  -3.9000000000000000E-002    -3.6265680510788510E-007
  -3.8900000000000004E-002    -4.4693995256935425E-007
  -3.8800000000000001E-002    -5.3197002275312160E-007
  -3.8699999999999998E-002    -6.1245820079030339E-007
  -3.8600000000000002E-002    -6.8207970090425516E-007
  -3.8500000000000000E-002    -7.3357602185080786E-007
  -3.8400000000000004E-002    -7.5891239019012353E-007
  -3.8300000000000001E-002    -7.4949205942942461E-007
  -3.8199999999999998E-002    -6.9642659484360927E-007
  -3.8100000000000002E-002    -5.9085988154420859E-007
  -3.7999999999999999E-002    -4.2433889054209261E-007
  -3.7900000000000003E-002    -1.8922216532963906E-007
  -3.7800000000000000E-002     1.2088450485301365E-007
  -3.7699999999999997E-002     5.1068022022167622E-007
  -3.7600000000000001E-002     9.8272804905929371E-007
  -3.7499999999999999E-002     1.5370370315360722E-006
  -3.7400000000000003E-002     2.1706883757279339E-006
  -3.7300000000000000E-002     2.8775274973339581E-006
  -3.7200000000000004E-002     3.6479400216207524E-006
  -3.7100000000000001E-002     4.4687327171605357E-006
  -3.6999999999999998E-002     5.3231358708801822E-006
  -3.6900000000000002E-002     6.1909364625356346E-006
  -3.6799999999999999E-002     7.0487568296046157E-006
  -3.6700000000000003E-002     7.8704775344422303E-006
  -3.6600000000000001E-002     8.6278091198098494E-006
  -3.6499999999999998E-002     9.2909987911450417E-006
  -3.6400000000000002E-002     9.8296617516760805E-006
  -3.6299999999999999E-002     1.0213718264819519E-005
  -3.6200000000000003E-002     1.0414409196385533E-005
  -3.6100000000000000E-002     1.0405359488031133E-005
  -3.6000000000000004E-002     1.0163655433772863E-005
  -3.5900000000000001E-002     9.6708968191470183E-006
  -3.5799999999999998E-002     8.9141888416782529E-006
  -3.5700000000000003E-002     7.8870242437935631E-006
  -3.5600000000000000E-002     6.5900210957556825E-006
  -3.5500000000000004E-002     5.0314879807067830E-006
  -3.5400000000000001E-002     3.2277736995682319E-006
  -3.5299999999999998E-002     1.2033739427526747E-006
  -3.5200000000000002E-002    -1.0092085940669309E-006
  -3.5099999999999999E-002    -3.3698748697879455E-006
  -3.5000000000000003E-002    -5.8316067260848552E-006
  -3.4900000000000000E-002    -8.3414020508953010E-006
  -3.4799999999999998E-002    -1.0841452138535274E-005
  -3.4700000000000002E-002    -1.3270529613457736E-005
  -3.4599999999999999E-002    -1.5565547810964709E-005
  -3.4500000000000003E-002    -1.7663258467057476E-005
  -3.4400000000000000E-002    -1.9502021712785704E-005
  -3.4299999999999997E-002    -2.1023597789434319E-005
  -3.4200000000000001E-002    -2.2174914841259779E-005
  -3.4099999999999998E-002    -2.2909729339527256E-005
  -3.4000000000000002E-002    -2.3190130637477239E-005
  -3.3900000000000000E-002    -2.2987850072352332E-005
  -3.3799999999999997E-002    -2.2285302547392786E-005
  -3.3700000000000001E-002    -2.1076337686678993E-005
  -3.3599999999999998E-002    -1.9366654706107091E-005
  -3.3500000000000002E-002    -1.7173868567971232E-005
  -3.3399999999999999E-002    -1.4527226991686423E-005
  -3.3300000000000003E-002    -1.1466956520776241E-005
  -3.3200000000000000E-002    -8.0432880929103530E-006
  -3.3099999999999997E-002    -4.3151646314718151E-006
  -3.3000000000000002E-002    -3.4867428549773767E-007
  -3.2899999999999999E-002     3.7847251633280278E-006
  -3.2800000000000003E-002     8.0101577631636300E-006
  -3.2700000000000000E-002     1.2251362581677649E-005
  -3.2600000000000004E-002     1.6432770464432093E-005
  -3.2500000000000001E-002     2.0481541973973827E-005
  -3.2399999999999998E-002     2.4329492450652600E-005
  -3.2300000000000002E-002     2.7914863945689349E-005
  -3.2199999999999999E-002     3.1183845675098860E-005
  -3.2100000000000004E-002     3.4091841335716619E-005
  -3.2000000000000001E-002     3.6604428614450122E-005
  -3.1899999999999998E-002     3.8697959518696186E-005
  -3.1800000000000002E-002     4.0359830846769467E-005
  -3.1699999999999999E-002     4.1588392496201612E-005
  -3.1600000000000003E-002     4.2392516707977711E-005
  -3.1500000000000000E-002     4.2790861103945278E-005
  -3.1399999999999997E-002     4.2810864209812733E-005
  -3.1300000000000001E-002     4.2487492024486226E-005
  -3.1199999999999999E-002     4.1861830817722045E-005
  -3.1100000000000003E-002     4.0979588582610820E-005
  -3.1000000000000000E-002     3.9889495094154161E-005
  -3.0900000000000000E-002     3.8641773493127084E-005
  -3.0800000000000001E-002     3.7286669545609766E-005
  -3.0699999999999998E-002     3.5873100361502028E-005
  -3.0600000000000002E-002     3.4447513042261700E-005
  -3.0499999999999999E-002     3.3052942044162012E-005
  -3.0400000000000000E-002     3.1728355634429131E-005
  -3.0300000000000001E-002     3.0508244463135638E-005
  -3.0200000000000001E-002     2.9422503874396963E-005
  -3.0100000000000002E-002     2.8496558755075916E-005
  -2.9999999999999999E-002     2.7751750138729537E-005
  -2.9899999999999999E-002     2.7205965957849252E-005
  -2.9800000000000000E-002     2.6874391848205065E-005
  -2.9700000000000001E-002     2.6770384481551736E-005
  -2.9600000000000001E-002     2.6906460229817855E-005
  -2.9499999999999998E-002     2.7295320493581498E-005
  -2.9400000000000003E-002     2.7950782403760969E-005
  -2.9300000000000000E-002     2.8888605483705107E-005
  -2.9200000000000000E-002     3.0127218457740509E-005
  -2.9100000000000001E-002     3.1688265041185212E-005
  -2.8999999999999998E-002     3.3596901066408230E-005
  -2.8900000000000002E-002     3.5881863693215543E-005
  -2.8799999999999999E-002     3.8575349141808803E-005
  -2.8700000000000000E-002     4.1712626848401816E-005
  -2.8600000000000000E-002     4.5331353347631770E-005
  -2.8500000000000001E-002     4.9470846307461962E-005
  -2.8400000000000002E-002     5.4171155481437953E-005
  -2.8299999999999999E-002     5.9471972920614285E-005
  -2.8200000000000003E-002     6.5411584433742017E-005
  -2.8100000000000000E-002     7.2025747005701832E-005
  -2.8000000000000001E-002     7.9346791832393893E-005
  -2.7900000000000001E-002     8.7402712361730044E-005
  -2.7799999999999998E-002     9.6216447146665196E-005
  -2.7700000000000002E-002     1.0580562146055989E-004
  -2.7600000000000000E-002     1.1618227474703717E-004
  -2.7500000000000000E-002     1.2735302324901561E-004
  -2.7400000000000001E-002     1.3931945890251419E-004
  -2.7299999999999998E-002     1.5207900095091513E-004
  -2.7200000000000002E-002     1.6562605454181195E-004
  -2.7099999999999999E-002     1.7995320836633718E-004
  -2.7000000000000000E-002     1.9505263932095463E-004
  -2.6900000000000000E-002     2.1091794918388782E-004
  -2.6800000000000001E-002     2.2754612179271246E-004
  -2.6700000000000002E-002     2.4493895151887849E-004
  -2.6599999999999999E-002     2.6310516735508804E-004
  -2.6500000000000003E-002     2.8206199482576155E-004
  -2.6400000000000000E-002     3.0183639106712745E-004
  -2.6300000000000000E-002     3.2246656890474128E-004
  -2.6200000000000001E-002     3.4400263538067807E-004
  -2.6099999999999998E-002     3.6650719644802838E-004
  -2.6000000000000002E-002     3.9005537208029430E-004
  -2.5899999999999999E-002     4.1473475417028931E-004
  -2.5800000000000000E-002     4.4064468831903032E-004
  -2.5700000000000001E-002     4.6789508640397980E-004
  -2.5599999999999998E-002     4.9660526986712908E-004
  -2.5500000000000002E-002     5.2690232876719130E-004
  -2.5399999999999999E-002     5.5891940608333737E-004
  -2.5300000000000000E-002     5.9279349057860258E-004
  -2.5200000000000000E-002     6.2866349893542716E-004
  -2.5100000000000001E-002     6.6666832403239719E-004
  -2.5000000000000001E-002     7.0694502530011406E-004
  -2.4899999999999999E-002     7.4962756825683666E-004
  -2.4800000000000003E-002     7.9484506863388349E-004
  -2.4700000000000000E-002     8.4272120483555883E-004
  -2.4600000000000000E-002     8.9337383044129260E-004
  -2.4500000000000001E-002     9.4691502923429911E-004
  -2.4399999999999998E-002     1.0034514024694552E-003
  -2.4299999999999999E-002     1.0630852434599502E-003
  -2.4199999999999999E-002     1.1259157509080288E-003
  -2.4100000000000000E-002     1.1920412815136291E-003
  -2.4000000000000000E-002     1.2615615577459410E-003
  -2.3900000000000001E-002     1.3345799645258006E-003
  -2.3800000000000002E-002     1.4112071165118026E-003
  -2.3699999999999999E-002     1.4915625234298846E-003
  -2.3599999999999999E-002     1.5757779908349568E-003
  -2.3500000000000000E-002     1.6640006898061270E-003
  -2.3400000000000001E-002     1.7563950218455276E-003
  -2.3300000000000001E-002     1.8531455987261486E-003
  -2.3199999999999998E-002     1.9544586795369099E-003
  -2.3099999999999999E-002     2.0605637425846466E-003
  -2.3000000000000000E-002     2.1717139158442611E-003
  -2.2900000000000000E-002     2.2881871534849775E-003
  -2.2800000000000001E-002     2.4102858936112157E-003
  -2.2700000000000001E-002     2.5383353316525848E-003
  -2.2599999999999999E-002     2.6726837203612346E-003
  -2.2499999999999999E-002     2.8137002537316747E-003
  -2.2400000000000000E-002     2.9617730257324700E-003
  -2.2300000000000000E-002     3.1173083581090256E-003
  -2.2200000000000001E-002     3.2807280855127996E-003
  -2.2100000000000002E-002     3.4524667196397553E-003
  -2.1999999999999999E-002     3.6329695197879464E-003
  -2.1899999999999999E-002     3.8226924987722647E-003
  -2.1800000000000000E-002     4.0220992740058184E-003
  -2.1700000000000001E-002     4.2316610111780622E-003
  -2.1600000000000001E-002     4.4518569548514467E-003
  -2.1499999999999998E-002     4.6831732562799041E-003
  -2.1399999999999999E-002     4.9261044248572099E-003
  -2.1299999999999999E-002     5.1811558740407536E-003
  -2.1200000000000000E-002     5.4488446707592108E-003
  -2.1100000000000001E-002     5.7297007678274101E-003
  -2.1000000000000001E-002     6.0242715728103585E-003
  -2.0899999999999998E-002     6.3331266767100115E-003
  -2.0799999999999999E-002     6.6568593848657107E-003
  -2.0700000000000000E-002     6.9960902466296463E-003
  -2.0600000000000000E-002     7.3514737778465501E-003
  -2.0500000000000001E-002     7.7236975498447529E-003
  -2.0400000000000001E-002     8.1134876651140306E-003
  -2.0299999999999999E-002     8.5216102919181882E-003
  -2.0199999999999999E-002     8.9488754676397830E-003
  -2.0100000000000000E-002     9.3961373384672964E-003
  -2.0000000000000000E-002     9.8642983296709577E-003
  -1.9900000000000001E-002     1.0354304345617661E-002
  -1.9799999999999998E-002     1.0867145388879474E-002
  -1.9699999999999999E-002     1.1403857085636793E-002
  -1.9599999999999999E-002     1.1965515332857474E-002
  -1.9500000000000000E-002     1.2553235865273918E-002
  -1.9400000000000001E-002     1.3168172608573775E-002
  -1.9300000000000001E-002     1.3811512606127807E-002
  -1.9199999999999998E-002     1.4484473450175521E-002
  -1.9099999999999999E-002     1.5188298652051471E-002
  -1.9000000000000000E-002     1.5924256001612933E-002
  -1.8900000000000000E-002     1.6693635073353613E-002
  -1.8800000000000001E-002     1.7497742150306771E-002
  -1.8700000000000001E-002     1.8337906751403898E-002
  -1.8599999999999998E-002     1.9215471669322415E-002
  -1.8499999999999999E-002     2.0131799138177042E-002
  -1.8400000000000000E-002     2.1088267014868149E-002
  -1.8300000000000000E-002     2.2086274988853280E-002
  -1.8200000000000001E-002     2.3127250843951414E-002
  -1.8100000000000002E-002     2.4212647998099440E-002
  -1.7999999999999999E-002     2.5343955169919524E-002
  -1.7899999999999999E-002     2.6522691716708201E-002
  -1.7800000000000000E-002     2.7750427964616114E-002
  -1.7700000000000000E-002     2.9028785973882358E-002
  -1.7600000000000001E-002     3.0359435917332409E-002
  -1.7499999999999998E-002     3.1744115135363855E-002
  -1.7399999999999999E-002     3.3184631746428384E-002
  -1.7299999999999999E-002     3.4682862031866261E-002
  -1.7200000000000000E-002     3.6240759087470577E-002
  -1.7100000000000001E-002     3.7860361620267041E-002
  -1.7000000000000001E-002     3.9543790443920292E-002
  -1.6899999999999998E-002     4.1293243830057967E-002
  -1.6799999999999999E-002     4.3110996300458657E-002
  -1.6700000000000000E-002     4.4999418812634792E-002
  -1.6600000000000000E-002     4.6960964011133977E-002
  -1.6500000000000001E-002     4.8998152259229544E-002
  -1.6400000000000001E-002     5.1113585983820986E-002
  -1.6299999999999999E-002     5.3309924980410539E-002
  -1.6199999999999999E-002     5.5589889631343592E-002
  -1.6100000000000000E-002     5.7956264099279176E-002
  -1.6000000000000000E-002     6.0411873388003683E-002
  -1.5900000000000001E-002     6.2959584667617141E-002
  -1.5799999999999998E-002     6.5602307071879112E-002
  -1.5699999999999999E-002     6.8342977047960760E-002
  -1.5599999999999999E-002     7.1184546192100351E-002
  -1.5500000000000000E-002     7.4129996736018472E-002
  -1.5400000000000000E-002     7.7182324769127550E-002
  -1.5300000000000001E-002     8.0344542911593347E-002
  -1.5199999999999998E-002     8.3619681264576418E-002
  -1.5099999999999999E-002     8.7010779687907158E-002
  -1.4999999999999999E-002     9.0520899825652257E-002
  -1.4900000000000000E-002     9.4153140612434627E-002
  -1.4800000000000001E-002     9.7910611595425370E-002
  -1.4700000000000001E-002    0.10179643266301279
  -1.4599999999999998E-002    0.10581377950082121
  -1.4499999999999999E-002    0.10996588947651031
  -1.4400000000000000E-002    0.11425602787522197
  -1.4300000000000000E-002    0.11868749581659770
  -1.4200000000000001E-002    0.12326364171766910
  -1.4099999999999998E-002    0.12798789166520066
  -1.3999999999999999E-002    0.13286373164485510
  -1.3899999999999999E-002    0.13789468032629748
  -1.3800000000000000E-002    0.14308433757039182
  -1.3700000000000000E-002    0.14843637537989610
  -1.3600000000000001E-002    0.15395448646341131
  -1.3499999999999998E-002    0.15964242341605756
  -1.3399999999999999E-002    0.16550396987874277
  -1.3299999999999999E-002    0.17154294352289975
  -1.3200000000000000E-002    0.17776319999599746
  -1.3100000000000001E-002    0.18416861976184601
  -1.3000000000000001E-002    0.19076304638926161
  -1.2899999999999998E-002    0.19755030647038468
  -1.2799999999999999E-002    0.20453425003372380
  -1.2699999999999999E-002    0.21171868040429745
  -1.2600000000000000E-002    0.21910733624210368
  -1.2500000000000001E-002    0.22670389721864620
  -1.2399999999999998E-002    0.23451200388869858
  -1.2299999999999998E-002    0.24253520138690154
  -1.2199999999999999E-002    0.25077694562602992
  -1.2100000000000000E-002    0.25924058396806843
  -1.2000000000000000E-002    0.26792941362842254
  -1.1900000000000001E-002    0.27684663993872222
  -1.1799999999999998E-002    0.28599533629160134
  -1.1699999999999999E-002    0.29537847935866635
  -1.1599999999999999E-002    0.30499888844286854
  -1.1500000000000000E-002    0.31485932719154031
  -1.1400000000000000E-002    0.32496252540177717
  -1.1300000000000001E-002    0.33531102439335636
  -1.1199999999999998E-002    0.34590725565304475
  -1.1099999999999999E-002    0.35675357294222737
  -1.0999999999999999E-002    0.36785223893189772
  -1.0900000000000000E-002    0.37920535397956751
  -1.0800000000000001E-002    0.39081490170550337
  -1.0699999999999998E-002    0.40268278085471065
  -1.0599999999999998E-002    0.41481074214082564
  -1.0499999999999999E-002    0.42720036225812791
  -1.0400000000000000E-002    0.43985308974499410
  -1.0300000000000000E-002    0.45277021099932296
  -1.0200000000000001E-002    0.46595278204391782
  -1.0099999999999998E-002    0.47940176246155958
  -9.9999999999999985E-003    0.49311780542838274
  -9.8999999999999991E-003    0.50710134807127349
  -9.7999999999999997E-003    0.52135259807091128
  -9.7000000000000003E-003    0.53587141924660253
  -9.6000000000000009E-003    0.55065749623591820
  -9.4999999999999980E-003    0.56571011292611773
  -9.3999999999999986E-003    0.58102819941434625
  -9.2999999999999992E-003    0.59661038834106672
  -9.1999999999999998E-003    0.61245497814640792
  -9.1000000000000004E-003    0.62855997131579111
  -9.0000000000000011E-003    0.64492286125769072
  -8.8999999999999982E-003    0.66154080139564586
  -8.7999999999999988E-003    0.67841052837804183
  -8.6999999999999994E-003    0.69552836921564609
  -8.5999999999999965E-003    0.71289020108485635
  -8.5000000000000006E-003    0.73049154650408110
  -8.3999999999999977E-003    0.74832751284918531
  -8.3000000000000018E-003    0.76639258739949478
  -8.1999999999999990E-003    0.78468102415943874
  -8.0999999999999961E-003    0.80318663910645649
  -8.0000000000000002E-003    0.82190266588069116
  -7.8999999999999973E-003    0.84082204188739651
  -7.8000000000000014E-003    0.85993724161375162
  -7.6999999999999985E-003    0.87924017856643699
  -7.6000000000000026E-003    0.89872239649341346
  -7.4999999999999997E-003    0.91837483113508855
  -7.3999999999999969E-003    0.93818806185693859
  -7.3000000000000009E-003    0.95815223146528972
  -7.1999999999999981E-003    0.97825687707717512
  -7.1000000000000021E-003    0.99849094266138105
  -6.9999999999999993E-003     1.0188427884015336
  -6.8999999999999964E-003     1.0393003945707617
  -6.8000000000000005E-003     1.0598511653988543
  -6.6999999999999976E-003     1.0804817932297939
  -6.6000000000000017E-003     1.1011782813756181
  -6.4999999999999988E-003     1.1219261825359526
  -6.3999999999999960E-003     1.1427104053413675
  -6.3000000000000000E-003     1.1635151470461005
  -6.1999999999999972E-003     1.1843238172379511
  -6.1000000000000013E-003     1.2051192228074057
  -5.9999999999999984E-003     1.2258835941235027
  -5.9000000000000025E-003     1.2465983496532331
  -5.7999999999999996E-003     1.2672442264016137
  -5.6999999999999967E-003     1.2878013998465125
  -5.6000000000000008E-003     1.3082491411075567
  -5.4999999999999979E-003     1.3285661580611590
  -5.4000000000000020E-003     1.3487305372364591
  -5.2999999999999992E-003     1.3687195417248454
  -5.1999999999999963E-003     1.3885098305637753
  -5.1000000000000004E-003     1.4080774443603072
  -4.9999999999999975E-003     1.4273977984397674
  -4.9000000000000016E-003     1.4464457331983471
  -4.7999999999999987E-003     1.4651955070566507
  -4.6999999999999958E-003     1.4836206706399568
  -4.5999999999999999E-003     1.5016942936954685
  -4.4999999999999971E-003     1.5193887426862189
  -4.4000000000000011E-003     1.5366758449395002
  -4.2999999999999983E-003     1.5535269555582696
  -4.2000000000000023E-003     1.5699130533635317
  -4.0999999999999995E-003     1.5858044894849093
  -3.9999999999999966E-003     1.6011708554977875
  -3.9000000000000007E-003     1.6159814477185275
  -3.7999999999999978E-003     1.6302049749109506
  -3.7000000000000019E-003     1.6438097070086004
  -3.5999999999999990E-003     1.6567636850464933
  -3.4999999999999962E-003     1.6690343418734843
  -3.4000000000000002E-003     1.6805885452651048
  -3.2999999999999974E-003     1.6913928683951558
  -3.2000000000000015E-003     1.7014134756574166
  -3.0999999999999986E-003     1.7106159493142590
  -2.9999999999999957E-003     1.7189656477220598
  -2.8999999999999998E-003     1.7264273775938694
  -2.7999999999999969E-003     1.7329657303162087
  -2.7000000000000010E-003     1.7385451428850209
  -2.5999999999999981E-003     1.7431296818906619
  -2.5000000000000022E-003     1.7466831070095934
  -2.3999999999999994E-003     1.7491691443167023
  -2.2999999999999965E-003     1.7505514486218106
  -2.2000000000000006E-003     1.7507933240600715
  -2.0999999999999977E-003     1.7498581912977456
  -2.0000000000000018E-003     1.7477094607957611
  -1.8999999999999989E-003     1.7443105473814062
  -1.7999999999999960E-003     1.7396251342180331
  -1.7000000000000001E-003     1.7336169275129516
  -1.5999999999999973E-003     1.7262496752230563
  -1.5000000000000013E-003     1.7174875914467709
  -1.3999999999999985E-003     1.7072955091724711
  -1.2999999999999956E-003     1.6956382896803683
  -1.1999999999999997E-003     1.6824810928612071
  -1.0999999999999968E-003     1.6677898042928030
  -1.0000000000000009E-003     1.6515307019593335
  -8.9999999999999802E-004     1.6336706553306031
  -8.0000000000000210E-004     1.6141773206143544
  -6.9999999999999923E-004     1.5930188666346878
  -5.9999999999999637E-004     1.5701640982894662
  -5.0000000000000044E-004     1.5455828806755940
  -3.9999999999999758E-004     1.5192457604367027
  -3.0000000000000165E-004     1.4911239294025227
  -1.9999999999999879E-004     1.4611896519830181
  -9.9999999999995925E-005     1.4294161469608124
   0.0000000000000000          1.3957776830646127
   1.0000000000000286E-004     1.3602495686090585
   1.9999999999999879E-004     1.3228081896710071
   3.0000000000000165E-004     1.2834311447032389
   4.0000000000000452E-004     1.2420974092777854
   5.0000000000000044E-004     1.1987871086410284
   6.0000000000000331E-004     1.1534817044849366
   6.9999999999999923E-004     1.1061642328655665
   8.0000000000000210E-004     1.0568191387567303
   8.9999999999999802E-004     1.0054324295980401
   1.0000000000000009E-003    0.95199177993807749
   1.1000000000000038E-003    0.89648660977542738
   1.1999999999999997E-003    0.83890809705221525
   1.3000000000000025E-003    0.77924926690577434
   1.3999999999999985E-003    0.71750492645879160
   1.5000000000000013E-003    0.65367205256556171
   1.6000000000000042E-003    0.58774942961033594
   1.7000000000000001E-003    0.51973796101093828
   1.8000000000000030E-003    0.44964084284392186
   1.8999999999999989E-003    0.37746335664082037
   2.0000000000000018E-003    0.30321312930500627
   2.1000000000000046E-003    0.22690009972798683
   2.2000000000000006E-003    0.14853639904116314
   2.3000000000000034E-003     6.8136644356034531E-002
   2.3999999999999994E-003    -1.4282348333108201E-002
   2.5000000000000022E-003    -9.8701132979445369E-002
   2.5999999999999981E-003   -0.18509789716448471
   2.7000000000000010E-003   -0.27344828069129201
   2.8000000000000039E-003   -0.36372533893914155
   2.8999999999999998E-003   -0.45589987665404647
   3.0000000000000027E-003   -0.54993983563481219
   3.0999999999999986E-003   -0.64581067191501729
   3.2000000000000015E-003   -0.74347528661280027
   3.3000000000000043E-003   -0.84289402902825417
   3.4000000000000002E-003   -0.94402459426506724
   3.5000000000000031E-003    -1.0468218921788859
   3.5999999999999990E-003    -1.1512384215776710
   3.7000000000000019E-003    -1.2572239769203020
   3.7999999999999978E-003    -1.3647256765466529
   3.9000000000000007E-003    -1.4736877746305266
   4.0000000000000036E-003    -1.5840520143294985
   4.0999999999999995E-003    -1.6957575269391132
   4.2000000000000023E-003    -1.8087402888969775
   4.2999999999999983E-003    -1.9229337659911536
   4.4000000000000011E-003    -2.0382693689979585
   4.5000000000000040E-003    -2.1546755191823141
   4.5999999999999999E-003    -2.2720776276219108
   4.7000000000000028E-003    -2.3903985388366507
   4.7999999999999987E-003    -2.5095586404968078
   4.9000000000000016E-003    -2.6294760827480670
   5.0000000000000044E-003    -2.7500660755848374
   5.1000000000000004E-003    -2.8712415619825356
   5.2000000000000032E-003    -2.9929131252596188
   5.2999999999999992E-003    -3.1149887242026453
   5.4000000000000020E-003    -3.2373745280090853
   5.4999999999999979E-003    -3.3599741147860924
   5.6000000000000008E-003    -3.4826885293321928
   5.7000000000000037E-003    -3.6054175051805868
   5.7999999999999996E-003    -3.7280587250260857
   5.9000000000000025E-003    -3.8505076758769330
   5.9999999999999984E-003    -3.9726582601795011
   6.1000000000000013E-003    -4.0944027603226072
   6.2000000000000041E-003    -4.2156312079558349
   6.3000000000000000E-003    -4.3362326498523220
   6.4000000000000029E-003    -4.4560954815674760
   6.4999999999999988E-003    -4.5751059828164493
   6.6000000000000017E-003    -4.6931491929131113
   6.7000000000000046E-003    -4.8101094940116846
   6.8000000000000005E-003    -4.9258702576467019
   6.9000000000000034E-003    -5.0403130133970340
   6.9999999999999993E-003    -5.1533195514585328
   7.1000000000000021E-003    -5.2647715272916038
   7.1999999999999981E-003    -5.3745486050314666
   7.3000000000000009E-003    -5.4825308875796912
   7.4000000000000038E-003    -5.5885986407115507
   7.4999999999999997E-003    -5.6926318738394501
   7.6000000000000026E-003    -5.7945098897018177
   7.6999999999999985E-003    -5.8941115723405622
   7.8000000000000014E-003    -5.9913173127642461
   7.9000000000000042E-003    -6.0860078459483429
   8.0000000000000002E-003    -6.1780634911217964
   8.1000000000000030E-003    -6.2673661966072869
   8.1999999999999990E-003    -6.3537981249271658
   8.3000000000000018E-003    -6.4372424592732091
   8.4000000000000047E-003    -6.5175839347761775
   8.5000000000000006E-003    -6.5947085988669576
   8.6000000000000035E-003    -6.6685031186350070
   8.6999999999999994E-003    -6.7388560640897044
   8.8000000000000023E-003    -6.8056585659326965
   8.8999999999999982E-003    -6.8688035708816573
   9.0000000000000011E-003    -6.9281854416117890
   9.1000000000000039E-003    -6.9837003977349079
   9.1999999999999998E-003    -7.0352486773809026
   9.3000000000000027E-003    -7.0827319854060580
   9.3999999999999986E-003    -7.1260542049234799
   9.5000000000000015E-003    -7.1651238554469829
   9.6000000000000044E-003    -7.1998514345292026
   9.7000000000000003E-003    -7.2301506258347183
   9.8000000000000032E-003    -7.2559386879486034
   9.8999999999999991E-003    -7.2771360603775994
   1.0000000000000002E-002    -7.2936667680618203
   1.0100000000000005E-002    -7.3054581046239608
   1.0200000000000001E-002    -7.3124420166292445
   1.0300000000000004E-002    -7.3145544440525763
   1.0400000000000000E-002    -7.3117340194329765
   1.0500000000000002E-002    -7.3039244180165186
   1.0599999999999998E-002    -7.2910745920493705
   1.0700000000000001E-002    -7.2731361138370998
   1.0800000000000004E-002    -7.2500653979181449
   1.0900000000000000E-002    -7.2218241918394392
   1.1000000000000003E-002    -7.1883782856100886
   1.1099999999999999E-002    -7.1496980589581707
   1.1200000000000002E-002    -7.1057590184267561
   1.1300000000000004E-002    -7.0565417146943332
   1.1400000000000000E-002    -7.0020314706225202
   1.1500000000000003E-002    -6.9422187162876385
   1.1599999999999999E-002    -6.8770991340989962
   1.1700000000000002E-002    -6.8066730749001056
   1.1800000000000005E-002    -6.7309462552737802
   1.1900000000000001E-002    -6.6499306416463009
   1.2000000000000004E-002    -6.5636424722673476
   1.2100000000000000E-002    -6.4721034971323697
   1.2200000000000003E-002    -6.3753417021401466
   1.2299999999999998E-002    -6.2733897643164891
   1.2400000000000001E-002    -6.1662860818883525
   1.2500000000000004E-002    -6.0540745481259899
   1.2600000000000000E-002    -5.9368046569051725
   1.2700000000000003E-002    -5.8145316106700973
   1.2799999999999999E-002    -5.6873154616054000
   1.2900000000000002E-002    -5.5552219536817606
   1.3000000000000005E-002    -5.4183226643478282
   1.3100000000000001E-002    -5.2766944397741824
   1.3200000000000003E-002    -5.1304189139212131
   1.3299999999999999E-002    -4.9795834920474444
   1.3400000000000002E-002    -4.8242806496275694
   1.3500000000000005E-002    -4.6646075729764185
   1.3600000000000001E-002    -4.5006669784465609
   1.3700000000000004E-002    -4.3325661085685789
   1.3800000000000000E-002    -4.1604171066120958
   1.3900000000000003E-002    -3.9843369026244551
   1.3999999999999999E-002    -3.8044473040947597
   1.4100000000000001E-002    -3.6208739544689799
   1.4200000000000004E-002    -3.4337472694169415
   1.4300000000000000E-002    -3.2432022337276245
   1.4400000000000003E-002    -3.0493772675072530
   1.4499999999999999E-002    -2.8524151215718208
   1.4600000000000002E-002    -2.6524622071292070
   1.4700000000000005E-002    -2.4496687027215462
   1.4800000000000001E-002    -2.2441886313436767
   1.4900000000000004E-002    -2.0361791649813159
   1.4999999999999999E-002    -1.8258008068667160
   1.5100000000000002E-002    -1.6132170625193443
   1.5200000000000005E-002    -1.3985946133121399
   1.5300000000000001E-002    -1.1821028461149989
   1.5400000000000004E-002   -0.96391371657196345
   1.5500000000000000E-002   -0.74420183907456094
   1.5600000000000003E-002   -0.52314370264970111
   1.5699999999999999E-002   -0.30091734746557303
   1.5800000000000002E-002    -7.7703885567120240E-002
   1.5900000000000004E-002    0.14631437950847537
   1.6000000000000000E-002    0.37095422047905957
   1.6100000000000003E-002    0.59603030996887152
   1.6199999999999999E-002    0.82135666813487007
   1.6300000000000002E-002     1.0467467563544082
   1.6400000000000005E-002     1.2720129463736627
   1.6500000000000001E-002     1.4969677933677938
   1.6600000000000004E-002     1.7214234953495378
   1.6700000000000000E-002     1.9451918794501808
   1.6800000000000002E-002     2.1680854989120122
   1.6900000000000005E-002     2.3899178596136301
   1.7000000000000001E-002     2.6105027426712097
   1.7100000000000004E-002     2.8296548881076280
   1.7200000000000000E-002     3.0471901440456968
   1.7300000000000003E-002     3.2629261927984547