  -4.0000000000000001E-002     0.0000000000000000
  -3.9899999999999998E-002     0.0000000000000000
  -3.9800000000000002E-002     0.0000000000000000
  -3.9699999999999999E-002     0.0000000000000000
  -3.9600000000000003E-002    -7.9047471520905716E-021
  -3.9500000000000000E-002    -6.9180416887911381E-020
  -3.9399999999999998E-002    -3.3398420188321213E-019
  -3.9300000000000002E-002    -1.1740226132753406E-018
  -3.9199999999999999E-002    -3.3525152529970462E-018
  -3.9100000000000003E-002    -8.2376510108573497E-018
  -3.9000000000000000E-002    -1.8035472190469341E-017
  -3.8900000000000004E-002    -3.6005931293514465E-017
  -3.8800000000000001E-002    -6.6620272884628694E-017
  -3.8699999999999998E-002    -1.1562306779464579E-016
  -3.8600000000000002E-002    -1.8998168148415707E-016
  -3.8500000000000000E-002    -2.9774129244318796E-016
  -3.8400000000000004E-002    -4.4785405954237117E-016
  -3.8300000000000001E-002    -6.5011335124808131E-016
  -3.8199999999999998E-002    -9.1539157659215617E-016
  -3.8100000000000002E-002    -1.2564407107163908E-015
  -3.7999999999999999E-002    -1.6895623262071680E-015
  -3.7900000000000003E-002    -2.2374642117100729E-015
  -3.7800000000000000E-002    -2.9335910396309679E-015
  -3.7699999999999997E-002    -3.8281243240178685E-015
  -3.7600000000000001E-002    -4.9956902086227203E-015
  -3.7499999999999999E-002    -6.5445848203673010E-015
  -3.7400000000000003E-002    -8.6270220974555764E-015
  -3.7300000000000000E-002    -1.1449560341437928E-014
  -3.7200000000000004E-002    -1.5282476754354887E-014
  -3.7100000000000001E-002    -2.0466447140559188E-014
  -3.6999999999999998E-002    -2.7414544904471282E-014
  -3.6900000000000002E-002    -3.6607300307398005E-014
  -3.6799999999999999E-002    -4.8578396622152298E-014
  -3.6700000000000003E-002    -6.3888686550363227E-014
  -3.6600000000000001E-002    -8.3086390144284511E-014
  -3.6499999999999998E-002    -1.0665212745071539E-013
  -3.6400000000000002E-002    -1.3492799813639295E-013
  -3.6299999999999999E-002    -1.6803146873044239E-013
  -3.6200000000000003E-002    -2.0575602582405955E-013
  -3.6100000000000000E-002    -2.4746258644667285E-013
  -3.6000000000000004E-002    -2.9196724248350958E-013
  -3.5900000000000001E-002    -3.3743334190185215E-013
  -3.5799999999999998E-002    -3.8127747487015640E-013
  -3.5700000000000003E-002    -4.2010093862822340E-013
  -3.5600000000000000E-002    -4.4965919009098965E-013
  -3.5500000000000004E-002    -4.6488296068583623E-013
  -3.5400000000000001E-002    -4.5996431490002987E-013
  -3.5299999999999998E-002    -4.2851987691779059E-013
  -3.5200000000000002E-002    -3.6384168789795057E-013
  -3.5099999999999999E-002    -2.5924214489513042E-013
  -3.5000000000000003E-002    -1.0849563028591039E-013
  -3.4900000000000000E-002     9.3626746167172620E-014
  -3.4799999999999998E-002     3.5073959253444087E-013
  -3.4700000000000002E-002     6.6416067524138755E-013
  -3.4599999999999999E-002     1.0321897416648573E-012
  -3.4500000000000003E-002     1.4493828229614203E-012
  -3.4400000000000000E-002     1.9058643552227750E-012
  -3.4299999999999997E-002     2.3867273175187664E-012
  -3.4200000000000001E-002     2.8715762406816836E-012
  -3.4099999999999998E-002     3.3342697092902940E-012
  -3.4000000000000002E-002     3.7429248068987508E-012
  -3.3900000000000000E-002     4.0602382567200834E-012
  -3.3799999999999997E-002     4.2441753236865942E-012
  -3.3700000000000001E-002     4.2490655091653728E-012
  -3.3599999999999998E-002     4.0271353959897560E-012
  -3.3500000000000002E-002     3.5304821132536857E-012
  -3.3399999999999999E-002     2.7134748441237644E-012
  -3.3300000000000003E-002     1.5355456706514503E-012
  -3.3200000000000000E-002    -3.5696658573936696E-014
  -3.3099999999999997E-002    -2.0211278397436194E-012
  -3.3000000000000002E-002    -4.4266673659976163E-012
  -3.2899999999999999E-002    -7.2398866415857022E-012
  -3.2800000000000003E-002    -1.0426845151179087E-011
  -3.2700000000000000E-002    -1.3929349861052653E-011
  -3.2600000000000004E-002    -1.7662838205922959E-011
  -3.2500000000000001E-002    -2.1515110873449039E-011
  -3.2399999999999998E-002    -2.5346107157542264E-011
  -3.2300000000000002E-002    -2.8988927577855428E-011
  -3.2199999999999999E-002    -3.2252252951670002E-011
  -3.2100000000000004E-002    -3.4924306502315261E-011
  -3.2000000000000001E-002    -3.6778389361780128E-011
  -3.1899999999999998E-002    -3.7580057121733290E-011
  -3.1800000000000002E-002    -3.7095819471755220E-011
  -3.1699999999999999E-002    -3.5103253637203125E-011
  -3.1600000000000003E-002    -3.1402300898486502E-011
  -3.1500000000000000E-002    -2.5827423533186789E-011
  -3.1399999999999997E-002    -1.8260233602962472E-011
  -3.1300000000000001E-002    -8.6421260772628905E-012
  -3.1199999999999999E-002     3.0136468407576666E-012
  -3.1100000000000003E-002     1.6611019851286990E-011
  -3.1000000000000000E-002     3.1961919222389668E-011
  -3.0900000000000000E-002     4.8779480454896884E-011
  -3.0800000000000001E-002     6.6674249454834467E-011
  -3.0699999999999998E-002     8.5153988027553140E-011
  -3.0600000000000002E-002     1.0362755098469734E-010
  -3.0499999999999999E-002     1.2141324057246550E-010
  -3.0400000000000000E-002     1.3775189322551284E-010
  -3.0300000000000001E-002     1.5182476109654175E-010
  -3.0200000000000001E-002     1.6277618142268580E-010
  -3.0100000000000002E-002     1.6974065208952283E-010
  -2.9999999999999999E-002     1.7187383460903760E-010
  -2.9899999999999999E-002     1.6838679062214368E-010
  -2.9800000000000000E-002     1.5858242496946673E-010
  -2.9700000000000001E-002     1.4189313612966714E-010
  -2.9600000000000001E-002     1.1791825849094550E-010
  -2.9499999999999998E-002     8.6459860104692865E-011
  -2.9400000000000003E-002     4.7555338139604331E-011
  -2.9300000000000000E-002     1.5052622776706714E-012
  -2.9200000000000000E-002    -5.1105144421859094E-011
  -2.9100000000000001E-002    -1.0939241179563908E-010
  -2.8999999999999998E-002    -1.7217047232342964E-010
  -2.8900000000000002E-002    -2.3795673764759329E-010
  -2.8799999999999999E-002    -3.0498939485035237E-010
  -2.8700000000000000E-002    -3.7125660878878364E-010
  -2.8600000000000000E-002    -4.3453771136903185E-010
  -2.8500000000000001E-002    -4.9245602040670633E-010
  -2.8400000000000002E-002    -5.4254278847309934E-010
  -2.8299999999999999E-002    -5.8231097721517244E-010
  -2.8200000000000003E-002    -6.0933691425901770E-010
  -2.8100000000000000E-002    -6.2134808409552988E-010
  -2.8000000000000001E-002    -6.1631433290187942E-010
  -2.7900000000000001E-002    -5.9253962847449770E-010
  -2.7799999999999998E-002    -5.4875115562680321E-010
  -2.7700000000000002E-002    -4.8418252740489720E-010
  -2.7600000000000000E-002    -3.9864719858506703E-010
  -2.7500000000000000E-002    -2.9259966671801863E-010
  -2.7400000000000001E-002    -1.6718021411676887E-010
  -2.7299999999999998E-002    -2.4240942586573055E-011
  -2.7200000000000002E-002     1.3364956363837166E-010
  -2.7099999999999999E-002     3.0322488964173999E-010
  -2.7000000000000000E-002     4.8056386647843397E-010
  -2.6900000000000000E-002     6.6115879437944614E-010
  -2.6800000000000001E-002     8.4000806310768894E-010
  -2.6700000000000002E-002     1.0117325865977023E-009
  -2.6599999999999999E-002     1.1707127489657410E-009
  -2.6500000000000003E-002     1.3112446684004908E-009
  -2.6400000000000000E-002     1.4277096171966264E-009
  -2.6300000000000000E-002     1.5147543219740101E-009
  -2.6200000000000001E-002     1.5674749276328726E-009
  -2.6099999999999998E-002     1.5816000731305735E-009
  -2.6000000000000002E-002     1.5536664177417947E-009
  -2.5899999999999999E-002     1.4811808446424379E-009
  -2.5800000000000000E-002     1.3627621253675670E-009
  -2.5700000000000001E-002     1.1982579373182034E-009
  -2.5599999999999998E-002     9.8882990684501237E-010
  -2.5500000000000002E-002     7.3700368030671370E-010
  -2.5399999999999999E-002     4.4667869403269833E-010
  -2.5300000000000000E-002     1.2309668562249243E-010
  -2.5200000000000000E-002    -2.2723345427522190E-010
  -2.5100000000000001E-002    -5.9665433704836346E-010
  -2.5000000000000001E-002    -9.7652030905948095E-010
  -2.4899999999999999E-002    -1.3573970836233684E-009
  -2.4800000000000003E-002    -1.7292957066317172E-009
  -2.4700000000000000E-002    -2.0819350687872884E-009
  -2.4600000000000000E-002    -2.4050270663877882E-009
  -2.4500000000000001E-002    -2.6885746962079793E-009
  -2.4399999999999998E-002    -2.9231765896753359E-009
  -2.4299999999999999E-002    -3.1003253297967603E-009
  -2.4199999999999999E-002    -3.2126927784759118E-009
  -2.4100000000000000E-002    -3.2543923111916229E-009
  -2.4000000000000000E-002    -3.2212077449855769E-009
  -2.3900000000000001E-002    -3.1107796338858407E-009
  -2.3800000000000002E-002    -2.9227451570079666E-009
  -2.3699999999999999E-002    -2.6588207191480251E-009
  -2.3599999999999999E-002    -2.3228263756891465E-009
  -2.3500000000000000E-002    -1.9206476409294737E-009
  -2.3400000000000001E-002    -1.4601334585861991E-009
  -2.3300000000000001E-002    -9.5093333207785236E-010
  -2.3199999999999998E-002    -4.0427461378556018E-010
  -2.3099999999999999E-002     1.6731284413484815E-010
  -2.3000000000000000E-002     7.5031852952989198E-010
  -2.2900000000000000E-002     1.3306099555521200E-009
  -2.2800000000000001E-002     1.8938186574501970E-009
  -2.2700000000000001E-002     2.4257407194028247E-009
  -2.2599999999999999E-002     2.9127409373330693E-009
  -2.2499999999999999E-002     3.3421463374594396E-009
  -2.2400000000000000E-002     3.7026177679422290E-009
  -2.2300000000000000E-002     3.9844856303261622E-009
  -2.2200000000000001E-002     4.1800412020620570E-009
  -2.2100000000000002E-002     4.2837697833419952E-009
  -2.1999999999999999E-002     4.2925214494005104E-009
  -2.1899999999999999E-002     4.2056087501407546E-009
  -2.1800000000000000E-002     4.0248315791302502E-009
  -2.1700000000000001E-002     3.7544234388064979E-009
  -2.1600000000000001E-002     3.4009253191413791E-009
  -2.1499999999999998E-002     2.9729849693183041E-009
  -2.1399999999999999E-002     2.4810919985185365E-009
  -2.1299999999999999E-002     1.9372543569318168E-009
  -2.1200000000000000E-002     1.3546281873999533E-009
  -2.1100000000000001E-002     7.4711287156858930E-010
  -2.1000000000000001E-002     1.2892502343486711E-010
  -2.0899999999999998E-002    -4.8583548295511036E-010
  -2.0799999999999999E-002    -1.0836113117917989E-009
  -2.0700000000000000E-002    -1.6517912593272399E-009
  -2.0600000000000000E-002    -2.1790780291297551E-009
  -2.0500000000000001E-002    -2.6558075738591924E-009
  -2.0400000000000001E-002    -3.0742073331424535E-009
  -2.0299999999999999E-002    -3.4285876360229395E-009
  -2.0199999999999999E-002    -3.7154554988205746E-009
  -2.0100000000000000E-002    -3.9335517065808290E-009
  -2.0000000000000000E-002    -4.0838052939307090E-009
  -1.9900000000000001E-002    -4.1692120866798632E-009
  -1.9799999999999998E-002    -4.1946375262114088E-009
  -1.9699999999999999E-002    -4.1665559891157500E-009
  -1.9599999999999999E-002    -4.0927319311379051E-009
  -1.9500000000000000E-002    -3.9818583985606892E-009
  -1.9400000000000001E-002    -3.8431675619676753E-009
  -1.9300000000000001E-002    -3.6860234864377617E-009
  -1.9199999999999998E-002    -3.5195180103642087E-009
  -1.9099999999999999E-002    -3.3520839437528593E-009
  -1.9000000000000000E-002    -3.1911397968542587E-009
  -1.8900000000000000E-002    -3.0427815822520188E-009
  -1.8800000000000001E-002    -2.9115341249053017E-009
  -1.8700000000000001E-002    -2.8001712060188311E-009
  -1.8599999999999998E-002    -2.7096136445692309E-009
  -1.8499999999999999E-002    -2.6389102014690025E-009
  -1.8400000000000000E-002    -2.5853026386357669E-009
  -1.8300000000000000E-002    -2.5443720463869113E-009
  -1.8200000000000001E-002    -2.5102648848474018E-009
  -1.8100000000000002E-002    -2.4759883032743346E-009
  -1.7999999999999999E-002    -2.4337643012017907E-009
  -1.7899999999999999E-002    -2.3754314071311455E-009
  -1.7800000000000000E-002    -2.2928756671092287E-009
  -1.7700000000000000E-002    -2.1784760662058034E-009
  -1.7600000000000001E-002    -2.0255472854557866E-009
  -1.7499999999999998E-002    -1.8287594771848603E-009
  -1.7399999999999999E-002    -1.5845191825292204E-009
  -1.7299999999999999E-002    -1.2912955149602112E-009
  -1.7200000000000000E-002    -9.4987462340156981E-010
  -1.7100000000000001E-002    -5.6353266497666255E-010
  -1.7000000000000001E-002    -1.3811576882183374E-010
  -1.6899999999999998E-002     3.1797886546058862E-010
  -1.6799999999999999E-002     7.9392309393355731E-010
  -1.6700000000000000E-002     1.2766792067964161E-009
  -1.6600000000000000E-002     1.7513175354366695E-009
  -1.6500000000000001E-002     2.2014221556787561E-009
  -1.6400000000000001E-002     2.6095745564447270E-009
  -1.6299999999999999E-002     2.9578974825028581E-009
  -1.6199999999999999E-002     3.2286460172059606E-009
  -1.6100000000000000E-002     3.4048235342254429E-009
  -1.6000000000000000E-002     3.4708027563112864E-009
  -1.5900000000000001E-002     3.4129326031973051E-009
  -1.5799999999999998E-002     3.2201068478343586E-009
  -1.5699999999999999E-002     2.8842759292047049E-009
  -1.5599999999999999E-002     2.4008821597476526E-009
  -1.5500000000000000E-002     1.7692034504079857E-009
  -1.5400000000000000E-002     9.9258801178336853E-010
  -1.5300000000000001E-002     7.8572419404121518E-011
  -1.5199999999999998E-002    -9.6112540148851622E-010
  -1.5099999999999999E-002    -2.1107420256072373E-009
  -1.4999999999999999E-002    -3.3507319141534708E-009
  -1.4900000000000000E-002    -4.6581551949032018E-009
  -1.4800000000000001E-002    -6.0071778662518227E-009
  -1.4700000000000001E-002    -7.3696782010301831E-009
  -1.4599999999999998E-002    -8.7159373052259070E-009
  -1.4499999999999999E-002    -1.0015403617558150E-008
  -1.4400000000000000E-002    -1.1237501595928734E-008
  -1.4300000000000000E-002    -1.2352474598742447E-008
  -1.4200000000000001E-002    -1.3332233095297852E-008
  -1.4099999999999998E-002    -1.4151182448074451E-008
  -1.3999999999999999E-002    -1.4787019608775154E-008
  -1.3899999999999999E-002    -1.5221466753700952E-008
  -1.3800000000000000E-002    -1.5440933864852013E-008
  -1.3700000000000000E-002    -1.5437088052294712E-008
  -1.3600000000000001E-002    -1.5207310966047771E-008
  -1.3499999999999998E-002    -1.4755056731985405E-008
  -1.3399999999999999E-002    -1.4090074884620662E-008
  -1.3299999999999999E-002    -1.3228516948515789E-008
  -1.3200000000000000E-002    -1.2192916898356998E-008
  -1.3100000000000001E-002    -1.1012057044013090E-008
  -1.3000000000000001E-002    -9.7207166760426844E-009
  -1.2899999999999998E-002    -8.3593247879321098E-009
  -1.2799999999999999E-002    -6.9735222041344969E-009
  -1.2699999999999999E-002    -5.6136486570323996E-009
  -1.2600000000000000E-002    -4.3341721323031379E-009
  -1.2500000000000001E-002    -3.1930775801214395E-009
  -1.2399999999999998E-002    -2.2512303132771194E-009
  -1.2299999999999998E-002    -1.5717321888431002E-009
  -1.2199999999999999E-002    -1.2192868936722334E-009
  -1.2100000000000000E-002    -1.2595900988898734E-009
  -1.2000000000000000E-002    -1.7587575840138925E-009
  -1.1900000000000001E-002    -2.7828050974676444E-009
  -1.1799999999999998E-002    -4.3971875030024421E-009
  -1.1699999999999999E-002    -6.6664083142597974E-009
  -1.1599999999999999E-002    -9.6537071669899888E-009
  -1.1500000000000000E-002    -1.3420822675414001E-008
  -1.1400000000000000E-002    -1.8027840553713759E-008
  -1.1300000000000001E-002    -2.3533129223096694E-008
  -1.1199999999999998E-002    -2.9993351802204415E-008
  -1.1099999999999999E-002    -3.7463554036776259E-008
  -1.0999999999999999E-002    -4.5997346376225323E-008
  -1.0900000000000000E-002    -5.5647142005454953E-008
  -1.0800000000000001E-002    -6.6464458825521433E-008
  -1.0699999999999998E-002    -7.8500320910279697E-008
  -1.0599999999999998E-002    -9.1805652857601672E-008
  -1.0499999999999999E-002    -1.0643177716929131E-007
  -1.0400000000000000E-002    -1.2243096136899112E-007
  -1.0300000000000000E-002    -1.3985695090923400E-007
  -1.0200000000000001E-002    -1.5876561576533277E-007
  -1.0099999999999998E-002    -1.7921553308042348E-007
  -9.9999999999999985E-003    -2.0126864797020971E-007
  -9.8999999999999991E-003    -2.2499099827655300E-007
  -9.7999999999999997E-003    -2.5045332563422562E-007
  -9.7000000000000003E-003    -2.7773185706791992E-007
  -9.6000000000000009E-003    -3.0690887342643691E-007
  -9.4999999999999980E-003    -3.3807347676884092E-007
  -9.3999999999999986E-003    -3.7132227248548588E-007
  -9.2999999999999992E-003    -4.0675996615391341E-007
  -9.1999999999999998E-003    -4.4450001723816968E-007
  -9.1000000000000004E-003    -4.8466512225786573E-007
  -9.0000000000000011E-003    -5.2738795375262271E-007
  -8.8999999999999982E-003    -5.7281141607745667E-007
  -8.7999999999999988E-003    -6.2108938436722383E-007
  -8.6999999999999994E-003    -6.7238676138003939E-007
  -8.5999999999999965E-003    -7.2687993224462844E-007
  -8.5000000000000006E-003    -7.8475721920767683E-007
  -8.3999999999999977E-003    -8.4621882479041233E-007
  -8.3000000000000018E-003    -9.1147700231886120E-007
  -8.1999999999999990E-003    -9.8075634014094248E-007
  -8.0999999999999961E-003    -1.0542937616264680E-006
  -8.0000000000000002E-003    -1.1323384114803048E-006
  -7.8999999999999973E-003    -1.2151519968028879E-006
  -7.8000000000000014E-003    -1.3030083891862887E-006
  -7.6999999999999985E-003    -1.3961939657747280E-006
  -7.6000000000000026E-003    -1.4950078366382513E-006
  -7.4999999999999997E-003    -1.5997618447727291E-006
  -7.3999999999999969E-003    -1.7107806797866942E-006
  -7.3000000000000009E-003    -1.8284023326486931E-006
  -7.1999999999999981E-003    -1.9529788914951496E-006
  -7.1000000000000021E-003    -2.0848769963777158E-006
  -6.9999999999999993E-003    -2.2244785213842988E-006
  -6.8999999999999964E-003    -2.3721815978205996E-006
  -6.8000000000000005E-003    -2.5284020921390038E-006
  -6.6999999999999976E-003    -2.6935745154332835E-006
  -6.6000000000000017E-003    -2.8681545245490270E-006
  -6.4999999999999988E-003    -3.0526193768309895E-006
  -6.3999999999999960E-003    -3.2474713407282252E-006
  -6.3000000000000000E-003    -3.4532386052887887E-006
  -6.1999999999999972E-003    -3.6704780086438404E-006
  -6.1000000000000013E-003    -3.8997773117444012E-006
  -5.9999999999999984E-003    -4.1417588363401592E-006
  -5.9000000000000025E-003    -4.3970799197268207E-006
  -5.7999999999999996E-003    -4.6664376895932946E-006
  -5.6999999999999967E-003    -4.9505692913953681E-006
  -5.6000000000000008E-003    -5.2502559810818639E-006
  -5.4999999999999979E-003    -5.5663263083260972E-006
  -5.4000000000000020E-003    -5.8996561165258754E-006
  -5.2999999999999992E-003    -6.2511730902770068E-006
  -5.1999999999999963E-003    -6.6218576648680028E-006
  -5.1000000000000004E-003    -7.0127448452694807E-006
  -4.9999999999999975E-003    -7.4249273893656209E-006
  -4.9000000000000016E-003    -7.8595558079541661E-006
  -4.7999999999999987E-003    -8.3178392742411233E-006
  -4.6999999999999958E-003    -8.8010501713142730E-006
  -4.5999999999999999E-003    -9.3105227279011160E-006
  -4.4999999999999971E-003    -9.8476548373582773E-006
  -4.4000000000000011E-003    -1.0413908967166208E-005
  -4.2999999999999983E-003    -1.1010812158929184E-005
  -4.2000000000000023E-003    -1.1639960575848818E-005
  -4.0999999999999995E-003    -1.2303018593229353E-005
  -3.9999999999999966E-003    -1.3001719707972370E-005
  -3.9000000000000007E-003    -1.3737867448071484E-005
  -3.7999999999999978E-003    -1.4513339010591153E-005
  -3.7000000000000019E-003    -1.5330087990150787E-005
  -3.5999999999999990E-003    -1.6190144378924742E-005
  -3.4999999999999962E-003    -1.7095617295126431E-005
  -3.4000000000000002E-003    -1.8048702258965932E-005
  -3.2999999999999974E-003    -1.9051678464165889E-005
  -3.2000000000000015E-003    -2.0106914234929718E-005
  -3.0999999999999986E-003    -2.1216876120888628E-005
  -2.9999999999999957E-003    -2.2384128897101618E-005
  -2.8999999999999998E-003    -2.3611337383044884E-005
  -2.7999999999999969E-003    -2.4901277356548235E-005
  -2.7000000000000010E-003    -2.6256837372784503E-005
  -2.5999999999999981E-003    -2.7681026040227152E-005
  -2.5000000000000022E-003    -2.9176975658629090E-005
  -2.3999999999999994E-003    -3.0747949494980276E-005
  -2.2999999999999965E-003    -3.2397343602497131E-005
  -2.2000000000000006E-003    -3.4128701372537762E-005
  -2.0999999999999977E-003    -3.5945708077633753E-005
  -2.0000000000000018E-003    -3.7852201785426587E-005
  -1.8999999999999989E-003    -3.9852176996646449E-005
  -1.7999999999999960E-003    -4.1949788283091038E-005
  -1.7000000000000001E-003    -4.4149368477519602E-005
  -1.5999999999999973E-003    -4.6455406845780089E-005
  -1.5000000000000013E-003    -4.8872574552660808E-005
  -1.3999999999999985E-003    -5.1405728299869224E-005
  -1.2999999999999956E-003    -5.4059899412095547E-005
  -1.1999999999999997E-003    -5.6840312026906759E-005
  -1.0999999999999968E-003    -5.9752383094746619E-005
  -1.0000000000000009E-003    -6.2801729654893279E-005
  -8.9999999999999802E-004    -6.5994165197480470E-005
  -8.0000000000000210E-004    -6.9335699663497508E-005
  -6.9999999999999923E-004    -7.2832561272662133E-005
  -5.9999999999999637E-004    -7.6491196523420513E-005
  -5.0000000000000044E-004    -8.0318248365074396E-005
  -3.9999999999999758E-004    -8.4320607129484415E-005
  -3.0000000000000165E-004    -8.8505374151282012E-005
  -1.9999999999999879E-004    -9.2879898147657514E-005
  -9.9999999999995925E-005    -9.7451760666444898E-005
   0.0000000000000000         -1.0222879791399464E-004
   1.0000000000000286E-004    -1.0721909347921610E-004
   1.9999999999999879E-004    -1.1243100016145036E-004
   3.0000000000000165E-004    -1.1787312541855499E-004
   4.0000000000000452E-004    -1.2355437502264977E-004
   5.0000000000000044E-004    -1.2948393123224378E-004
   6.0000000000000331E-004    -1.3567126006819308E-004
   6.9999999999999923E-004    -1.4212616952136159E-004
   8.0000000000000210E-004    -1.4885872951708734E-004
   8.9999999999999802E-004    -1.5587937377858907E-004
   1.0000000000000009E-003    -1.6319884161930531E-004
   1.1000000000000038E-003    -1.7082820704672486E-004
   1.1999999999999997E-003    -1.7877892241813242E-004
   1.3000000000000025E-003    -1.8706276023294777E-004
   1.3999999999999985E-003    -1.9569184223655611E-004
   1.5000000000000013E-003    -2.0467869762796909E-004
   1.6000000000000042E-003    -2.1403621940407902E-004
   1.7000000000000001E-003    -2.2377764980774373E-004
   1.8000000000000030E-003    -2.3391663853544742E-004
   1.8999999999999989E-003    -2.4446722818538547E-004
   2.0000000000000018E-003    -2.5544385425746441E-004
   2.1000000000000046E-003    -2.6686134515330195E-004
   2.2000000000000006E-003    -2.7873489307239652E-004
   2.3000000000000034E-003    -2.9108015587553382E-004
   2.3999999999999994E-003    -3.0391314066946507E-004
   2.5000000000000022E-003    -3.1725032022222877E-004
   2.5999999999999981E-003    -3.3110851654782891E-004
   2.7000000000000010E-003    -3.4550501732155681E-004
   2.8000000000000039E-003    -3.6045745946466923E-004
   2.8999999999999998E-003    -3.7598394555971026E-004
   3.0000000000000027E-003    -3.9210301474668086E-004
   3.0999999999999986E-003    -4.0883358451537788E-004
   3.2000000000000015E-003    -4.2619500891305506E-004
   3.3000000000000043E-003    -4.4420704944059253E-004
   3.4000000000000002E-003    -4.6288987505249679E-004
   3.5000000000000031E-003    -4.8226414946839213E-004
   3.5999999999999990E-003    -5.0235091475769877E-004
   3.7000000000000019E-003    -5.2317162044346333E-004
   3.7999999999999978E-003    -5.4474821081385016E-004
   3.9000000000000007E-003    -5.6710297940298915E-004
   4.0000000000000036E-003    -5.9025868540629745E-004
   4.0999999999999995E-003    -6.1423849547281861E-004
   4.2000000000000023E-003    -6.3906610012054443E-004
   4.2999999999999983E-003    -6.6476553911343217E-004
   4.4000000000000011E-003    -6.9136125966906548E-004
   4.5000000000000040E-003    -7.1887811645865440E-004
   4.5999999999999999E-003    -7.4734148802235723E-004
   4.7000000000000028E-003    -7.7677704393863678E-004
   4.7999999999999987E-003    -8.0721097765490413E-004
   4.9000000000000016E-003    -8.3866983186453581E-004
   5.0000000000000044E-003    -8.7118049850687385E-004
   5.1000000000000004E-003    -9.0477027697488666E-004
   5.2000000000000032E-003    -9.3946693232282996E-004
   5.2999999999999992E-003    -9.7529846243560314E-004
   5.4000000000000020E-003    -1.0122932726517320E-003
   5.4999999999999979E-003    -1.0504802921786904E-003
   5.6000000000000008E-003    -1.0898885084316134E-003
   5.7000000000000037E-003    -1.1305472580716014E-003
   5.7999999999999996E-003    -1.1724863434210420E-003
   5.9000000000000025E-003    -1.2157357996329665E-003
   5.9999999999999984E-003    -1.2603257782757282E-003
   6.1000000000000013E-003    -1.3062868965789676E-003
   6.2000000000000041E-003    -1.3536497717723250E-003
   6.3000000000000000E-003    -1.4024454867467284E-003
   6.4000000000000029E-003    -1.4527052408084273E-003
   6.4999999999999988E-003    -1.5044602332636714E-003
   6.6000000000000017E-003    -1.5577418962493539E-003
   6.7000000000000046E-003    -1.6125820111483335E-003
   6.8000000000000005E-003    -1.6690122429281473E-003
   6.9000000000000034E-003    -1.7270643729716539E-003
   6.9999999999999993E-003    -1.7867702990770340E-003
   7.1000000000000021E-003    -1.8481618026271462E-003
   7.1999999999999981E-003    -1.9112708978354931E-003
   7.3000000000000009E-003    -1.9761293660849333E-003
   7.4000000000000038E-003    -2.0427687559276819E-003
   7.4999999999999997E-003    -2.1112209651619196E-003
   7.6000000000000026E-003    -2.1815171930938959E-003
   7.6999999999999985E-003    -2.2536891046911478E-003
   7.8000000000000014E-003    -2.3277678992599249E-003
   7.9000000000000042E-003    -2.4037843104451895E-003
   8.0000000000000002E-003    -2.4817690718919039E-003
   8.1000000000000030E-003    -2.5617524515837431E-003
   8.1999999999999990E-003    -2.6437642518430948E-003
   8.3000000000000018E-003    -2.7278342749923468E-003
   8.4000000000000047E-003    -2.8139913920313120E-003
   8.5000000000000006E-003    -2.9022644739598036E-003
   8.6000000000000035E-003    -2.9926814604550600E-003
   8.6999999999999994E-003    -3.0852695927023888E-003
   8.8000000000000023E-003    -3.1800558790564537E-003
   8.8999999999999982E-003    -3.2770663965493441E-003
   9.0000000000000011E-003    -3.3763265237212181E-003
   9.1000000000000039E-003    -3.4778609406203032E-003
   9.1999999999999998E-003    -3.5816933959722519E-003
   9.3000000000000027E-003    -3.6878464743494987E-003
   9.3999999999999986E-003    -3.7963422946631908E-003
   9.5000000000000015E-003    -3.9072018116712570E-003
   9.6000000000000044E-003    -4.0204445831477642E-003
   9.7000000000000003E-003    -4.1360897012054920E-003
   9.8000000000000032E-003    -4.2541548609733582E-003
   9.8999999999999991E-003    -4.3746563605964184E-003
   1.0000000000000002E-002    -4.4976091012358665E-003
   1.0100000000000005E-002    -4.6230275183916092E-003
   1.0200000000000001E-002    -4.7509232535958290E-003
   1.0300000000000004E-002    -4.8813074827194214E-003
   1.0400000000000000E-002    -5.0141899846494198E-003
   1.0500000000000002E-002    -5.1495786756277084E-003
   1.0599999999999998E-002    -5.2874791435897350E-003
   1.0700000000000001E-002    -5.4278965108096600E-003
   1.0800000000000004E-002    -5.5708340369164944E-003
   1.0900000000000000E-002    -5.7162921875715256E-003
   1.1000000000000003E-002    -5.8642700314521790E-003
   1.1099999999999999E-002    -6.0147652402520180E-003
   1.1200000000000002E-002    -6.1677731573581696E-003
   1.1300000000000004E-002    -6.3232867978513241E-003
   1.1400000000000000E-002    -6.4812973141670227E-003
   1.1500000000000003E-002    -6.6417935304343700E-003
   1.1599999999999999E-002    -6.8047624081373215E-003
   1.1700000000000002E-002    -6.9701881147921085E-003
   1.1800000000000005E-002    -7.1380534209311008E-003
   1.1900000000000001E-002    -7.3083373717963696E-003
   1.2000000000000004E-002    -7.4810176156461239E-003
   1.2100000000000000E-002    -7.6560690067708492E-003
   1.2200000000000003E-002    -7.8334631398320198E-003
   1.2299999999999998E-002    -8.0131711438298225E-003
   1.2400000000000001E-002    -8.1951580941677094E-003
   1.2500000000000004E-002    -8.3793895319104195E-003
   1.2600000000000000E-002    -8.5658254101872444E-003
   1.2700000000000003E-002    -8.7544256821274757E-003
   1.2799999999999999E-002    -8.9451447129249573E-003
   1.2900000000000002E-002    -9.1379368677735329E-003
   1.3000000000000005E-002    -9.3327509239315987E-003
   1.3100000000000001E-002    -9.5295337960124016E-003
   1.3200000000000003E-002    -9.7282296046614647E-003
   1.3299999999999999E-002    -9.9287796765565872E-003
   1.3400000000000002E-002    -1.0131121613085270E-002
   1.3500000000000005E-002    -1.0335191152989864E-002
   1.3600000000000001E-002    -1.0540919378399849E-002
   1.3700000000000004E-002    -1.0748234577476978E-002
   1.3800000000000000E-002    -1.0957062244415283E-002
   1.3900000000000003E-002    -1.1167326010763645E-002
   1.3999999999999999E-002    -1.1378943920135498E-002
   1.4100000000000001E-002    -1.1591832153499126E-002
   1.4200000000000004E-002    -1.1805903166532516E-002
   1.4300000000000000E-002    -1.2021067552268505E-002
   1.4400000000000003E-002    -1.2237230315804482E-002