  -4.0000000000000001E-002     0.0000000000000000
  -3.9899999999999998E-002     0.0000000000000000
  -3.9800000000000002E-002     0.0000000000000000
  -3.9699999999999999E-002     0.0000000000000000
  -3.9600000000000003E-002     0.0000000000000000
  -3.9500000000000000E-002     0.0000000000000000
  -3.9399999999999998E-002     0.0000000000000000
  -3.9300000000000002E-002    -7.1010753541701083E-030
  -3.9199999999999999E-002    -1.0334669192684412E-028
  -3.9100000000000003E-002    -7.9828871634841131E-028
  -3.9000000000000000E-002    -4.3456613297576057E-027
  -3.8900000000000004E-002    -1.8685892407282748E-026
  -3.8800000000000001E-002    -6.7464975986787218E-026
  -3.8699999999999998E-002    -2.1237400153137969E-025
  -3.8600000000000002E-002    -5.9775137693070590E-025
  -3.8500000000000000E-002    -1.5312550383591936E-024
  -3.8400000000000004E-002    -3.6166251570136653E-024
  -3.8300000000000001E-002    -7.9516912598124661E-024
  -3.8199999999999998E-002    -1.6391207933755363E-023
  -3.8100000000000002E-002    -3.1841603762073367E-023
  -3.7999999999999999E-002    -5.8491974326502594E-023
  -3.7900000000000003E-002    -1.0177865326928211E-022
  -3.7800000000000000E-002    -1.6771262659682045E-022
  -3.7699999999999997E-002    -2.6095276038700755E-022
  -3.7600000000000001E-002    -3.8066587580240331E-022
  -3.7499999999999999E-002    -5.1276355808884709E-022
  -3.7400000000000003E-002    -6.1654337985927355E-022
  -3.7300000000000000E-002    -6.0308947132149666E-022
  -3.7200000000000004E-002    -3.0203256070345656E-022
  -3.7100000000000001E-002     5.8751741564220874E-022
  -3.6999999999999998E-002     2.5668011968754600E-021
  -3.6900000000000002E-002     6.4335391301259879E-021
  -3.6799999999999999E-002     1.3410201622020251E-020
  -3.6700000000000003E-002     2.5310102734783056E-020
  -3.6600000000000001E-002     4.4746137879851197E-020
  -3.6499999999999998E-002     7.5385220103090387E-020
  -3.6400000000000002E-002     1.2224854181880848E-019
  -3.6299999999999999E-002     1.9205343866265957E-019
  -3.6200000000000003E-002     2.9358652269501447E-019
  -3.6100000000000000E-002     4.3809037945286374E-019
  -3.6000000000000004E-002     6.3963570525321227E-019
  -3.5900000000000001E-002     9.1544037977600571E-019
  -3.5799999999999998E-002     1.2860831686394163E-018
  -3.5700000000000003E-002     1.7755457516685155E-018
  -3.5600000000000000E-002     2.4110030338364134E-018
  -3.5500000000000004E-002     3.2222662069701341E-018
  -3.5400000000000001E-002     4.2407722645747598E-018
  -3.5299999999999998E-002     5.4980019307544716E-018
  -3.5200000000000002E-002     7.0232083536549139E-018
  -3.5099999999999999E-002     8.8403338669286341E-018
  -3.5000000000000003E-002     1.0964014287856420E-017
  -3.4900000000000000E-002     1.3394580127550361E-017
  -3.4799999999999998E-002     1.6112010475279516E-017
  -3.4700000000000002E-002     1.9068838322571237E-017
  -3.4599999999999999E-002     2.2182078932685052E-017
  -3.4500000000000003E-002     2.5324324427725067E-017
  -3.4400000000000000E-002     2.8314267180509885E-017
  -3.4299999999999997E-002     3.0907002370899348E-017
  -3.4200000000000001E-002     3.2784617287749609E-017
  -3.4099999999999998E-002     3.3547682168390013E-017
  -3.4000000000000002E-002     3.2708422095891481E-017
  -3.3900000000000000E-002     2.9686471403152552E-017
  -3.3799999999999997E-002     2.3808233477011069E-017
  -3.3700000000000001E-002     1.4310994448671570E-017
  -3.3599999999999998E-002     3.5296205837703321E-019
  -3.3500000000000002E-002    -1.8969540101812656E-017
  -3.3399999999999999E-002    -4.4596517193143411E-017
  -3.3300000000000003E-002    -7.7469362223027210E-017
  -3.3200000000000000E-002    -1.1848556157790580E-016
  -3.3099999999999997E-002    -1.6844261169612698E-016
  -3.3000000000000002E-002    -2.2797070895870701E-016
  -3.2899999999999999E-002    -2.9745465457180825E-016
  -3.2800000000000003E-002    -3.7694581676905446E-016
  -3.2700000000000000E-002    -4.6606564635585379E-016
  -3.2600000000000004E-002    -5.6390310022373839E-016
  -3.2500000000000001E-002    -6.6890923568092215E-016
  -3.2399999999999998E-002    -7.7879306666422930E-016
  -3.2300000000000002E-002    -8.9042330301779112E-016
  -3.2199999999999999E-002    -9.9974250714488982E-016
  -3.2100000000000004E-002    -1.1016995328426352E-015
  -3.2000000000000001E-002    -1.1902081857173453E-015
  -3.1899999999999998E-002    -1.2581394597721691E-015
  -3.1800000000000002E-002    -1.2973555907034104E-015
  -3.1699999999999999E-002    -1.2987939634675618E-015
  -3.1600000000000003E-002    -1.2526078899851667E-015
  -3.1500000000000000E-002    -1.1483714580649892E-015
  -3.1399999999999997E-002    -9.7535414718488715E-016
  -3.1300000000000001E-002    -7.2286741702189736E-016
  -3.1199999999999999E-002    -3.8068586359457511E-016
  -3.1100000000000003E-002     6.0457789866071735E-017
  -3.1000000000000000E-002     6.0831145845041760E-016
  -3.0900000000000000E-002     1.2684815150940430E-015
  -3.0800000000000001E-002     2.0437629440760299E-015
  -3.0699999999999998E-002     2.9334386534273265E-015
  -3.0600000000000002E-002     3.9325689864225080E-015
  -3.0499999999999999E-002     5.0312956960766187E-015
  -3.0400000000000000E-002     6.2141894145886108E-015
  -3.0300000000000001E-002     7.4596738081060374E-015
  -3.0200000000000001E-002     8.7395627907318805E-015
  -3.0100000000000002E-002     1.0018744787022629E-014
  -2.9999999999999999E-002     1.1255057474579595E-014
  -2.9899999999999999E-002     1.2399386384019634E-014
  -2.9800000000000000E-002     1.3396028031557947E-014
  -2.9700000000000001E-002     1.4183345691988025E-014
  -2.9600000000000001E-002     1.4694747717370088E-014
  -2.9499999999999998E-002     1.4860010167840148E-014
  -2.9400000000000003E-002     1.4606949038540589E-014
  -2.9300000000000000E-002     1.3863452118148263E-014
  -2.9200000000000000E-002     1.2559841339062744E-014
  -2.9100000000000001E-002     1.0631567495452324E-014
  -2.8999999999999998E-002     8.0221605030921195E-015
  -2.8900000000000002E-002     4.6864141887407891E-015
  -2.8799999999999999E-002     5.9370245667892686E-016
  -2.8700000000000000E-002    -4.2686387045240914E-015
  -2.8600000000000000E-002    -9.8919818154336778E-015
  -2.8500000000000001E-002    -1.6243243829107849E-014
  -2.8400000000000002E-002    -2.3261994538354273E-014
  -2.8299999999999999E-002    -3.0858020437947198E-014
  -2.8200000000000003E-002    -3.8909433592051106E-014
  -2.8100000000000000E-002    -4.7261493687177916E-014
  -2.8000000000000001E-002    -5.5726277231467732E-014
  -2.7900000000000001E-002    -6.4083309355768185E-014
  -2.7799999999999998E-002    -7.2081293578508338E-014
  -2.7700000000000002E-002    -7.9441001655176387E-014
  -2.7600000000000000E-002    -8.5859413159985634E-014
  -2.7500000000000000E-002    -9.1015128392622377E-014
  -2.7400000000000001E-002    -9.4575060033255642E-014
  -2.7299999999999998E-002    -9.6202358617182193E-014
  -2.7200000000000002E-002    -9.5565484752888213E-014
  -2.7099999999999999E-002    -9.2348327114232572E-014
  -2.7000000000000000E-002    -8.6261101208499724E-014
  -2.6900000000000000E-002    -7.7051925270117167E-014
  -2.6800000000000001E-002    -6.4518757285992574E-014
  -2.6700000000000002E-002    -4.8521348453460714E-014
  -2.6599999999999999E-002    -2.8992884270693287E-014
  -2.6500000000000003E-002    -5.9509634155214372E-015
  -2.6400000000000000E-002     2.0492404713373599E-014
  -2.6300000000000000E-002     5.0122344926345603E-014
  -2.6200000000000001E-002     8.2614529063087617E-014
  -2.6099999999999998E-002     1.1753073649758286E-013
  -2.6000000000000002E-002     1.5431706944341350E-013
  -2.5899999999999999E-002     1.9230508177170893E-013
  -2.5800000000000000E-002     2.3071610039060784E-013
  -2.5700000000000001E-002     2.6866880446916892E-013
  -2.5599999999999998E-002     3.0519048700091228E-013
  -2.5500000000000002E-002     3.3923157882076165E-013
  -2.5399999999999999E-002     3.6968388660052592E-013
  -2.5300000000000000E-002     3.9540194630437536E-013
  -2.5200000000000000E-002     4.1522739462164273E-013
  -2.5100000000000001E-002     4.2801607962803310E-013
  -2.5000000000000001E-002     4.3266725454571687E-013
  -2.4899999999999999E-002     4.2815429095781519E-013
  -2.4800000000000003E-002     4.1355649907482565E-013
  -2.4700000000000000E-002     3.8809086940853807E-013
  -2.4600000000000000E-002     3.5114340055831884E-013
  -2.4500000000000001E-002     3.0229901136663197E-013
  -2.4399999999999998E-002     2.4136891587072272E-013
  -2.4299999999999999E-002     1.6841510434704334E-013
  -2.4199999999999999E-002     8.3770713411414663E-014
  -2.4100000000000000E-002    -1.1943974354208443E-014
  -2.4000000000000000E-002    -1.1781154726497412E-013
  -2.3900000000000001E-002    -2.3261281686833644E-013
  -2.3800000000000002E-002    -3.5482903556655656E-013
  -2.3699999999999999E-002    -4.8265056798715408E-013
  -2.3599999999999999E-002    -6.1399294499631821E-013
  -2.3500000000000000E-002    -7.4651925236721007E-013
  -2.3400000000000001E-002    -8.7766974430548378E-013
  -2.3300000000000001E-002    -1.0046978688351591E-012
  -2.3199999999999998E-002    -1.1247122619826180E-012
  -2.3099999999999999E-002    -1.2347237079547289E-012
  -2.3000000000000000E-002    -1.3316971928594765E-012
  -2.2900000000000000E-002    -1.4126070993102646E-012
  -2.2800000000000001E-002    -1.4744954618555290E-012
  -2.2700000000000001E-002    -1.5145310679809676E-012
  -2.2599999999999999E-002    -1.5300700226934499E-012
  -2.2499999999999999E-002    -1.5187144559165703E-012
  -2.2400000000000000E-002    -1.4783701929993508E-012
  -2.2300000000000000E-002    -1.4073010872134268E-012
  -2.2200000000000001E-002    -1.3041801501252705E-012
  -2.2100000000000002E-002    -1.1681349564719865E-012
  -2.1999999999999999E-002    -9.9878850781647952E-013
  -2.1899999999999999E-002    -7.9629312862459217E-013
  -2.1800000000000000E-002    -5.6135810663140525E-013
  -2.1700000000000001E-002    -2.9527090200079069E-013
  -2.1600000000000001E-002     8.9673367873360294E-017
  -2.1499999999999998E-002     3.2224649200491544E-013
  -2.1399999999999999E-002     6.6812577450446922E-013
  -2.1299999999999999E-002     1.0340635395956186E-012
  -2.1200000000000000E-002     1.4158213278952160E-012
  -2.1100000000000001E-002     1.8086066407373375E-012
  -2.1000000000000001E-002     2.2071006694125506E-012
  -2.0899999999999998E-002     2.6054920464453278E-012
  -2.0799999999999999E-002     2.9975162008983575E-012
  -2.0700000000000000E-002     3.3765028695925293E-012
  -2.0600000000000000E-002     3.7354269906424715E-012
  -2.0500000000000001E-002     4.0669680709455771E-012
  -2.0400000000000001E-002     4.3635767969558849E-012
  -2.0299999999999999E-002     4.6175480347847469E-012
  -2.0199999999999999E-002     4.8211023539265333E-012
  -2.0100000000000000E-002     4.9664780492937890E-012
  -2.0000000000000000E-002     5.0460296486058907E-012
  -1.9900000000000001E-002     5.0523405102916553E-012
  -1.9799999999999998E-002     4.9783436852006763E-012
  -1.9699999999999999E-002     4.8174558845269235E-012
  -1.9599999999999999E-002     4.5637227584070035E-012
  -1.9500000000000000E-002     4.2119743872112433E-012
  -1.9400000000000001E-002     3.7579931588096109E-012
  -1.9300000000000001E-002     3.1986900057690831E-012
  -1.9199999999999998E-002     2.5322873342690196E-012
  -1.9099999999999999E-002     1.7585086644684931E-012
  -1.9000000000000000E-002     8.7876632500578118E-013
  -1.8900000000000000E-002    -1.0364671050876905E-013
  -1.8800000000000001E-002    -1.1833814546855175E-012
  -1.8700000000000001E-002    -2.3528677442580835E-012
  -1.8599999999999998E-002    -3.6021646487036488E-012
  -1.8499999999999999E-002    -4.9188435899835752E-012
  -1.8400000000000000E-002    -6.2879033735567256E-012
  -1.8300000000000000E-002    -7.6917274138531444E-012
  -1.8200000000000001E-002    -9.1100878991844213E-012
  -1.8100000000000002E-002    -1.0520212576553568E-011
  -1.7999999999999999E-002    -1.1896911563919987E-011
  -1.7899999999999999E-002    -1.3212771664357591E-011
  -1.7800000000000000E-002    -1.4438430565795212E-011
  -1.7700000000000000E-002    -1.5542929462375095E-011
  -1.7600000000000001E-002    -1.6494143002797457E-011
  -1.7499999999999998E-002    -1.7259290930994385E-011
  -1.7399999999999999E-002    -1.7805530362839741E-011
  -1.7299999999999999E-002    -1.8100615454479634E-011
  -1.7200000000000000E-002    -1.8113628695578739E-011
  -1.7100000000000001E-002    -1.7815766052339764E-011
  -1.7000000000000001E-002    -1.7181159134554610E-011
  -1.6899999999999998E-002    -1.6187737055823357E-011
  -1.6799999999999999E-002    -1.4818081935034848E-011
  -1.6700000000000000E-002    -1.3060280730214150E-011
  -1.6600000000000000E-002    -1.0908746201995199E-011
  -1.6500000000000001E-002    -8.3649745326421656E-012
  -1.6400000000000001E-002    -5.4382268225130356E-012
  -1.6299999999999999E-002    -2.1460942332262920E-012
  -1.6199999999999999E-002     1.4850615565448148E-012
  -1.6100000000000000E-002     5.4198208162769813E-012
  -1.6000000000000000E-002     9.6136016509073100E-012
  -1.5900000000000001E-002     1.4012750836709791E-011
  -1.5799999999999998E-002     1.8554835775477911E-011
  -1.5699999999999999E-002     2.3169176894331476E-011
  -1.5599999999999999E-002     2.7777590241310141E-011
  -1.5500000000000000E-002     3.2295378074840667E-011
  -1.5400000000000000E-002     3.6632535647629651E-011
  -1.5300000000000001E-002     4.0695174486627839E-011
  -1.5199999999999998E-002     4.4387146834903302E-011
  -1.5099999999999999E-002     4.7611840332679589E-011
  -1.4999999999999999E-002     5.0274137163250610E-011
  -1.4900000000000000E-002     5.2282442661968294E-011
  -1.4800000000000001E-002     5.3550828669792568E-011
  -1.4700000000000001E-002     5.4001169638611832E-011
  -1.4599999999999998E-002     5.3565260637237978E-011
  -1.4499999999999999E-002     5.2186879794011126E-011
  -1.4400000000000000E-002     4.9823674798874095E-011
  -1.4300000000000000E-002     4.6448926178931218E-011
  -1.4200000000000001E-002     4.2053027247988420E-011
  -1.4099999999999998E-002     3.6644723568578913E-011
  -1.3999999999999999E-002     3.0251982048423676E-011
  -1.3899999999999999E-002     2.2922543854549458E-011
  -1.3800000000000000E-002     1.4724066359402916E-011
  -1.3700000000000000E-002     5.7438455793474144E-012
  -1.3600000000000001E-002    -3.9118787395586055E-012
  -1.3499999999999998E-002    -1.4119066290727673E-011
  -1.3399999999999999E-002    -2.4737402084090454E-011
  -1.3299999999999999E-002    -3.5612263750571928E-011
  -1.3200000000000000E-002    -4.6577054107195267E-011
  -1.3100000000000001E-002    -5.7455831433746596E-011
  -1.3000000000000001E-002    -6.8066271398336479E-011
  -1.2899999999999998E-002    -7.8222801278456909E-011
  -1.2799999999999999E-002    -8.7739935570267407E-011
  -1.2699999999999999E-002    -9.6435655560089690E-011
  -1.2600000000000000E-002    -1.0413484246408691E-010
  -1.2500000000000001E-002    -1.1067258288230447E-010
  -1.2399999999999998E-002    -1.1589740153154443E-010
  -1.2299999999999998E-002    -1.1967419383625886E-010
  -1.2199999999999999E-002    -1.2188692176366540E-010
  -1.2100000000000000E-002    -1.2244096953528199E-010
  -1.2000000000000000E-002    -1.2126501614640231E-010
  -1.1900000000000001E-002    -1.1831253969832007E-010
  -1.1799999999999998E-002    -1.1356278127737903E-010
  -1.1699999999999999E-002    -1.0702124804812711E-010
  -1.1599999999999999E-002    -9.8719685436754661E-011
  -1.1500000000000000E-002    -8.8715559568447235E-011
  -1.1400000000000000E-002    -7.7091063371223474E-011
  -1.1300000000000001E-002    -6.3951735714675696E-011
  -1.1199999999999998E-002    -4.9424598997130531E-011
  -1.1099999999999999E-002    -3.3656039486945779E-011
  -1.0999999999999999E-002    -1.6809419788642990E-011
  -1.0900000000000000E-002     9.3751036611067803E-013
  -1.0800000000000001E-002     1.9395275831020707E-011
  -1.0699999999999998E-002     3.8365403581793369E-011
  -1.0599999999999998E-002     5.7643067578645215E-011
  -1.0499999999999999E-002     7.7019671613727748E-011
  -1.0400000000000000E-002     9.6285152989223101E-011
  -1.0300000000000000E-002     1.1523012695987528E-010
  -1.0200000000000001E-002     1.3364768495268873E-010
  -1.0099999999999998E-002     1.5133496458637402E-010
  -9.9999999999999985E-003     1.6809429814133394E-010
  -9.8999999999999991E-003     1.8373416388283839E-010
  -9.7999999999999997E-003     1.9806971310464957E-010
  -9.7000000000000003E-003     2.1092318681074763E-010
  -9.6000000000000009E-003     2.2212396462781084E-010
  -9.4999999999999980E-003     2.3150865747187883E-010
  -9.3999999999999986E-003     2.3892097401854538E-010
  -9.2999999999999992E-003     2.4421177861722150E-010
  -9.1999999999999998E-003     2.4723906063236083E-010
  -9.1000000000000004E-003     2.4786826297935691E-010
  -9.0000000000000011E-003     2.4597287379895103E-010
  -8.8999999999999982E-003     2.4143529503948875E-010
  -8.7999999999999988E-003     2.3414813192169773E-010
  -8.6999999999999994E-003     2.2401611756624480E-010
  -8.5999999999999965E-003     2.1095823619429542E-010
  -8.5000000000000006E-003     1.9491065790280044E-010
  -8.3999999999999977E-003     1.7582990557420778E-010
  -8.3000000000000018E-003     1.5369650974817666E-010
  -8.1999999999999990E-003     1.2851915102322425E-010
  -8.0999999999999961E-003     1.0033876815622629E-010
  -8.0000000000000002E-003     6.9233032468375999E-011
  -7.8999999999999973E-003     3.5320700382953298E-011
  -7.8000000000000014E-003    -1.2342656490161241E-012
  -7.6999999999999985E-003    -4.0218926849196520E-011
  -7.6000000000000026E-003    -8.1368109981091563E-011
  -7.4999999999999997E-003    -1.2436206704130191E-010
  -7.3999999999999969E-003    -1.6882498310453798E-010
  -7.3000000000000009E-003    -2.1432460357433532E-010
  -7.1999999999999981E-003    -2.6037322606937082E-010
  -7.1000000000000021E-003    -3.0643005505876537E-010
  -6.9999999999999993E-003    -3.5190510823419207E-010
  -6.8999999999999964E-003    -3.9616462088962257E-010
  -6.8000000000000005E-003    -4.3853827481337315E-010
  -6.6999999999999976E-003    -4.7832767775379099E-010
  -6.6000000000000017E-003    -5.1481654236323565E-010
  -6.4999999999999988E-003    -5.4728214681388790E-010
  -6.3999999999999960E-003    -5.7500795006468597E-010
  -6.3000000000000000E-003    -5.9729734225392255E-010
  -6.1999999999999972E-003    -6.1348745409015494E-010
  -6.1000000000000013E-003    -6.2296404830788794E-010
  -5.9999999999999984E-003    -6.2517607346607410E-010
  -5.9000000000000025E-003    -6.1964946535027844E-010
  -5.7999999999999996E-003    -6.0600081922588148E-010
  -5.6999999999999967E-003    -5.8394954522363673E-010
  -5.6000000000000008E-003    -5.5332857995085479E-010
  -5.4999999999999979E-003    -5.1409304696371380E-010
  -5.4000000000000020E-003    -4.6632684470322837E-010
  -5.2999999999999992E-003    -4.1024698149904700E-010
  -5.1999999999999963E-003    -3.4620443178123025E-010
  -5.1000000000000004E-003    -2.7468317424453471E-010
  -4.9999999999999975E-003    -1.9629546696261680E-010
  -4.9000000000000016E-003    -1.1177460678415699E-010
  -4.7999999999999987E-003    -2.1964497780074123E-011
  -4.6999999999999958E-003     7.2193164395168557E-011
  -4.5999999999999999E-003     1.6967434894694866E-010
  -4.4999999999999971E-003     2.6939028032024126E-010
  -4.4000000000000011E-003     3.7020670471634711E-010
  -4.2999999999999983E-003     4.7096439221072343E-010
  -4.2000000000000023E-003     5.7050051247029564E-010
  -4.0999999999999995E-003     6.6767010907252323E-010
  -3.9999999999999966E-003     7.6136740357785934E-010
  -3.9000000000000007E-003     8.5054584338286079E-010
  -3.7999999999999978E-003     9.3423695999730378E-010
  -3.7000000000000019E-003     1.0115668429499062E-009
  -3.5999999999999990E-003     1.0817705357248465E-009
  -3.4999999999999962E-003     1.1442030350215826E-009
  -3.4000000000000002E-003     1.1983469367617518E-009
  -3.2999999999999974E-003     1.2438170750710933E-009
  -3.2000000000000015E-003     1.2803605048348478E-009
  -3.0999999999999986E-003     1.3078536920871048E-009
  -2.9999999999999957E-003     1.3262949654361432E-009
  -2.8999999999999998E-003     1.3357941582578651E-009
  -2.7999999999999969E-003     1.3365586783935062E-009
  -2.7000000000000010E-003     1.3288765197845185E-009
  -2.5999999999999981E-003     1.3130975628676330E-009
  -2.5000000000000022E-003     1.2896124981537257E-009
  -2.3999999999999994E-003     1.2588305422944119E-009
  -2.2999999999999965E-003     1.2211576289279993E-009
  -2.2000000000000006E-003     1.1769737189107516E-009
  -2.0999999999999977E-003     1.1266125593313882E-009
  -2.0000000000000018E-003     1.0703420098336282E-009
  -1.8999999999999989E-003     1.0083479038196925E-009
  -1.7999999999999960E-003     9.4072090179600837E-010
  -1.7000000000000001E-003     8.6744650767532190E-010
  -1.5999999999999973E-003     7.8840048529774384E-010
  -1.5000000000000013E-003     7.0334807288731502E-010
  -1.3999999999999985E-003     6.1194818868962974E-010
  -1.2999999999999956E-003     5.1376310742247325E-010
  -1.1999999999999997E-003     4.0827278385223745E-010
  -1.0999999999999968E-003     2.9489377251974724E-010
  -1.0000000000000009E-003     1.7300285087489766E-010
  -8.9999999999999802E-004     4.1964554296957176E-011
  -8.0000000000000210E-004    -9.8837856547500968E-011
  -6.9999999999999923E-004    -2.4996880109695590E-010
  -5.9999999999999637E-004    -4.1190484556796668E-010
  -5.0000000000000044E-004    -5.8499817262267742E-010
  -3.9999999999999758E-004    -7.6943973784006346E-010
  -3.0000000000000165E-004    -9.6522337708877512E-010
  -1.9999999999999879E-004    -1.1721115231513056E-009
  -9.9999999999995925E-005    -1.3896034933798131E-009
   0.0000000000000000         -1.6169076471404267E-009
   1.0000000000000286E-004    -1.8529169271998584E-009
   1.9999999999999879E-004    -2.0961897538687579E-009
   3.0000000000000165E-004    -2.3449366910967599E-009
   4.0000000000000452E-004    -2.5970124476291683E-009
   5.0000000000000044E-004    -2.8499146070759370E-009
   6.0000000000000331E-004    -3.1007878555219849E-009
   6.9999999999999923E-004    -3.3464359606722845E-009
   8.0000000000000210E-004    -3.5833392089313279E-009
   8.9999999999999802E-004    -3.8076774229666629E-009
   1.0000000000000009E-003    -4.0153601238845545E-009
   1.1000000000000038E-003    -4.2020613210535811E-009
   1.1999999999999997E-003    -4.3632590121052909E-009
   1.3000000000000025E-003    -4.4942798343405481E-009
   1.3999999999999985E-003    -4.5903467493523049E-009
   1.5000000000000013E-003    -4.6466289106843547E-009
   1.6000000000000042E-003    -4.6582985060321545E-009
   1.7000000000000001E-003    -4.6205838069551531E-009
   1.8000000000000030E-003    -4.5288284928137902E-009
   1.8999999999999989E-003    -4.3785511567304956E-009
   2.0000000000000018E-003    -4.1655046826828200E-009
   2.1000000000000046E-003    -3.8857371942432289E-009
   2.2000000000000006E-003    -3.5356546206743356E-009
   2.3000000000000034E-003    -3.1120841870413939E-009
   2.3999999999999994E-003    -2.6123373812541411E-009
   2.5000000000000022E-003    -2.0342752254613813E-009
   2.5999999999999981E-003    -1.3763750192292905E-009
   2.7000000000000010E-003    -6.3779883230100137E-010
   2.8000000000000039E-003     1.8153614838352943E-010
   2.8999999999999998E-003     1.0808851705799501E-009
   3.0000000000000027E-003     2.0585986398139096E-009
   3.0999999999999986E-003     3.1120446303340549E-009
   3.2000000000000015E-003     4.2375247920456885E-009
   3.3000000000000043E-003     5.4301892587044410E-009
   3.4000000000000002E-003     6.6839466100544043E-009
   3.5000000000000031E-003     7.9913704761683682E-009
   3.5999999999999990E-003     9.3436030135406488E-009
   3.7000000000000019E-003     1.0730256235149802E-008
   3.7999999999999978E-003     1.2139309797714133E-008
   3.9000000000000007E-003     1.3557007945130256E-008
   4.0000000000000036E-003     1.4967754382578881E-008
   4.0999999999999995E-003     1.6354010562190853E-008
   4.2000000000000023E-003     1.7696193283212444E-008
   4.2999999999999983E-003     1.8972570635499342E-008
   4.4000000000000011E-003     2.0159169654828823E-008
   4.5000000000000040E-003     2.1229681811999479E-008
   4.5999999999999999E-003     2.2155378218137854E-008
   4.7000000000000028E-003     2.2905031461407062E-008
   4.7999999999999987E-003     2.3444841255448542E-008
   4.9000000000000016E-003     2.3738378154265060E-008
   5.0000000000000044E-003     2.3746523050602732E-008
   5.1000000000000004E-003     2.3427429401567884E-008
   5.2000000000000032E-003     2.2736483132568145E-008
   5.2999999999999992E-003     2.1626289625244422E-008
   5.4000000000000020E-003     2.0046646322387917E-008
   5.4999999999999979E-003     1.7944546754464595E-008
   5.6000000000000008E-003     1.5264177289855353E-008
   5.7000000000000037E-003     1.1946918692632746E-008
   5.7999999999999996E-003     7.9313731643823703E-009
   5.9000000000000025E-003     3.1533593877793533E-009
   5.9999999999999984E-003    -2.4540597958537564E-009
   6.1000000000000013E-003    -8.9605695971019182E-009
   6.2000000000000041E-003    -1.6438598044897117E-008
   6.3000000000000000E-003    -2.4963314236658773E-008
   6.4000000000000029E-003    -3.4612633339523124E-008
   6.4999999999999988E-003    -4.5467251143733282E-008
   6.6000000000000017E-003    -5.7610673317808896E-008
   6.7000000000000046E-003    -7.1129273463404419E-008
   6.8000000000000005E-003    -8.6112364449244233E-008
   6.9000000000000034E-003    -1.0265231208626645E-007
   6.9999999999999993E-003    -1.2084464529292078E-007
   7.1000000000000021E-003    -1.4078822566239811E-007
   7.1999999999999981E-003    -1.6258541259719913E-007
   7.3000000000000009E-003    -1.8634229609976468E-007
   7.4000000000000038E-003    -2.1216890645639694E-007
   7.4999999999999997E-003    -2.4017952199337248E-007
   7.6000000000000026E-003    -2.7049294570643233E-007
   7.6999999999999985E-003    -3.0323291137525277E-007
   7.8000000000000014E-003    -3.3852837157865556E-007
   7.9000000000000042E-003    -3.7651399181401984E-007
   8.0000000000000002E-003    -4.1733052132237352E-007
   8.1000000000000030E-003    -4.6112537066763850E-007
   8.1999999999999990E-003    -5.0805296205859880E-007
   8.3000000000000018E-003    -5.5827543999638166E-007
   8.4000000000000047E-003    -6.1196318949557029E-007
   8.5000000000000006E-003    -6.6929538850578676E-007
   8.6000000000000035E-003    -7.3046068683965904E-007
   8.6999999999999994E-003    -7.9565789382733509E-007
   8.8000000000000023E-003    -8.6509668784629321E-007
   8.8999999999999982E-003    -9.3899829745164283E-007
   9.0000000000000011E-003    -1.0175962884970655E-006
   9.1000000000000039E-003    -1.1011374841875229E-006
   9.1999999999999998E-003    -1.1898825661784748E-006
   9.3000000000000027E-003    -1.2841070621168307E-006
   9.3999999999999986E-003    -1.3841023460758588E-006
   9.5000000000000015E-003    -1.4901763287122127E-006
   9.6000000000000044E-003    -1.6026546540385355E-006
   9.7000000000000003E-003    -1.7218815907524121E-006
   9.8000000000000032E-003    -1.8482211037155065E-006
   9.8999999999999991E-003    -1.9820579399420489E-006
   1.0000000000000002E-002    -2.1237987493389982E-006
   1.0100000000000005E-002    -2.2738733281231232E-006
   1.0200000000000001E-002    -2.4327357522635074E-006
   1.0300000000000004E-002    -2.6008656458969949E-006
   1.0400000000000000E-002    -2.7787694552991714E-006
   1.0500000000000002E-002    -2.9669819940038720E-006
   1.0599999999999998E-002    -3.1660675736597735E-006
   1.0700000000000001E-002    -3.3766221339828468E-006
   1.0800000000000004E-002    -3.5992733494645237E-006
   1.0900000000000000E-002    -3.8346840347344904E-006
   1.1000000000000003E-002    -4.0835518832103109E-006
   1.1099999999999999E-002    -4.3466126611591678E-006
   1.1200000000000002E-002    -4.6246415275289553E-006
   1.1300000000000004E-002    -4.9184542325614579E-006
   1.1400000000000000E-002    -5.2289093595493244E-006
   1.1500000000000003E-002    -5.5569108815902618E-006
   1.1599999999999999E-002    -5.9034089032560537E-006
   1.1700000000000002E-002    -6.2694026062590066E-006
   1.1800000000000005E-002    -6.6559415818356065E-006
   1.1900000000000001E-002    -7.0641295946874395E-006
   1.2000000000000004E-002    -7.4951243706129170E-006
   1.2100000000000000E-002    -7.9501420979361214E-006
   1.2200000000000003E-002    -8.4304584008926066E-006
   1.2299999999999998E-002    -8.9374120194402190E-006
   1.2400000000000001E-002    -9.4724058047460027E-006
   1.2500000000000004E-002    -1.0036910912926448E-005
   1.2600000000000000E-002    -1.0632467426731208E-005
   1.2700000000000003E-002    -1.1260690025269607E-005
   1.2799999999999999E-002    -1.1923268953716299E-005
   1.2900000000000002E-002    -1.2621971629265223E-005
   1.3000000000000005E-002    -1.3358650360302264E-005
   1.3100000000000001E-002    -1.4135239374782162E-005
   1.3200000000000003E-002    -1.4953763255726712E-005
   1.3299999999999999E-002    -1.5816335686872971E-005
   1.3400000000000002E-002    -1.6725168412447619E-005
   1.3500000000000005E-002    -1.7682571416891148E-005
   1.3600000000000001E-002    -1.8690954506921391E-005
   1.3700000000000004E-002    -1.9752835728848528E-005
   1.3800000000000000E-002    -2.0870843299521558E-005
   1.3900000000000003E-002    -2.2047717437533211E-005
   1.3999999999999999E-002    -2.3286315910668461E-005
   1.4100000000000001E-002    -2.4589624675029021E-005
   1.4200000000000004E-002    -2.5960749626661484E-005
   1.4300000000000000E-002    -2.7402932112716710E-005
   1.4400000000000003E-002    -2.8919546605332345E-005
   1.4499999999999999E-002    -3.0514112435221570E-005