  -4.0000000000000001E-002     0.0000000000000000
  -3.9899999999999998E-002     0.0000000000000000
  -3.9800000000000002E-002     0.0000000000000000
  -3.9699999999999999E-002     0.0000000000000000
  -3.9600000000000003E-002     0.0000000000000000
  -3.9500000000000000E-002     0.0000000000000000
  -3.9399999999999998E-002     0.0000000000000000
  -3.9300000000000002E-002     0.0000000000000000
  -3.9199999999999999E-002     0.0000000000000000
  -3.9100000000000003E-002     0.0000000000000000
  -3.9000000000000000E-002    -2.5642304546741255E-039
  -3.8900000000000004E-002    -5.2868603246392139E-038
  -3.8800000000000001E-002    -5.6977432309469251E-037
  -3.8699999999999998E-002    -4.2706655383998207E-036
  -3.8600000000000002E-002    -2.4997002164606141E-035
  -3.8500000000000000E-002    -1.2165581337518525E-034
  -3.8400000000000004E-002    -5.1196539641878291E-034
  -3.8300000000000001E-002    -1.9132744620036877E-033
  -3.8199999999999998E-002    -6.4725231575450033E-033
  -3.8100000000000002E-002    -2.0108698437465097E-032
  -3.7999999999999999E-002    -5.8016676499099607E-032
  -3.7900000000000003E-002    -1.5682857881495549E-031
  -3.7800000000000000E-002    -4.0004809309331158E-031
  -3.7699999999999997E-002    -9.6865925490809722E-031
  -3.7600000000000001E-002    -2.2373321276940774E-030
  -3.7499999999999999E-002    -4.9497257211430321E-030
  -3.7400000000000003E-002    -1.0525477227658289E-029
  -3.7300000000000000E-002    -2.1577890392733695E-029
  -3.7200000000000004E-002    -4.2755750089690470E-029
  -3.7100000000000001E-002    -8.2064326320170835E-029
  -3.6999999999999998E-002    -1.5286597080737310E-028
  -3.6900000000000002E-002    -2.7680194606699790E-028
  -3.6799999999999999E-002    -4.8789982911625306E-028
  -3.6700000000000003E-002    -8.3811145983436274E-028
  -3.6600000000000001E-002    -1.4044289451619934E-027
  -3.6499999999999998E-002    -2.2975013418948152E-027
  -3.6400000000000002E-002    -3.6712511860076921E-027
  -3.6299999999999999E-002    -5.7322858863656703E-027
  -3.6200000000000003E-002    -8.7468049761730259E-027
  -3.6100000000000000E-002    -1.3041104899211688E-026
  -3.6000000000000004E-002    -1.8989561399581260E-026
  -3.5900000000000001E-002    -2.6980981214454635E-026
  -3.5799999999999998E-002    -3.7350490020850793E-026
  -3.5700000000000003E-002    -5.0259416036863252E-026
  -3.5600000000000000E-002    -6.5500402859471594E-026
  -3.5500000000000004E-002    -8.2199078293924015E-026
  -3.5400000000000001E-002    -9.8377826599101746E-026
  -3.5299999999999998E-002    -1.1034216563682191E-025
  -3.5200000000000002E-002    -1.1184706572495072E-025
  -3.5099999999999999E-002    -9.3000562401638541E-026
  -3.5000000000000003E-002    -3.8867962579656562E-026
  -3.4900000000000000E-002     7.2247314477673137E-026
  -3.4799999999999998E-002     2.7084560500202901E-025
  -3.4700000000000002E-002     5.9855807259775797E-025
  -3.4599999999999999E-002     1.1106659632760899E-024
  -3.4500000000000003E-002     1.8786440440064780E-024
  -3.4400000000000000E-002     2.9924633801435757E-024
  -3.4299999999999997E-002     4.5622650270971804E-024
  -3.4200000000000001E-002     6.7188703247302973E-024
  -3.4099999999999998E-002     9.6124247468554522E-024
  -3.4000000000000002E-002     1.3408290894146884E-023
  -3.3900000000000000E-002     1.8279109397990400E-023
  -3.3799999999999997E-002     2.4391781137825422E-023
  -3.3700000000000001E-002     3.1887963444124295E-023
  -3.3599999999999998E-002     4.0856567251792671E-023
  -3.3500000000000002E-002     5.1296819477143432E-023
  -3.3399999999999999E-002     6.3070470668814786E-023
  -3.3300000000000003E-002     7.5842160278779176E-023
  -3.3200000000000000E-002     8.9007447304238158E-023
  -3.3099999999999997E-002     1.0160885024375792E-022
  -3.3000000000000002E-002     1.1224141413602708E-022
  -3.2899999999999999E-002     1.1895080866356386E-022
  -3.2800000000000003E-002     1.1912904074104588E-022
  -3.2700000000000000E-002     1.0941488133640950E-022
  -3.2600000000000004E-002     8.5609230162050534E-023
  -3.2500000000000001E-002     4.2618257736219476E-023
  -3.2399999999999998E-002    -2.5559423073019165E-023
  -3.2300000000000002E-002    -1.2578210428906264E-022
  -3.2199999999999999E-002    -2.6562847518028688E-022
  -3.2100000000000004E-002    -4.5315033014347784E-022
  -3.2000000000000001E-002    -6.9648789330517493E-022
  -3.1899999999999998E-002    -1.0033212115160223E-021
  -3.1800000000000002E-002    -1.3801320708442952E-021
  -3.1699999999999999E-002    -1.8312558993637944E-021
  -3.1600000000000003E-002    -2.3577080935881715E-021
  -3.1500000000000000E-002    -2.9557820927354932E-021
  -3.1399999999999997E-002    -3.6154283389877723E-021
  -3.1300000000000001E-002    -4.3184430023654817E-021
  -3.1199999999999999E-002    -5.0365189767989052E-021
  -3.1100000000000003E-002    -5.7292366955787500E-021
  -3.1000000000000000E-002    -6.3421072514402191E-021
  -3.0900000000000000E-002    -6.8048110026902855E-021
  -3.0800000000000001E-002    -7.0298138228275124E-021
  -3.0699999999999998E-002    -6.9115803096078479E-021
  -3.0600000000000002E-002    -6.3266392163235476E-021
  -3.0499999999999999E-002    -5.1347781784886882E-021
  -3.0400000000000000E-002    -3.1816819676288140E-021
  -3.0300000000000001E-002    -3.0332189006242968E-022
  -3.0200000000000001E-002     3.6675871657087125E-021
  -3.0100000000000002E-002     8.8927893521845878E-021
  -2.9999999999999999E-002     1.5517119884973460E-020
  -2.9899999999999999E-002     2.3654412225735836E-020
  -2.9800000000000000E-002     3.3370669571239766E-020
  -2.9700000000000001E-002     4.4664612376475207E-020
  -2.9600000000000001E-002     5.7445916395960490E-020
  -2.9499999999999998E-002     7.1511676810375771E-020
  -2.9400000000000003E-002     8.6521915925613221E-020
  -2.9300000000000000E-002     1.0197522658114646E-019
  -2.9200000000000000E-002     1.1718594067265438E-019
  -2.9100000000000001E-002     1.3126452884891276E-019
  -2.8999999999999998E-002     1.4310329287213655E-019
  -2.8900000000000002E-002     1.5136963185080573E-019
  -2.8799999999999999E-002     1.5450949313378339E-019
  -2.8700000000000000E-002     1.5076352818165457E-019
  -2.8600000000000000E-002     1.3819893902030965E-019
  -2.8500000000000001E-002     1.1475945804451835E-019
  -2.8400000000000002E-002     7.8335929788635321E-020
  -2.8299999999999999E-002     2.6859522226290010E-020
  -2.8200000000000003E-002    -4.1581312799055135E-020
  -2.8100000000000000E-002    -1.2859959848451126E-019
  -2.8000000000000001E-002    -2.3534521443234224E-019
  -2.7900000000000001E-002    -3.6231906697106295E-019
  -2.7799999999999998E-002    -5.0916994038246221E-019
  -2.7700000000000002E-002    -6.7447965935571198E-019
  -2.7600000000000000E-002    -8.5554437726352957E-019
  -2.7500000000000000E-002    -1.0481619131965690E-018
  -2.7400000000000001E-002    -1.2464368992303766E-018
  -2.7299999999999998E-002    -1.4426188081216953E-018
  -2.7200000000000002E-002    -1.6269871302996849E-018
  -2.7099999999999999E-002    -1.7878026219085692E-018
  -2.7000000000000000E-002    -1.9113428735739764E-018
  -2.6900000000000000E-002    -1.9820399325773523E-018
  -2.6800000000000001E-002    -1.9827397273755722E-018
  -2.6700000000000002E-002    -1.8950991142949663E-018
  -2.6599999999999999E-002    -1.7001342982774428E-018
  -2.6500000000000003E-002    -1.3789315878218235E-018
  -2.6400000000000000E-002    -9.1352503361376292E-019
  -2.6300000000000000E-002    -2.8793821080847044E-019
  -2.6200000000000001E-002     5.1061900571929026E-019
  -2.6099999999999998E-002     1.4904184737938377E-018
  -2.6000000000000002E-002     2.6537767644194150E-018
  -2.5899999999999999E-002     3.9955553282332662E-018
  -2.5800000000000000E-002     5.5016489780325603E-018
  -2.5700000000000001E-002     7.1475311882696409E-018
  -2.5599999999999998E-002     8.8969321570355889E-018
  -2.5500000000000002E-002     1.0700731831605474E-017
  -2.5399999999999999E-002     1.2496176981988574E-017
  -2.5300000000000000E-002     1.4206507728881805E-017
  -2.5200000000000000E-002     1.5741111399263658E-017
  -2.5100000000000001E-002     1.6996306693614899E-017
  -2.5000000000000001E-002     1.7856839228466065E-017
  -2.4899999999999999E-002     1.8198198469293223E-017
  -2.4800000000000003E-002     1.7889807338959978E-017
  -2.4700000000000000E-002     1.6799133305361859E-017
  -2.4600000000000000E-002     1.4796727565717992E-017
  -2.4500000000000001E-002     1.1762173302355970E-017
  -2.4399999999999998E-002     7.5908834529858127E-018
  -2.4299999999999999E-002     2.2016044796267435E-018
  -2.4199999999999999E-002    -4.4555148981076651E-018
  -2.4100000000000000E-002    -1.2390535264417589E-017
  -2.4000000000000000E-002    -2.1565291746610751E-017
  -2.3900000000000001E-002    -3.1885251662742753E-017
  -2.3800000000000002E-002    -4.3192046321456642E-017
  -2.3699999999999999E-002    -5.5257124065142792E-017
  -2.3599999999999999E-002    -6.7776969165998346E-017
  -2.3500000000000000E-002    -8.0370377093089466E-017
  -2.3400000000000001E-002    -9.2578279150061472E-017
  -2.3300000000000001E-002    -1.0386660121133583E-016
  -2.3199999999999998E-002    -1.1363251389881859E-016
  -2.3099999999999999E-002    -1.2121459697726745E-016
  -2.3000000000000000E-002    -1.2590701392126846E-016
  -2.2900000000000000E-002    -1.2697804737840212E-016
  -2.2800000000000001E-002    -1.2369289626692532E-016
  -2.2700000000000001E-002    -1.1534060877651609E-016
  -2.2599999999999999E-002    -1.0126495936617894E-016
  -2.2499999999999999E-002    -8.0898535222927024E-017
  -2.2400000000000000E-002    -5.3799496168203899E-017
  -2.2300000000000000E-002    -1.9689883046412150E-017
  -2.2200000000000001E-002     2.1505620591582401E-017
  -2.2100000000000002E-002     6.9621886334457017E-017
  -2.1999999999999999E-002     1.2421810963378219E-016
  -2.1899999999999999E-002     1.8454681369210805E-016
  -2.1800000000000000E-002     2.4952905058820004E-016
  -2.1700000000000001E-002     3.1773751686637545E-016
  -2.1600000000000001E-002     3.8738969786358661E-016
  -2.1499999999999998E-002     4.5635260579996958E-016
  -2.1399999999999999E-002     5.2216108363143873E-016
  -2.1299999999999999E-002     5.8205065404617244E-016
  -2.1200000000000000E-002     6.3300630326841903E-016
  -2.1100000000000001E-002     6.7182762318609653E-016
  -2.1000000000000001E-002     6.9521070884888034E-016
  -2.0899999999999998E-002     6.9984572607581508E-016
  -2.0799999999999999E-002     6.8252983153509542E-016
  -2.0700000000000000E-002     6.4029306301585176E-016
  -2.0600000000000000E-002     5.7053434115574377E-016
  -2.0500000000000001E-002     4.7116514740463836E-016
  -2.0400000000000001E-002     3.4075598131514588E-016
  -2.0299999999999999E-002     1.7868142816972725E-016
  -2.0199999999999999E-002    -1.4741925195775129E-017
  -2.0100000000000000E-002    -2.3812997235162729E-016
  -2.0000000000000000E-002    -4.8892451663280485E-016
  -1.9900000000000001E-002    -7.6331136371473804E-016
  -1.9799999999999998E-002    -1.0561699347334786E-015
  -1.9699999999999999E-002    -1.3610592323394272E-015
  -1.9599999999999999E-002    -1.6702465868779809E-015
  -1.9500000000000000E-002    -1.9747825658658060E-015
  -1.9400000000000001E-002    -2.2646260172296765E-015
  -1.9300000000000001E-002    -2.5288215227089236E-015
  -1.9199999999999998E-002    -2.7557285202676682E-015
  -1.9099999999999999E-002    -2.9333030484289015E-015
  -1.9000000000000000E-002    -3.0494261832997825E-015
  -1.8900000000000000E-002    -3.0922769448266671E-015
  -1.8800000000000001E-002    -3.0507392961262635E-015
  -1.8700000000000001E-002    -2.9148362478711000E-015
  -1.8599999999999998E-002    -2.6761783622350965E-015
  -1.8499999999999999E-002    -2.3284152214544506E-015
  -1.8400000000000000E-002    -1.8676727085866580E-015
  -1.8300000000000000E-002    -1.2929630773361018E-015
  -1.8200000000000001E-002    -6.0654938797960857E-016
  -1.8100000000000002E-002     1.8575112248953626E-016
  -1.7999999999999999E-002     1.0743417560673987E-015
  -1.7899999999999999E-002     2.0457141636600652E-015
  -1.7800000000000000E-002     3.0824234105512579E-015
  -1.7700000000000000E-002     4.1631809117985159E-015
  -1.7600000000000001E-002     5.2630752166648535E-015
  -1.7499999999999998E-002     6.3539253272368833E-015
  -1.7399999999999999E-002     7.4047688011606716E-015
  -1.7299999999999999E-002     8.3824786033855764E-015
  -1.7200000000000000E-002     9.2525076481248837E-015
  -1.7100000000000001E-002     9.9797404904842721E-015
  -1.7000000000000001E-002     1.0529442003362737E-014
  -1.6899999999999998E-002     1.0868276358088139E-014
  -1.6799999999999999E-002     1.0965375979996635E-014
  -1.6700000000000000E-002     1.0793427444671065E-014
  -1.6600000000000000E-002     1.0329737892421538E-014
  -1.6500000000000001E-002     9.5572607851845612E-015
  -1.6400000000000001E-002     8.4655276427650188E-015
  -1.6299999999999999E-002     7.0514679707291139E-015
  -1.6199999999999999E-002     5.3200724872020690E-015
  -1.6100000000000000E-002     3.2848725435162714E-015
  -1.6000000000000000E-002     9.6820937480938214E-016
  -1.5900000000000001E-002    -1.5987278893721561E-015
  -1.5799999999999998E-002    -4.3761122892440382E-015
  -1.5699999999999999E-002    -7.3159446911468494E-015
  -1.5599999999999999E-002    -1.0362768789232667E-014
  -1.5500000000000000E-002    -1.3454634711321679E-014
  -1.5400000000000000E-002    -1.6524291429533683E-014
  -1.5300000000000001E-002    -1.9500570388607426E-014
  -1.5199999999999998E-002    -2.2309943199490603E-014
  -1.5099999999999999E-002    -2.4878196223476583E-014
  -1.4999999999999999E-002    -2.7132179695240483E-014
  -1.4900000000000000E-002    -2.9001581409830723E-014
  -1.4800000000000001E-002    -3.0420666528342688E-014
  -1.4700000000000001E-002    -3.1329915739638711E-014
  -1.4599999999999998E-002    -3.1677534673060087E-014
  -1.4499999999999999E-002    -3.1420765105429418E-014
  -1.4400000000000000E-002    -3.0526952222564158E-014
  -1.4300000000000000E-002    -2.8974330665851658E-014
  -1.4200000000000001E-002    -2.6752541222347000E-014
  -1.4099999999999998E-002    -2.3862801925428334E-014
  -1.3999999999999999E-002    -2.0317796246447847E-014
  -1.3899999999999999E-002    -1.6141254660455816E-014
  -1.3800000000000000E-002    -1.1367278713908698E-014
  -1.3700000000000000E-002    -6.0394448638109374E-015
  -1.3600000000000001E-002    -2.0974371453231854E-016
  -1.3499999999999998E-002     6.0625756395345579E-015
  -1.3399999999999999E-002     1.2712182380966025E-014
  -1.3299999999999999E-002     1.9668784355668552E-014
  -1.3200000000000000E-002     2.6858106938563303E-014
  -1.3100000000000001E-002     3.4202665249701350E-014
  -1.3000000000000001E-002     4.1622257127438972E-014
  -1.2899999999999998E-002     4.9034110512170478E-014
  -1.2799999999999999E-002     5.6352675076223185E-014
  -1.2699999999999999E-002     6.3489008972003602E-014
  -1.2600000000000000E-002     7.0349819990701140E-014
  -1.2500000000000001E-002     7.6836127250231451E-014
  -1.2399999999999998E-002     8.2841706042745267E-014
  -1.2299999999999998E-002     8.8251332782361691E-014
  -1.2199999999999999E-002     9.2939009624110752E-014
  -1.2100000000000000E-002     9.6766304279356785E-014
  -1.2000000000000000E-002     9.9580974434292091E-014
  -1.1900000000000001E-002     1.0121612071698968E-013
  -1.1799999999999998E-002     1.0149003761960457E-013
  -1.1699999999999999E-002     1.0020693855857660E-013
  -1.1599999999999999E-002     9.7158866780959474E-014
  -1.1500000000000000E-002     9.2128832774457381E-014
  -1.1400000000000000E-002     8.4895428902921621E-014
  -1.1300000000000001E-002     7.5238982253679476E-014
  -1.1199999999999998E-002     6.2949306683067474E-014
  -1.1099999999999999E-002     4.7835040507641924E-014
  -1.0999999999999999E-002     2.9734468197113034E-014
  -1.0900000000000000E-002     8.5276676738414887E-015
  -1.0800000000000001E-002    -1.5850290372744491E-014
  -1.0699999999999998E-002    -4.3395418958562179E-014
  -1.0599999999999998E-002    -7.4020630391139625E-014
  -1.0499999999999999E-002    -1.0754176954334838E-013
  -1.0400000000000000E-002    -1.4366453989986261E-013
  -1.0300000000000000E-002    -1.8197280433809165E-013
  -1.0200000000000001E-002    -2.2191918983872905E-013
  -1.0099999999999998E-002    -2.6281854839139973E-013
  -9.9999999999999985E-003    -3.0384486701846847E-013
  -9.8999999999999991E-003    -3.4403274500049985E-013
  -9.7999999999999997E-003    -3.8228350606600570E-013
  -9.7000000000000003E-003    -4.1737677224963632E-013
  -9.6000000000000009E-003    -4.4798800086232049E-013
  -9.4999999999999980E-003    -4.7271187615313681E-013
  -9.3999999999999986E-003    -4.9009185381851395E-013
  -9.2999999999999992E-003    -4.9865585835875970E-013
  -9.1999999999999998E-003    -4.9695740144545253E-013
  -9.1000000000000004E-003    -4.8362138946322908E-013
  -9.0000000000000011E-003    -4.5739470154113060E-013
  -8.8999999999999982E-003    -4.1719904440851163E-013
  -8.7999999999999988E-003    -3.6218594855023933E-013
  -8.6999999999999994E-003    -2.9179152041640399E-013
  -8.5999999999999965E-003    -2.0578956832877082E-013
  -8.5000000000000006E-003    -1.0434119117764401E-013
  -8.3999999999999977E-003     1.1961264803335512E-014
  -8.3000000000000018E-003     1.4205792846309212E-013
  -8.1999999999999990E-003     2.8439474083000182E-013
  -8.0999999999999961E-003     4.3690843044147387E-013
  -8.0000000000000002E-003     5.9702470831674015E-013
  -7.8999999999999973E-003     7.6167143338995436E-013
  -7.8000000000000014E-003     9.2730760136577883E-013
  -7.6999999999999985E-003     1.0899696943622583E-012
  -7.6000000000000026E-003     1.2453342393761724E-012
  -7.4999999999999997E-003     1.3887983645044510E-012
  -7.3999999999999969E-003     1.5155759676768743E-012
  -7.3000000000000009E-003     1.6208094979000554E-012
  -7.1999999999999981E-003     1.6996939879859729E-012
  -7.1000000000000021E-003     1.7476124714033148E-012
  -6.9999999999999993E-003     1.7602789885440284E-012
  -6.8999999999999964E-003     1.7338848455963896E-012
  -6.8000000000000005E-003     1.6652462828808945E-012
  -6.6999999999999976E-003     1.5519465053348558E-012
  -6.6000000000000017E-003     1.3924703404222250E-012
  -6.4999999999999988E-003     1.1863243677343038E-012
  -6.3999999999999960E-003     9.3413948451526174E-013
  -6.3000000000000000E-003     6.3775075715213903E-013
  -6.1999999999999972E-003     3.0025081813184196E-013
  -6.1000000000000013E-003    -7.3987325055653586E-014
  -5.9999999999999984E-003    -4.7932079312584808E-013
  -5.9000000000000025E-003    -9.0888283227688604E-013
  -5.7999999999999996E-003    -1.3546658369709141E-012
  -5.6999999999999967E-003    -1.8076416015075369E-012
  -5.6000000000000008E-003    -2.2579178110548881E-012
  -5.4999999999999979E-003    -2.6949291322825308E-012
  -5.4000000000000020E-003    -3.1076601795382297E-012
  -5.2999999999999992E-003    -3.4848942308263187E-012
  -5.1999999999999963E-003    -3.8154856878136467E-012
  -5.1000000000000004E-003    -4.0886460883626796E-012
  -4.9999999999999975E-003    -4.2942394432032849E-012
  -4.9000000000000016E-003    -4.4230786568066893E-012
  -4.7999999999999987E-003    -4.4672113230781463E-012
  -4.6999999999999958E-003    -4.4201925106235329E-012
  -4.5999999999999999E-003    -4.2773293587594630E-012
  -4.4999999999999971E-003    -4.0358931474582249E-012
  -4.4000000000000011E-003    -3.6952914686527727E-012
  -4.2999999999999983E-003    -3.2571894400396095E-012
  -4.2000000000000023E-003    -2.7255797445391305E-012
  -4.0999999999999995E-003    -2.1067928217960441E-012
  -3.9999999999999966E-003    -1.4094459106772650E-012
  -3.9000000000000007E-003    -6.4432926225391207E-013
  -3.7999999999999978E-003     1.7576936542536281E-013
  -3.7000000000000019E-003     1.0362994099996636E-012
  -3.5999999999999990E-003     1.9212368241455779E-012
  -3.4999999999999962E-003     2.8134233224369476E-012
  -3.4000000000000002E-003     3.6949436565958393E-012
  -3.2999999999999974E-003     4.5475363925906453E-012
  -3.2000000000000015E-003     5.3530218452335632E-012
  -3.0999999999999986E-003     6.0937396621774109E-012
  -2.9999999999999957E-003     6.7529809869015800E-012
  -2.8999999999999998E-003     7.3154017565801865E-012
  -2.7999999999999969E-003     7.7674091117363453E-012
  -2.7000000000000010E-003     8.0974992336391161E-012
  -2.5999999999999981E-003     8.2965483441665988E-012
  -2.5000000000000022E-003     8.3580373524960727E-012
  -2.3999999999999994E-003     8.2782036434081441E-012
  -2.2999999999999965E-003     8.0561191398431653E-012
  -2.2000000000000006E-003     7.6936894355394969E-012
  -2.0999999999999977E-003     7.1955687935831847E-012
  -2.0000000000000018E-003     6.5690009855290388E-012
  -1.8999999999999989E-003     5.8235859710931148E-012
  -1.7999999999999960E-003     4.9709823930765840E-012
  -1.7000000000000001E-003     4.0245528264148955E-012
  -1.5999999999999973E-003     2.9989717306722063E-012
  -1.5000000000000013E-003     1.9098008764706353E-012
  -1.3999999999999985E-003     7.7305609830213839E-013
  -1.2999999999999956E-003    -3.9522307952385982E-013
  -1.1999999999999997E-003    -1.5793810486872117E-012
  -1.0999999999999968E-003    -2.7645162634787335E-012
  -1.0000000000000009E-003    -3.9367983699356568E-012
  -8.9999999999999802E-004    -5.0837177349716267E-012
  -8.0000000000000210E-004    -6.1942582139928870E-012
  -6.9999999999999923E-004    -7.2589807428857789E-012
  -5.9999999999999637E-004    -8.2700192180484855E-012
  -5.0000000000000044E-004    -9.2209824845146393E-012
  -3.9999999999999758E-004    -1.0106764383732703E-011
  -3.0000000000000165E-004    -1.0923275305108060E-011
  -1.9999999999999879E-004    -1.1667102180201727E-011
  -9.9999999999995925E-005    -1.2335109496330876E-011
   0.0000000000000000         -1.2924004748338103E-011
   1.0000000000000286E-004    -1.3429890879934625E-011
   1.9999999999999879E-004    -1.3847822194490433E-011
   3.0000000000000165E-004    -1.4171396695017435E-011
   4.0000000000000452E-004    -1.4392405670027308E-011
   5.0000000000000044E-004    -1.4500574352371842E-011
   6.0000000000000331E-004    -1.4483401457321410E-011
   6.9999999999999923E-004    -1.4326141835330208E-011
   8.0000000000000210E-004    -1.4011925300594363E-011
   8.9999999999999802E-004    -1.3522040258340251E-011
   1.0000000000000009E-003    -1.2836387335013466E-011
   1.1000000000000038E-003    -1.1934100409283221E-011
   1.1999999999999997E-003    -1.0794326370244800E-011
   1.3000000000000025E-003    -9.3971610007348438E-012
   1.3999999999999985E-003    -7.7247088933751762E-012
   1.5000000000000013E-003    -5.7622426795356230E-012
   1.6000000000000042E-003    -3.4994342493210873E-012
   1.7000000000000001E-003    -9.3160635455946661E-013
   1.8000000000000030E-003     1.9390346533282310E-012
   1.8999999999999989E-003     5.1022333059924652E-012
   2.0000000000000018E-003     8.5386437503887080E-012
   2.1000000000000046E-003     1.2218956749188159E-011
   2.2000000000000006E-003     1.6103255881527723E-011
   2.3000000000000034E-003     2.0140640891175288E-011
   2.3999999999999994E-003     2.4269170006974150E-011
   2.5000000000000022E-003     2.8416142702769598E-011
   2.5999999999999981E-003     3.2498774504841066E-011
   2.7000000000000010E-003     3.6425248234328578E-011
   2.8000000000000039E-003     4.0096176379122994E-011
   2.8999999999999998E-003     4.3406438166027073E-011
   3.0000000000000027E-003     4.6247408680422097E-011
   3.0999999999999986E-003     4.8509501970883662E-011
   3.2000000000000015E-003     5.0084991709553606E-011
   3.3000000000000043E-003     5.0871081652692496E-011
   3.4000000000000002E-003     5.0773094062428470E-011
   3.5000000000000031E-003     4.9707741395232929E-011
   3.5999999999999990E-003     4.7606356357032809E-011
   3.7000000000000019E-003     4.4418007466573428E-011
   3.7999999999999978E-003     4.0112382165835569E-011
   3.9000000000000007E-003     3.4682329924651256E-011
   4.0000000000000036E-003     2.8145983807514874E-011
   4.0999999999999995E-003     2.0548363358074972E-011
   4.2000000000000023E-003     1.1962367728324264E-011
   4.2999999999999983E-003     2.4890987708470202E-012
   4.4000000000000011E-003    -7.7425444527934317E-012
   4.5000000000000040E-003    -1.8577039212486213E-011
   4.5999999999999999E-003    -2.9834183734589459E-011
   4.7000000000000028E-003    -4.1311818549383261E-011
   4.7999999999999987E-003    -5.2789293769617274E-011
   4.9000000000000016E-003    -6.4031613344894822E-011
   5.0000000000000044E-003    -7.4794212490125744E-011
   5.1000000000000004E-003    -8.4828227775446408E-011
   5.2000000000000032E-003    -9.3886190488667864E-011
   5.2999999999999992E-003    -1.0172793857288198E-010
   5.4000000000000020E-003    -1.0812670897530907E-010
   5.4999999999999979E-003    -1.1287512591273696E-010
   5.6000000000000008E-003    -1.1579100178682467E-010
   5.7000000000000037E-003    -1.1672277033802914E-010
   5.7999999999999996E-003    -1.1555437856580753E-010
   5.9000000000000025E-003    -1.1220944312606562E-010
   5.9999999999999984E-003    -1.0665466426695858E-010
   6.1000000000000013E-003    -9.8902212808393841E-011
   6.2000000000000041E-003    -8.9011097104130243E-011
   6.3000000000000000E-003    -7.7087419780852429E-011
   6.4000000000000029E-003    -6.3283447926387737E-011
   6.4999999999999988E-003    -4.7795531421535031E-011
   6.6000000000000017E-003    -3.0860865946058524E-011
   6.7000000000000046E-003    -1.2753170047785645E-011
   6.8000000000000005E-003     6.2226365553363916E-012
   6.9000000000000034E-003     2.5736641984241970E-011
   6.9999999999999993E-003     4.5440876755842297E-011
   7.1000000000000021E-003     6.4976801716909449E-011
   7.1999999999999981E-003     8.3983167642465162E-011
   7.3000000000000009E-003     1.0210403356136766E-010
   7.4000000000000038E-003     1.1899668750370296E-010
   7.4999999999999997E-003     1.3433935908135908E-010
   7.6000000000000026E-003     1.4783839430432266E-010
   7.6999999999999985E-003     1.5923470875200962E-010
   7.8000000000000014E-003     1.6830946358847854E-010
   7.9000000000000042E-003     1.7488864523240721E-010
   8.0000000000000002E-003     1.7884647929289343E-010
   8.1000000000000030E-003     1.8010760938214077E-010
   8.1999999999999990E-003     1.7864794366051484E-010
   8.3000000000000018E-003     1.7449423850290913E-010
   8.4000000000000047E-003     1.6772229438632991E-010
   8.5000000000000006E-003     1.5845395828772979E-010
   8.6000000000000035E-003     1.4685297422545318E-010
   8.6999999999999994E-003     1.3311986235553519E-010
   8.8000000000000023E-003     1.1748599315630770E-010
   8.8999999999999982E-003     1.0020698854029675E-010
   9.0000000000000011E-003     8.1555776021424720E-011
   9.1000000000000039E-003     6.1815483287652739E-011
   9.1999999999999998E-003     4.1272350120857837E-011
   9.3000000000000027E-003     2.0209032364215673E-011
   9.3999999999999986E-003    -1.1016146762160561E-012
   9.5000000000000015E-003    -2.2401988250542182E-011
   9.6000000000000044E-003    -4.3454274900600609E-011
   9.7000000000000003E-003    -6.4043936820468161E-011
   9.8000000000000032E-003    -8.3982008847183209E-011
   9.8999999999999991E-003    -1.0310619025233336E-010
   1.0000000000000002E-002    -1.2128070769890087E-010
   1.0100000000000005E-002    -1.3839493440137574E-010
   1.0200000000000001E-002    -1.5436094069620765E-010
   1.0300000000000004E-002    -1.6911001765596012E-010
   1.0400000000000000E-002    -1.8258844436402910E-010
   1.0500000000000002E-002    -1.9475254742218340E-010
   1.0599999999999998E-002    -2.0556351065792455E-010
   1.0700000000000001E-002    -2.1498200442060522E-010
   1.0800000000000004E-002    -2.2296303692215247E-010
   1.0900000000000000E-002    -2.2945115252248627E-010
   1.1000000000000003E-002    -2.3437649043778208E-010
   1.1099999999999999E-002    -2.3765162060485068E-010
   1.1200000000000002E-002    -2.3916971181314750E-010
   1.1300000000000004E-002    -2.3880397659326036E-010
   1.1400000000000000E-002    -2.3640864266205597E-010
   1.1500000000000003E-002    -2.3182135377997071E-010
   1.1599999999999999E-002    -2.2486744410965542E-010
   1.1700000000000002E-002    -2.1536537830879610E-010
   1.1800000000000005E-002    -2.0313394022419828E-010
   1.1900000000000001E-002    -1.8800050405332058E-010
   1.2000000000000004E-002    -1.6981034633989367E-010
   1.2100000000000000E-002    -1.4843672124786877E-010
   1.2200000000000003E-002    -1.2379135216900039E-010
   1.2299999999999998E-002    -9.5834853941489939E-011
   1.2400000000000001E-002    -6.4586912207342806E-011
   1.2500000000000004E-002    -3.0135571121858717E-011
   1.2600000000000000E-002     7.3546125786694283E-012
   1.2700000000000003E-002     4.7636040945153724E-011
   1.2799999999999999E-002     9.0373472594329485E-011
   1.2900000000000002E-002     1.3514173113904349E-010
   1.3000000000000005E-002     1.8142588820158068E-010
   1.3100000000000001E-002     2.2862428616932107E-010
   1.3200000000000003E-002     2.7605426278221046E-010
   1.3299999999999999E-002     3.2296096352801840E-010
   1.3400000000000002E-002     3.6852873530612840E-010
   1.3500000000000005E-002     4.1189540667119218E-010
   1.3600000000000001E-002     4.5216883015619658E-010
   1.3700000000000004E-002     4.8844550626370165E-010
   1.3800000000000000E-002     5.1983095605834251E-010
   1.3900000000000003E-002     5.4546134276023395E-010
   1.3999999999999999E-002     5.6452525987182867E-010
   1.4100000000000001E-002     5.7628618543859034E-010
   1.4200000000000004E-002     5.8010379833106640E-010
   1.4300000000000000E-002     5.7545418430393624E-010
   1.4400000000000003E-002     5.6194832120937122E-010
   1.4499999999999999E-002     5.3934812171974045E-010