  -4.0000000000000001E-002     0.0000000000000000
  -3.9899999999999998E-002     0.0000000000000000
  -3.9800000000000002E-002     0.0000000000000000
  -3.9699999999999999E-002     0.0000000000000000
  -3.9600000000000003E-002     0.0000000000000000
  -3.9500000000000000E-002     0.0000000000000000
  -3.9399999999999998E-002    -4.7408360139178701E-032
  -3.9300000000000002E-002    -3.8649530150516707E-031
  -3.9199999999999999E-002     1.5308887049120427E-030
  -3.9100000000000003E-002     9.8449077520915256E-030
  -3.9000000000000000E-002     4.4677954563341531E-029
  -3.8900000000000004E-002    -1.2817066187309485E-028
  -3.8800000000000001E-002    -5.1467646646730629E-028
  -3.8699999999999998E-002    -7.6122222162685085E-028
  -3.8600000000000002E-002    -3.1899317298806756E-028
  -3.8500000000000000E-002     1.8340840786763585E-027
  -3.8400000000000004E-002     2.0447407552494789E-027
  -3.8300000000000001E-002     3.6051690629418662E-027
  -3.8199999999999998E-002     1.3190734248451022E-026
  -3.8100000000000002E-002     8.2290818811266934E-027
  -3.7999999999999999E-002     9.2352685731322497E-026
  -3.7900000000000003E-002     2.1497058708522474E-025
  -3.7800000000000000E-002     4.1081578386523839E-025
  -3.7699999999999997E-002     4.5913346500621878E-025
  -3.7600000000000001E-002     2.2793991026429318E-026
  -3.7499999999999999E-002    -6.5922191994351296E-025
  -3.7400000000000003E-002    -1.7014347246880825E-024
  -3.7300000000000000E-002    -2.5793294299007323E-024
  -3.7200000000000004E-002    -3.2932448020364481E-024
  -3.7100000000000001E-002    -3.0552856988374352E-024
  -3.6999999999999998E-002    -3.1631022769823854E-024
  -3.6900000000000002E-002    -1.6769784589044207E-024
  -3.6799999999999999E-002     3.8709049631787700E-024
  -3.6700000000000003E-002     1.0596133506805149E-023
  -3.6600000000000001E-002     2.2375375355711804E-023
  -3.6499999999999998E-002     3.2882909527668865E-023
  -3.6400000000000002E-002     5.1704947710512195E-023
  -3.6299999999999999E-002     6.9606833289956770E-023
  -3.6200000000000003E-002     9.7013274776076877E-023
  -3.6100000000000000E-002     1.2639893040807305E-022
  -3.6000000000000004E-002     1.4926528174714174E-022
  -3.5900000000000001E-002     2.0069267663676097E-022
  -3.5799999999999998E-002     2.7818342998970723E-022
  -3.5700000000000003E-002     3.7344889823328919E-022
  -3.5600000000000000E-002     5.1589276720435276E-022
  -3.5500000000000004E-002     6.4517962272313131E-022
  -3.5400000000000001E-002     7.6301065279806481E-022
  -3.5299999999999998E-002     9.4245810618864800E-022
  -3.5200000000000002E-002     1.1963558031897405E-021
  -3.5099999999999999E-002     1.4554645764912036E-021
  -3.5000000000000003E-002     1.7893358561038988E-021
  -3.4900000000000000E-002     2.1172095714046051E-021
  -3.4799999999999998E-002     2.3730717213863152E-021
  -3.4700000000000002E-002     2.4975712893047822E-021
  -3.4599999999999999E-002     2.3074273869103815E-021
  -3.4500000000000003E-002     1.8345935004340248E-021
  -3.4400000000000000E-002     1.0945358474568582E-021
  -3.4299999999999997E-002    -2.9032378475089238E-023
  -3.4200000000000001E-002    -1.1914871303875592E-021
  -3.4099999999999998E-002    -2.6688495768399353E-021
  -3.4000000000000002E-002    -4.3374124186980821E-021
  -3.3900000000000000E-002    -5.9571136452271718E-021
  -3.3799999999999997E-002    -8.0923111637805375E-021
  -3.3700000000000001E-002    -1.0511549499208185E-020
  -3.3599999999999998E-002    -1.1579383932258025E-020
  -3.3500000000000002E-002    -1.2934235497579560E-020
  -3.3399999999999999E-002    -1.3667435790966919E-020
  -3.3300000000000003E-002    -1.4230863725976305E-020
  -3.3200000000000000E-002    -1.5031800741126381E-020
  -3.3099999999999997E-002    -1.5896414507571701E-020
  -3.3000000000000002E-002    -1.5960973369442050E-020
  -3.2899999999999999E-002    -1.4982257146078429E-020
  -3.2800000000000003E-002    -1.3902091744229154E-020
  -3.2700000000000000E-002    -1.2491743145271273E-020
  -3.2600000000000004E-002    -1.0586619370971640E-020
  -3.2500000000000001E-002    -7.4737618191434357E-021
  -3.2399999999999998E-002     1.6816712109915723E-021
  -3.2300000000000002E-002     1.2879980850449177E-020
  -3.2199999999999999E-002     2.3159441564350882E-020
  -3.2100000000000004E-002     3.3960950180001581E-020
  -3.2000000000000001E-002     4.4828636475830791E-020
  -3.1899999999999998E-002     5.6544832365554678E-020
  -3.1800000000000002E-002     7.0102419540526835E-020
  -3.1699999999999999E-002     8.0406214227839231E-020
  -3.1600000000000003E-002     8.8951597416274350E-020
  -3.1500000000000000E-002     9.2882049494396631E-020
  -3.1399999999999997E-002     9.2958589550451928E-020
  -3.1300000000000001E-002     8.8926588127441693E-020
  -3.1199999999999999E-002     7.6835508167995091E-020
  -3.1100000000000003E-002     6.1815006843283155E-020
  -3.1000000000000000E-002     3.7273117061983151E-020
  -3.0900000000000000E-002     1.0907332804094934E-020
  -3.0800000000000001E-002    -2.9318075874620935E-020
  -3.0699999999999998E-002    -7.9815219529564235E-020
  -3.0600000000000002E-002    -1.3427487174254051E-019
  -3.0499999999999999E-002    -1.7932036201700518E-019
  -3.0400000000000000E-002    -2.1231637693189524E-019
  -3.0300000000000001E-002    -2.3900698790774964E-019
  -3.0200000000000001E-002    -2.5711624626321994E-019
  -3.0100000000000002E-002    -2.6447593066704565E-019
  -2.9999999999999999E-002    -2.6621249296552416E-019
  -2.9899999999999999E-002    -2.6855462902057392E-019
  -2.9800000000000000E-002    -2.6363510157438550E-019
  -2.9700000000000001E-002    -2.4969589333134229E-019
  -2.9600000000000001E-002    -2.1678525896530419E-019
  -2.9499999999999998E-002    -1.8839528296914202E-019
  -2.9400000000000003E-002    -1.6234604716074592E-019
  -2.9300000000000000E-002    -9.2331108432345101E-020
  -2.9200000000000000E-002     1.4448027717339885E-020
  -2.9100000000000001E-002     1.0807846240859533E-019
  -2.8999999999999998E-002     2.1740622603608716E-019
  -2.8900000000000002E-002     3.0505048388126705E-019
  -2.8799999999999999E-002     3.7611594844995875E-019
  -2.8700000000000000E-002     4.5816324377666344E-019
  -2.8600000000000000E-002     5.1606030318624065E-019
  -2.8500000000000001E-002     6.2291627019766503E-019
  -2.8400000000000002E-002     7.6035279426244514E-019
  -2.8299999999999999E-002     8.9578035511327537E-019
  -2.8200000000000003E-002     1.0186384929660561E-018
  -2.8100000000000000E-002     1.0867125622470263E-018
  -2.8000000000000001E-002     1.1449466977562189E-018
  -2.7900000000000001E-002     1.2140137973625590E-018
  -2.7799999999999998E-002     1.1955155573240357E-018
  -2.7700000000000002E-002     1.2285413636656747E-018
  -2.7600000000000000E-002     1.1838233593655986E-018
  -2.7500000000000000E-002     1.0820048705858339E-018
  -2.7400000000000001E-002     8.6433870304225194E-019
  -2.7299999999999998E-002     5.3340229982477972E-019
  -2.7200000000000002E-002    -5.5069756075870956E-020
  -2.7099999999999999E-002    -8.7762063874043933E-019
  -2.7000000000000000E-002    -1.8329509669223260E-018
  -2.6900000000000000E-002    -2.8546509587330174E-018
  -2.6800000000000001E-002    -3.8928798803388965E-018
  -2.6700000000000002E-002    -4.9744946318683351E-018
  -2.6599999999999999E-002    -5.9554088292158743E-018
  -2.6500000000000003E-002    -6.8832358156206791E-018
  -2.6400000000000000E-002    -7.5236965349118055E-018
  -2.6300000000000000E-002    -7.9225208400736353E-018
  -2.6200000000000001E-002    -7.9282763627757792E-018
  -2.6099999999999998E-002    -7.7313544374289553E-018
  -2.6000000000000002E-002    -7.3308898331124329E-018
  -2.5899999999999999E-002    -6.8852090549719243E-018
  -2.5800000000000000E-002    -6.5077247688430439E-018
  -2.5700000000000001E-002    -5.6998828118308934E-018
  -2.5599999999999998E-002    -4.7688529820942833E-018
  -2.5500000000000002E-002    -4.0109251711951140E-018
  -2.5399999999999999E-002    -2.9086327655082280E-018
  -2.5300000000000000E-002    -1.9359585278326357E-018
  -2.5200000000000000E-002    -7.6439465722932065E-019
  -2.5100000000000001E-002     5.5352848300759573E-019
  -2.5000000000000001E-002     2.0876200251927019E-018
  -2.4899999999999999E-002     3.8292233691192657E-018
  -2.4800000000000003E-002     5.5458911466852653E-018
  -2.4700000000000000E-002     7.4718389279496311E-018
  -2.4600000000000000E-002     9.2357684969944605E-018
  -2.4500000000000001E-002     1.0830320427909869E-017
  -2.4399999999999998E-002     1.2382034329262382E-017
  -2.4299999999999999E-002     1.3594647192860006E-017
  -2.4199999999999999E-002     1.4202696080619160E-017
  -2.4100000000000000E-002     1.4004429159596325E-017
  -2.4000000000000000E-002     1.2581912598118470E-017
  -2.3900000000000001E-002     9.7674636511312957E-018
  -2.3800000000000002E-002     6.2508971827642108E-018
  -2.3699999999999999E-002     2.3759770478850656E-018
  -2.3599999999999999E-002    -2.3105077703530249E-018
  -2.3500000000000000E-002    -8.5069925988331912E-018
  -2.3400000000000001E-002    -1.5342943048327583E-017
  -2.3300000000000001E-002    -2.2568933144878491E-017
  -2.3199999999999998E-002    -2.9283848045602286E-017
  -2.3099999999999999E-002    -3.6218212308475174E-017
  -2.3000000000000000E-002    -4.2631876301913281E-017
  -2.2900000000000000E-002    -4.7717650714407763E-017
  -2.2800000000000001E-002    -5.1496049625149933E-017
  -2.2700000000000001E-002    -5.2633194665561281E-017
  -2.2599999999999999E-002    -5.0654548861832387E-017
  -2.2499999999999999E-002    -4.5668247881081083E-017
  -2.2400000000000000E-002    -3.7465177155731512E-017
  -2.2300000000000000E-002    -2.6206086002943556E-017
  -2.2200000000000001E-002    -1.1239455539407172E-017
  -2.2100000000000002E-002     5.4648758367209030E-018
  -2.1999999999999999E-002     2.4390904323144941E-017
  -2.1899999999999999E-002     4.3825107496578175E-017
  -2.1800000000000000E-002     6.4492115839542065E-017
  -2.1700000000000001E-002     8.5838868122677532E-017
  -2.1600000000000001E-002     1.0630346206102725E-016
  -2.1499999999999998E-002     1.2586426522721172E-016
  -2.1399999999999999E-002     1.4372519899970992E-016
  -2.1299999999999999E-002     1.5864727255237053E-016
  -2.1200000000000000E-002     1.7043013612338828E-016
  -2.1100000000000001E-002     1.7909638166965325E-016
  -2.1000000000000001E-002     1.8373706342942274E-016
  -2.0899999999999998E-002     1.8408147496671022E-016
  -2.0799999999999999E-002     1.8019598925386694E-016
  -2.0700000000000000E-002     1.7156140156400561E-016
  -2.0600000000000000E-002     1.5895256175540670E-016
  -2.0500000000000001E-002     1.4169012293459266E-016
  -2.0400000000000001E-002     1.2205486689583351E-016
  -2.0299999999999999E-002     9.9871312235259803E-017
  -2.0199999999999999E-002     7.5356233212919626E-017
  -2.0100000000000000E-002     4.9669879678094163E-017
  -2.0000000000000000E-002     2.1805294892620562E-017
  -1.9900000000000001E-002    -7.6800642763669922E-018
  -1.9799999999999998E-002    -3.6057087451317195E-017
  -1.9699999999999999E-002    -6.3220441453027543E-017
  -1.9599999999999999E-002    -8.8408302863504049E-017
  -1.9500000000000000E-002    -1.0972073045994101E-016
  -1.9400000000000001E-002    -1.2798629451832056E-016
  -1.9300000000000001E-002    -1.4196224550378791E-016
  -1.9199999999999998E-002    -1.4893136789600027E-016
  -1.9099999999999999E-002    -1.5321321208859937E-016
  -1.9000000000000000E-002    -1.5302722218222804E-016
  -1.8900000000000000E-002    -1.4635441573776687E-016
  -1.8800000000000001E-002    -1.3012139988055263E-016
  -1.8700000000000001E-002    -1.0878250250451397E-016
  -1.8599999999999998E-002    -8.1169440182260591E-017
  -1.8499999999999999E-002    -4.7445587702216622E-017
  -1.8400000000000000E-002    -1.0238750632313996E-017
  -1.8300000000000000E-002     3.2370773595086878E-017
  -1.8200000000000001E-002     7.6319071445931350E-017
  -1.8100000000000002E-002     1.2264118574890090E-016
  -1.7999999999999999E-002     1.6708540153802806E-016
  -1.7899999999999999E-002     2.1130742999717859E-016
  -1.7800000000000000E-002     2.5577597151375971E-016
  -1.7700000000000000E-002     2.9962625838818400E-016
  -1.7600000000000001E-002     3.3873623125241800E-016
  -1.7499999999999998E-002     3.6608044002325694E-016
  -1.7399999999999999E-002     3.8300794348788091E-016
  -1.7299999999999999E-002     3.8390561312351325E-016
  -1.7200000000000000E-002     3.6781336355422084E-016
  -1.7100000000000001E-002     3.3007058127619408E-016
  -1.7000000000000001E-002     2.6884823098873533E-016
  -1.6899999999999998E-002     1.8171826627876053E-016
  -1.6799999999999999E-002     6.6475602304215620E-017
  -1.6700000000000000E-002    -7.8248447063654136E-017
  -1.6600000000000000E-002    -2.5575913673393303E-016
  -1.6500000000000001E-002    -4.6147540812540438E-016
  -1.6400000000000001E-002    -6.9758462456267893E-016
  -1.6299999999999999E-002    -9.6980327905787792E-016
  -1.6199999999999999E-002    -1.2637023241732020E-015
  -1.6100000000000000E-002    -1.5854314838035133E-015
  -1.6000000000000000E-002    -1.9247051309911846E-015
  -1.5900000000000001E-002    -2.2763519178349914E-015
  -1.5799999999999998E-002    -2.6316680514063039E-015
  -1.5699999999999999E-002    -2.9827106920004816E-015
  -1.5599999999999999E-002    -3.3103972461070693E-015
  -1.5500000000000000E-002    -3.5974158425918466E-015
  -1.5400000000000000E-002    -3.8234643722585490E-015
  -1.5300000000000001E-002    -3.9736022327087946E-015
  -1.5199999999999998E-002    -4.0290142810852237E-015
  -1.5099999999999999E-002    -3.9676348855953881E-015
  -1.4999999999999999E-002    -3.7698124583465144E-015
  -1.4900000000000000E-002    -3.4159943025424211E-015
  -1.4800000000000001E-002    -2.8930516192589035E-015
  -1.4700000000000001E-002    -2.1895562399716064E-015
  -1.4599999999999998E-002    -1.3031196376483913E-015
  -1.4499999999999999E-002    -2.3695553470047960E-016
  -1.4400000000000000E-002     1.0008002380044122E-015
  -1.4300000000000000E-002     2.3894752855231714E-015
  -1.4200000000000001E-002     3.9106706493431155E-015
  -1.4099999999999998E-002     5.5298893245005372E-015
  -1.3999999999999999E-002     7.2083867534386038E-015
  -1.3899999999999999E-002     8.9051597652466292E-015
  -1.3800000000000000E-002     1.0572327281482222E-014
  -1.3700000000000000E-002     1.2143279478206252E-014
  -1.3600000000000001E-002     1.3562813524180262E-014
  -1.3499999999999998E-002     1.4754851461180711E-014
  -1.3399999999999999E-002     1.5657183801429456E-014
  -1.3299999999999999E-002     1.6194941302718688E-014
  -1.3200000000000000E-002     1.6307998178320508E-014
  -1.3100000000000001E-002     1.5940245271742898E-014
  -1.3000000000000001E-002     1.5047057499192711E-014
  -1.2899999999999998E-002     1.3596688912839803E-014
  -1.2799999999999999E-002     1.1570773297288860E-014
  -1.2699999999999999E-002     8.9679469294948015E-015
  -1.2600000000000000E-002     5.8126623800954392E-015
  -1.2500000000000001E-002     2.1472071337077332E-015
  -1.2399999999999998E-002    -1.9627663447178197E-015
  -1.2299999999999998E-002    -6.4320488700280419E-015
  -1.2199999999999999E-002    -1.1160617074338752E-014
  -1.2100000000000000E-002    -1.6022610755533906E-014
  -1.2000000000000000E-002    -2.0878140728308563E-014
  -1.1900000000000001E-002    -2.5567349005626260E-014
  -1.1799999999999998E-002    -2.9930224287487081E-014
  -1.1699999999999999E-002    -3.3805278048431101E-014
  -1.1599999999999999E-002    -3.7024318344253820E-014
  -1.1500000000000000E-002    -3.9426229343992106E-014
  -1.1400000000000000E-002    -4.0884328800054603E-014
  -1.1300000000000001E-002    -4.1301611111189962E-014
  -1.1199999999999998E-002    -4.0590875929544246E-014
  -1.1099999999999999E-002    -3.8696385099056332E-014
  -1.0999999999999999E-002    -3.5620025809132705E-014
  -1.0900000000000000E-002    -3.1395150829104448E-014
  -1.0800000000000001E-002    -2.6094394928264514E-014
  -1.0699999999999998E-002    -1.9829581702243519E-014
  -1.0599999999999998E-002    -1.2773505872281342E-014
  -1.0499999999999999E-002    -5.1583476395498581E-015
  -1.0400000000000000E-002     2.7686142207360110E-015
  -1.0300000000000000E-002     1.0731676201717385E-014
  -1.0200000000000001E-002     1.8426590209729386E-014
  -1.0099999999999998E-002     2.5560847180723135E-014
  -9.9999999999999985E-003     3.1825663794875919E-014
  -9.8999999999999991E-003     3.6934814066783353E-014
  -9.7999999999999997E-003     4.0631377656950157E-014
  -9.7000000000000003E-003     4.2703176200220919E-014
  -9.6000000000000009E-003     4.3002385506640817E-014
  -9.4999999999999980E-003     4.1411007110393749E-014
  -9.3999999999999986E-003     3.7893411417586412E-014
  -9.2999999999999992E-003     3.2545862028608361E-014
  -9.1999999999999998E-003     2.5529593359035346E-014
  -9.1000000000000004E-003     1.7116738460095336E-014
  -9.0000000000000011E-003     7.6275748887052845E-015
  -8.8999999999999982E-003    -2.5147319766642955E-015
  -8.7999999999999988E-003    -1.2833873910432156E-014
  -8.6999999999999994E-003    -2.2787574914051936E-014
  -8.5999999999999965E-003    -3.1776905190300173E-014
  -8.5000000000000006E-003    -3.9130414945624803E-014
  -8.3999999999999977E-003    -4.4211040536000501E-014
  -8.3000000000000018E-003    -4.6445327103608949E-014
  -8.1999999999999990E-003    -4.5284766604994364E-014
  -8.0999999999999961E-003    -4.0304473761286833E-014
  -8.0000000000000002E-003    -3.1229166252760496E-014
  -7.8999999999999973E-003    -1.7916576425594521E-014
  -7.8000000000000014E-003    -3.9125653561670050E-016
  -7.6999999999999985E-003     2.1189108546102245E-014
  -7.6000000000000026E-003     4.6456213171047062E-014
  -7.4999999999999997E-003     7.4724223390974093E-014
  -7.3999999999999969E-003     1.0517173747561295E-013
  -7.3000000000000009E-003     1.3675371327969560E-013
  -7.1999999999999981E-003     1.6814085117711902E-013
  -7.1000000000000021E-003     1.9795569263653112E-013
  -6.9999999999999993E-003     2.2475618100589040E-013
  -6.8999999999999964E-003     2.4694837646131729E-013
  -6.8000000000000005E-003     2.6291656026779242E-013
  -6.6999999999999976E-003     2.7106287592108813E-013
  -6.6000000000000017E-003     2.7020700672612807E-013
  -6.4999999999999988E-003     2.5917679460918386E-013
  -6.3999999999999960E-003     2.3713065473891792E-013
  -6.3000000000000000E-003     2.0344819307970691E-013
  -6.1999999999999972E-003     1.5791006197952984E-013
  -6.1000000000000013E-003     1.0049039644030935E-013
  -5.9999999999999984E-003     3.1614674663978451E-014
  -5.9000000000000025E-003    -4.7609252017090029E-014
  -5.7999999999999996E-003    -1.3605200408113582E-013
  -5.6999999999999967E-003    -2.3206862321580035E-013
  -5.6000000000000008E-003    -3.3329190644339202E-013
  -5.4999999999999979E-003    -4.3711261281560720E-013
  -5.4000000000000020E-003    -5.4024243845846032E-013
  -5.2999999999999992E-003    -6.3904973977499391E-013
  -5.1999999999999963E-003    -7.2991580227915742E-013
  -5.1000000000000004E-003    -8.0898129991777146E-013
  -4.9999999999999975E-003    -8.7299221671055527E-013
  -4.9000000000000016E-003    -9.1814696037001431E-013
  -4.7999999999999987E-003    -9.3994386926588014E-013
  -4.6999999999999958E-003    -9.3519734057495585E-013
  -4.5999999999999999E-003    -9.0165564901531492E-013
  -4.4999999999999971E-003    -8.3743629435487077E-013
  -4.4000000000000011E-003    -7.4206369131066263E-013
  -4.2999999999999983E-003    -6.1586293790411029E-013
  -4.2000000000000023E-003    -4.5987459717025669E-013
  -4.0999999999999995E-003    -2.7635256279537335E-013
  -3.9999999999999966E-003    -7.0200728639457227E-014
  -3.9000000000000007E-003     1.5370650173658629E-013
  -3.7999999999999978E-003     3.8907597846651876E-013
  -3.7000000000000019E-003     6.2887667079056242E-013
  -3.5999999999999990E-003     8.6481158605850039E-013
  -3.4999999999999962E-003     1.0894724792459565E-012
  -3.4000000000000002E-003     1.2954263313089132E-012
  -3.2999999999999974E-003     1.4749619711360018E-012
  -3.2000000000000015E-003     1.6210079068976202E-012
  -3.0999999999999986E-003     1.7268557460717315E-012
  -2.9999999999999957E-003     1.7881460201429888E-012
  -2.8999999999999998E-003     1.7979095859668726E-012
  -2.7999999999999969E-003     1.7521138619830401E-012
  -2.7000000000000010E-003     1.6500765597643463E-012
  -2.5999999999999981E-003     1.4939455922347022E-012
  -2.5000000000000022E-003     1.2843872016291003E-012
  -2.3999999999999994E-003     1.0260726730076941E-012
  -2.2999999999999965E-003     7.2642667705777320E-013
  -2.2000000000000006E-003     3.9365052558783253E-013
  -2.0999999999999977E-003     3.8510373275707499E-014
  -2.0000000000000018E-003    -3.2739905079549880E-013
  -1.8999999999999989E-003    -6.9149867039028368E-013
  -1.7999999999999960E-003    -1.0406564932702311E-012
  -1.7000000000000001E-003    -1.3622446269970223E-012
  -1.5999999999999973E-003    -1.6437892713661029E-012
  -1.5000000000000013E-003    -1.8696459311295932E-012
  -1.3999999999999985E-003    -2.0269539085376875E-012
  -1.2999999999999956E-003    -2.1116134014953492E-012
  -1.1999999999999997E-003    -2.1177055335025452E-012
  -1.0999999999999968E-003    -2.0450125967630406E-012
  -1.0000000000000009E-003    -1.8927001892848905E-012
  -8.9999999999999802E-004    -1.6590608010666474E-012
  -8.0000000000000210E-004    -1.3518122168529323E-012
  -6.9999999999999923E-004    -9.7185118026060779E-013
  -5.9999999999999637E-004    -5.2540290911354259E-013
  -5.0000000000000044E-004    -3.0883285430946886E-014
  -3.9999999999999758E-004     4.9337346274408445E-013
  -3.0000000000000165E-004     1.0261471576969439E-012
  -1.9999999999999879E-004     1.5395864921483038E-012
  -9.9999999999995925E-005     2.0060827998769071E-012
   0.0000000000000000          2.3984343157368304E-012
   1.0000000000000286E-004     2.6925185171722266E-012
   1.9999999999999879E-004     2.8693291232589901E-012
   3.0000000000000165E-004     2.9156768145688350E-012
   4.0000000000000452E-004     2.8142100195333031E-012
   5.0000000000000044E-004     2.5710375668730467E-012
   6.0000000000000331E-004     2.1779403367588879E-012
   6.9999999999999923E-004     1.6344614463953411E-012
   8.0000000000000210E-004     9.5317493047780699E-013
   8.9999999999999802E-004     1.4953472216982372E-013
   1.0000000000000009E-003    -7.6346031276444681E-013
   1.1000000000000038E-003    -1.7545687125419818E-012
   1.1999999999999997E-003    -2.7895938597283232E-012
   1.3000000000000025E-003    -3.8273355838780443E-012
   1.3999999999999985E-003    -4.8106514431711656E-012
   1.5000000000000013E-003    -5.7111312207203113E-012
   1.6000000000000042E-003    -6.4838208586881496E-012
   1.7000000000000001E-003    -7.0755276637690656E-012
   1.8000000000000030E-003    -7.4448711084862396E-012
   1.8999999999999989E-003    -7.5584174336063015E-012
   2.0000000000000018E-003    -7.3913809101044947E-012
   2.1000000000000046E-003    -6.9157561621846497E-012
   2.2000000000000006E-003    -6.1286782940261908E-012
   2.3000000000000034E-003    -5.0297899525930667E-012
   2.3999999999999994E-003    -3.6226288895740977E-012
   2.5000000000000022E-003    -1.9491650047470666E-012
   2.5999999999999981E-003    -8.7796381221996039E-014
   2.7000000000000010E-003     1.8668768787810652E-012
   2.8000000000000039E-003     3.8453797437942860E-012
   2.8999999999999998E-003     5.7147316392947012E-012
   3.0000000000000027E-003     7.3874890579861408E-012
   3.0999999999999986E-003     8.7810375290486853E-012
   3.2000000000000015E-003     9.7816902147607188E-012
   3.3000000000000043E-003     1.0307637555995175E-011
   3.4000000000000002E-003     1.0275038632434619E-011
   3.5000000000000031E-003     9.6813104408233208E-012
   3.5999999999999990E-003     8.5366652982643565E-012
   3.7000000000000019E-003     6.8292745590559090E-012
   3.7999999999999978E-003     4.5755118444068543E-012
   3.9000000000000007E-003     1.8904474340109001E-012
   4.0000000000000036E-003    -1.1510372733072871E-012
   4.0999999999999995E-003    -4.4262636091085827E-012
   4.2000000000000023E-003    -7.7850824745095970E-012
   4.2999999999999983E-003    -1.1015616370457781E-011
   4.4000000000000011E-003    -1.3881226897105581E-011
   4.5000000000000040E-003    -1.6294741597699947E-011
   4.5999999999999999E-003    -1.8099787293945901E-011
   4.7000000000000028E-003    -1.9180799309959085E-011
   4.7999999999999987E-003    -1.9489807337458309E-011
   4.9000000000000016E-003    -1.8887644920306812E-011
   5.0000000000000044E-003    -1.7315676670293101E-011
   5.1000000000000004E-003    -1.4743609111356193E-011
   5.2000000000000032E-003    -1.1147714695791677E-011
   5.2999999999999992E-003    -6.6689570532574294E-012
   5.4000000000000020E-003    -1.4205047728366171E-012
   5.4999999999999979E-003     4.4683562405722910E-012
   5.6000000000000008E-003     1.0900765533283785E-011
   5.7000000000000037E-003     1.7648051423013733E-011
   5.7999999999999996E-003     2.4580242355409787E-011
   5.9000000000000025E-003     3.1518891663306903E-011
   5.9999999999999984E-003     3.8153865483669946E-011
   6.1000000000000013E-003     4.4386501418802737E-011
   6.2000000000000041E-003     4.9861299117326396E-011
   6.3000000000000000E-003     5.4344789085503109E-011
   6.4000000000000029E-003     5.7751230880809246E-011
   6.4999999999999988E-003     5.9938241869783582E-011
   6.6000000000000017E-003     6.0775523502698547E-011
   6.7000000000000046E-003     6.0259117140581964E-011
   6.8000000000000005E-003     5.8157548221693389E-011
   6.9000000000000034E-003     5.4419562606211613E-011
   6.9999999999999993E-003     4.9053497375162181E-011
   7.1000000000000021E-003     4.2110617076707157E-011
   7.1999999999999981E-003     3.3834331170101706E-011
   7.3000000000000009E-003     2.4351146099554910E-011
   7.4000000000000038E-003     1.3510136585848098E-011
   7.4999999999999997E-003     1.4844441864961255E-012
   7.6000000000000026E-003    -1.1341112077234428E-011
   7.6999999999999985E-003    -2.4656474778561588E-011
   7.8000000000000014E-003    -3.8209820724111054E-011
   7.9000000000000042E-003    -5.1897739578032898E-011
   8.0000000000000002E-003    -6.5097906232214342E-011
   8.1000000000000030E-003    -7.7262050923732062E-011
   8.1999999999999990E-003    -8.7609364207708040E-011
   8.3000000000000018E-003    -9.5789175202920518E-011
   8.4000000000000047E-003    -1.0140447509465744E-010
   8.5000000000000006E-003    -1.0449720255767403E-010
   8.6000000000000035E-003    -1.0501543384888734E-010
   8.6999999999999994E-003    -1.0287262014463394E-010
   8.8000000000000023E-003    -9.8533459169658499E-011
   8.8999999999999982E-003    -9.1932191026433685E-011
   9.0000000000000011E-003    -8.3437090570015471E-011
   9.1000000000000039E-003    -7.3023788405013335E-011
   9.1999999999999998E-003    -6.1005700491278958E-011
   9.3000000000000027E-003    -4.7520039986315155E-011
   9.3999999999999986E-003    -3.2590524029485479E-011
   9.5000000000000015E-003    -1.6568281469009349E-011
   9.6000000000000044E-003     1.7831085729041324E-013
   9.7000000000000003E-003     1.6772741182058404E-011
   9.8000000000000032E-003     3.2493948504130898E-011
   9.8999999999999991E-003     4.7118656198996689E-011
   1.0000000000000002E-002     6.0324030493053016E-011
   1.0100000000000005E-002     7.1403299939376552E-011
   1.0200000000000001E-002     8.0174908378971566E-011
   1.0300000000000004E-002     8.5958143380970853E-011
   1.0400000000000000E-002     8.8779907037039862E-011
   1.0500000000000002E-002     8.8223463257097734E-011
   1.0599999999999998E-002     8.4788343013286749E-011
   1.0700000000000001E-002     7.8629484867587252E-011
   1.0800000000000004E-002     6.9877242880878043E-011
   1.0900000000000000E-002     5.9732468971063213E-011
   1.1000000000000003E-002     4.8464832841377259E-011
   1.1099999999999999E-002     3.7629992871712759E-011
   1.1200000000000002E-002     2.7852695844154951E-011
   1.1300000000000004E-002     1.9528986067163245E-011
   1.1400000000000000E-002     1.3576740426346490E-011
   1.1500000000000003E-002     1.0562649713219407E-011
   1.1599999999999999E-002     1.1980035886927087E-011
   1.1700000000000002E-002     1.7533693247306914E-011
   1.1800000000000005E-002     2.6938987499058875E-011
   1.1900000000000001E-002     4.0725020578058491E-011
   1.2000000000000004E-002     5.9006029229369261E-011
   1.2100000000000000E-002     8.2046536231672462E-011
   1.2200000000000003E-002     1.0932204447255955E-010
   1.2299999999999998E-002     1.3971152013070309E-010
   1.2400000000000001E-002     1.7341021674166512E-010
   1.2500000000000004E-002     2.0821108726032378E-010
   1.2600000000000000E-002     2.4265811582324659E-010
   1.2700000000000003E-002     2.7422300541424249E-010
   1.2799999999999999E-002     3.0102090264882975E-010
   1.2900000000000002E-002     3.2137492667061451E-010
   1.3000000000000005E-002     3.3486249884084884E-010
   1.3100000000000001E-002     3.4017072492176226E-010
   1.3200000000000003E-002     3.3674726895860374E-010
   1.3299999999999999E-002     3.2335520372406279E-010
   1.3400000000000002E-002     2.9916927268835991E-010
   1.3500000000000005E-002     2.6422955490268407E-010
   1.3600000000000001E-002     2.1885178391745086E-010
   1.3700000000000004E-002     1.6374981925970644E-010
   1.3800000000000000E-002     1.0084932888787534E-010
   1.3900000000000003E-002     3.2654091236539173E-011
   1.3999999999999999E-002    -3.9642924359872822E-011
   1.4100000000000001E-002    -1.1511393227525701E-010
   1.4200000000000004E-002    -1.9154573760449267E-010
   1.4300000000000000E-002    -2.6886545767546011E-010
   1.4400000000000003E-002    -3.4549707539355268E-010
   1.4499999999999999E-002    -4.1960560026588212E-010