  -8.0000000000000002E-002     0.0000000000000000
  -7.9579999999999998E-002     0.0000000000000000
  -7.9160000000000008E-002     0.0000000000000000
  -7.8740000000000004E-002     0.0000000000000000
  -7.8320000000000001E-002     0.0000000000000000
  -7.7899999999999997E-002     0.0000000000000000
  -7.7480000000000007E-002     0.0000000000000000
  -7.7060000000000003E-002     0.0000000000000000
  -7.6640000000000000E-002     0.0000000000000000
  -7.6219999999999996E-002     0.0000000000000000
  -7.5800000000000006E-002     0.0000000000000000
  -7.5380000000000003E-002     0.0000000000000000
  -7.4959999999999999E-002     0.0000000000000000
  -7.4539999999999995E-002     5.5062164675245537E-036
  -7.4120000000000005E-002     1.2911104569747085E-035
  -7.3700000000000002E-002    -2.0907224208148801E-034
  -7.3279999999999998E-002    -1.0128487262693520E-033
  -7.2860000000000008E-002     1.3989749854329168E-033
  -7.2440000000000004E-002     2.0840421479356920E-032
  -7.2020000000000001E-002     3.9367842331420980E-032
  -7.1599999999999997E-002    -1.3195342392761894E-031
  -7.1180000000000007E-002    -7.2973546827353350E-031
  -7.0760000000000003E-002    -6.6324308268972725E-031
  -7.0340000000000000E-002     4.1624336464073335E-030
  -6.9919999999999996E-002     1.4671097179614577E-029
  -6.9500000000000006E-002     6.4953247779543870E-030
  -6.9080000000000003E-002    -7.5590603827026185E-029
  -6.8659999999999999E-002    -2.0769703662353356E-028
  -6.8239999999999995E-002    -5.3297818008763697E-029
  -6.7820000000000005E-002     9.3948522240529585E-028
  -6.7400000000000002E-002     2.2895471898125191E-027
  -6.6979999999999998E-002     6.0772137505085703E-028
  -6.6560000000000008E-002    -8.6605275055231361E-027
  -6.6140000000000004E-002    -2.0619166786726336E-026
  -6.5720000000000001E-002    -8.2842880665584290E-027
  -6.5299999999999997E-002     6.1461381457923082E-026
  -6.4879999999999993E-002     1.5478937977474492E-025
  -6.4460000000000003E-002     9.4387380342291873E-026
  -6.4040000000000000E-002    -3.3747483837562311E-025
  -6.3619999999999996E-002    -9.7435146902604484E-025
  -6.3200000000000006E-002    -8.3411555735394201E-025
  -6.2780000000000002E-002     1.3749863105299041E-024
  -6.2359999999999999E-002     5.1275396123354723E-024
  -6.1940000000000002E-002     5.8107176495029590E-024
  -6.1520000000000005E-002    -3.3962007986674743E-024
  -6.1100000000000002E-002    -2.2268941236722004E-023
  -6.0679999999999998E-002    -3.2578196486043370E-023
  -6.0260000000000001E-002    -2.7571921174616252E-024
  -5.9840000000000004E-002     7.7252748917770838E-023
  -5.9420000000000001E-002     1.4845982075251016E-022
  -5.8999999999999997E-002     8.4681770980667732E-023
  -5.8580000000000000E-002    -1.9553606456046848E-022
  -5.8160000000000003E-002    -5.4701343023550512E-022
  -5.7740000000000000E-002    -5.4166414280659220E-022
  -5.7319999999999996E-002     2.3513090154356177E-022
  -5.6899999999999999E-002     1.5808714424141740E-021
  -5.6480000000000002E-002     2.2975265661491349E-021
  -5.6059999999999999E-002     7.8606282475139428E-022
  -5.5640000000000002E-002    -3.2508657390474392E-021
  -5.5220000000000005E-002    -7.2108831271288319E-021
  -5.4800000000000001E-002    -6.2305349342436052E-021
  -5.4379999999999998E-002     2.8634660298075486E-021
  -5.3960000000000001E-002     1.6445542968395423E-020
  -5.3540000000000004E-002     2.2988130683721866E-020
  -5.3120000000000001E-002     1.0104489354174369E-020
  -5.2699999999999997E-002    -2.2649598764926237E-020
  -5.2280000000000000E-002    -5.5525726166204244E-020
  -5.1860000000000003E-002    -5.6352205055641985E-020
  -5.1440000000000000E-002    -5.1601612872731788E-021
  -5.1019999999999996E-002     8.0426216044996213E-020
  -5.0599999999999999E-002     1.4333882795893556E-019
  -5.0180000000000002E-002     1.2022671517537876E-019
  -4.9759999999999999E-002    -7.8496508068910815E-021
  -4.9340000000000002E-002    -1.8617142195462630E-019
  -4.8920000000000005E-002    -3.0798557424250353E-019
  -4.8500000000000001E-002    -2.7743928550889825E-019
  -4.8079999999999998E-002    -6.8520918804209142E-020
  -4.7660000000000001E-002     2.6103564830818764E-019
  -4.7239999999999997E-002     5.9703668413685589E-019
  -4.6820000000000001E-002     7.9458867115876390E-019
  -4.6399999999999997E-002     6.7915289899418984E-019
  -4.5980000000000000E-002     7.0997980747903100E-020
  -4.5560000000000003E-002    -1.0801807071700340E-018
  -4.5140000000000000E-002    -2.4494031526169095E-018
  -4.4720000000000003E-002    -3.1707946719487292E-018
  -4.4299999999999999E-002    -2.0706604765629203E-018
  -4.3880000000000002E-002     1.5358978297487034E-018
  -4.3459999999999999E-002     6.7909742918220904E-018
  -4.3040000000000002E-002     1.0792714422862126E-017
  -4.2619999999999998E-002     9.5104083866330932E-018
  -4.2200000000000001E-002     2.6923222049259711E-019
  -4.1779999999999998E-002    -1.5285030090357696E-017
  -4.1360000000000001E-002    -2.9812977835158259E-017
  -4.0939999999999997E-002    -3.2386001028995699E-017
  -4.0520000000000000E-002    -1.4269045559994642E-017
  -4.0099999999999997E-002     2.3931000147190117E-017
  -3.9680000000000000E-002     6.7949228295348168E-017
  -3.9260000000000003E-002     9.2403095605245042E-017
  -3.8840000000000000E-002     7.1479664566080850E-017
  -3.8420000000000003E-002    -5.3393995064135968E-018
  -3.7999999999999999E-002    -1.1970680626171844E-016
  -3.7580000000000002E-002    -2.2171297656526956E-016
  -3.7159999999999999E-002    -2.4420927554180220E-016
  -3.6740000000000002E-002    -1.3353644508558406E-016
  -3.6319999999999998E-002     1.1314406867475486E-016
  -3.5900000000000001E-002     4.2169333044449920E-016
  -3.5479999999999998E-002     6.4584459737513340E-016
  -3.5060000000000001E-002     6.1501989906536164E-016
  -3.4639999999999997E-002     2.1873259895949787E-016
  -3.4220000000000000E-002    -5.0236769724926267E-016
  -3.3799999999999997E-002    -1.3065919753456556E-015
  -3.3380000000000000E-002    -1.7892506911722504E-015
  -3.2960000000000003E-002    -1.5278490620543162E-015
  -3.2539999999999999E-002    -3.0335844202809517E-016
  -3.2120000000000003E-002     1.6880678089140007E-015
  -3.1699999999999999E-002     3.7494827981024722E-015
  -3.1280000000000002E-002     4.8224251910411306E-015
  -3.0859999999999999E-002     3.8745255741368831E-015
  -3.0440000000000002E-002     4.4276401921597145E-016
  -3.0019999999999998E-002    -4.8749325694039793E-015
  -2.9600000000000001E-002    -1.0245675882126434E-014
  -2.9179999999999998E-002    -1.2965111330729883E-014
  -2.8760000000000001E-002    -1.0410288282967368E-014
  -2.8339999999999997E-002    -1.3732886374380734E-015
  -2.7920000000000000E-002     1.2703085130270529E-014
  -2.7499999999999997E-002     2.7224535211069436E-014
  -2.7080000000000000E-002     3.5243276131489299E-014
  -2.6659999999999996E-002     2.9748096305892089E-014
  -2.6239999999999999E-002     7.0170474761269986E-015
  -2.5820000000000003E-002    -3.0088547269632977E-014
  -2.5399999999999999E-002    -7.0475885652668067E-014
  -2.4980000000000002E-002    -9.6327168846060033E-014
  -2.4559999999999998E-002    -8.8452725339558499E-014
  -2.4140000000000002E-002    -3.4685973029839220E-014
  -2.3719999999999998E-002     6.1245947955286520E-014
  -2.3300000000000001E-002     1.7427218745930018E-013
  -2.2879999999999998E-002     2.5994135798730767E-013
  -2.2460000000000001E-002     2.6610175972340475E-013
  -2.2039999999999997E-002     1.5315535806903360E-013
  -2.1620000000000000E-002    -8.2604767425450082E-014
  -2.1199999999999997E-002    -3.9170706743135130E-013
  -2.0780000000000000E-002    -6.7041857360252750E-013
  -2.0359999999999996E-002    -7.8292188646430600E-013
  -1.9939999999999999E-002    -6.0642537818686015E-013
  -1.9519999999999996E-002    -8.8826060815534969E-014
  -1.9099999999999999E-002     7.0068104751227339E-013
  -1.8680000000000002E-002     1.5518022165697431E-012
  -1.8259999999999998E-002     2.1434291305983832E-012
  -1.7840000000000002E-002     2.1293633107895630E-012
  -1.7420000000000005E-002     1.2642457688944191E-012
  -1.7000000000000001E-002    -4.6603902641376733E-013
  -1.6579999999999998E-002    -2.7574706415312028E-012
  -1.6159999999999994E-002    -4.9893320695842628E-012
  -1.5740000000000004E-002    -6.3379094311012956E-012
  -1.5320000000000000E-002    -5.9921470815068333E-012
  -1.4899999999999997E-002    -3.4237874374157859E-012
  -1.4479999999999993E-002     1.3620400368215573E-012
  -1.4060000000000003E-002     7.6747683450691722E-012
  -1.3639999999999999E-002     1.4143572735959291E-011
  -1.3219999999999996E-002     1.8899324539416761E-011
  -1.2799999999999992E-002     1.9909807474979765E-011
  -1.2380000000000002E-002     1.5414248081254564E-011
  -1.1959999999999998E-002     4.3956177269278988E-012
  -1.1539999999999995E-002    -1.2959124456431814E-011
  -1.1120000000000005E-002    -3.4848190633174017E-011
  -1.0700000000000001E-002    -5.7542439931643431E-011
  -1.0279999999999997E-002    -7.5274452484483924E-011
  -9.8599999999999938E-003    -8.0519723581817645E-011
  -9.4400000000000039E-003    -6.4939876621927857E-011
  -9.0200000000000002E-003    -2.1252268196068739E-011
  -8.5999999999999965E-003     5.3878365365652791E-011
  -8.1799999999999928E-003     1.5620801499579042E-010
  -7.7600000000000030E-003     2.7037140937884432E-010
  -7.3399999999999993E-003     3.6784120347880776E-010
  -6.9199999999999956E-003     4.0815817594156992E-010
  -6.4999999999999919E-003     3.4506677496375060E-010
  -6.0800000000000021E-003     1.3831937884671434E-010
  -5.6599999999999984E-003    -2.2972680638097361E-010
  -5.2399999999999947E-003    -7.3578628658150687E-010
  -4.8200000000000048E-003    -1.3008497041103122E-009
  -4.4000000000000011E-003    -1.7855761563708402E-009
  -3.9799999999999974E-003    -2.0023547277982690E-009
  -3.5599999999999937E-003    -1.7480959477284042E-009
  -3.1400000000000039E-003    -8.5711750246023166E-010
  -2.7200000000000002E-003     7.3295886338006493E-010
  -2.2999999999999965E-003     2.9161333352734667E-009
  -1.8799999999999928E-003     5.3728251079652671E-009
  -1.4600000000000030E-003     7.5651443964516069E-009
  -1.0399999999999993E-003     8.7895606672625739E-009
  -6.1999999999999555E-004     8.2942825377046381E-009
  -1.9999999999999185E-004     5.4540526982986349E-009
   2.1999999999999797E-004    -2.2221692189388503E-011
   6.4000000000000168E-004    -7.8917869293606223E-009
   1.0600000000000054E-003    -1.7237837453155764E-008
   1.4799999999999952E-003    -2.6441572767499021E-008
   1.8999999999999989E-003    -3.3308576040593618E-008
   2.3200000000000026E-003    -3.5368145562829391E-008
   2.7400000000000063E-003    -3.0330735696149017E-008
   3.1599999999999961E-003    -1.6650089422310721E-008
   3.5799999999999998E-003     5.9000616967598158E-009
   4.0000000000000036E-003     3.5751602258562512E-008
   4.4200000000000073E-003     6.9296199202629148E-008
   4.8399999999999971E-003     1.0098037133612459E-007
   5.2600000000000008E-003     1.2381557164045342E-007
   5.6800000000000045E-003     1.3031496258251576E-007
   6.1000000000000082E-003     1.1379113594132013E-007
   6.5199999999999980E-003     6.9863936655609247E-008
   6.9400000000000017E-003    -2.0482038869593339E-009
   7.3600000000000054E-003    -9.7533403801453850E-008
   7.7799999999999953E-003    -2.0658166479236847E-007
   8.1999999999999990E-003    -3.1382994204953390E-007
   8.6200000000000027E-003    -3.9982703679168696E-007
   9.0400000000000064E-003    -4.4334544191754520E-007
   9.4599999999999962E-003    -4.2458862150529316E-007
   9.8799999999999999E-003    -3.2894654192416180E-007
   1.0300000000000004E-002    -1.5077764033920418E-007
   1.0720000000000007E-002     1.0342948432446874E-007
   1.1139999999999997E-002     4.1319132516368446E-007
   1.1560000000000001E-002     7.4406006494941337E-007
   1.1980000000000005E-002     1.0499418991879981E-006
   1.2400000000000008E-002     1.2777809765414289E-006
   1.2819999999999998E-002     1.3743071846622556E-006
   1.3240000000000002E-002     1.2941302810488375E-006
   1.3660000000000005E-002     1.0081350247238230E-006
   1.4079999999999995E-002     5.1090382258037739E-007
   1.4499999999999999E-002    -1.7414111335809859E-007
   1.4920000000000003E-002    -9.9299845176078917E-007
   1.5340000000000006E-002    -1.8634826528540140E-006
   1.5759999999999996E-002    -2.6819365262423465E-006
   1.6180000000000000E-002    -3.3338014387893937E-006
   1.6600000000000004E-002    -3.7069743396732608E-006
   1.7020000000000007E-002    -3.7063607919461506E-006
   1.7439999999999997E-002    -3.2677732061510775E-006
   1.7860000000000001E-002    -2.3692702611576285E-006
   1.8280000000000005E-002    -1.0383224115537494E-006
   1.8700000000000008E-002     6.4632704719854593E-007
   1.9119999999999998E-002     2.5585819569040134E-006
   1.9540000000000002E-002     4.5343940335691629E-006
   1.9960000000000006E-002     6.3856794406665011E-006
   2.0380000000000009E-002     7.9172344730557113E-006
   2.0799999999999999E-002     8.9447609215528630E-006
   2.1220000000000003E-002     9.3120770299011327E-006
   2.1640000000000006E-002     8.9057736456917501E-006
   2.2059999999999996E-002     7.6659029970853974E-006
   2.2480000000000000E-002     5.5919704132569560E-006
   2.2900000000000004E-002     2.7440410966444158E-006
   2.3320000000000007E-002    -7.6056224959809730E-007
   2.3739999999999997E-002    -4.7539447462202275E-006
   2.4160000000000001E-002    -9.0263999283239421E-006
   2.4580000000000005E-002    -1.3335870213788075E-005
   2.5000000000000008E-002    -1.7416884721345711E-005
   2.5419999999999998E-002    -2.0988292691842303E-005
   2.5840000000000002E-002    -2.3759847025957044E-005
   2.6260000000000006E-002    -2.5438344515537825E-005
   2.6680000000000009E-002    -2.5735003395231548E-005
   2.7099999999999999E-002    -2.4375755282756360E-005
   2.7520000000000003E-002    -2.1116798734246711E-005
   2.7940000000000006E-002    -1.5766593729805515E-005
   2.8359999999999996E-002    -8.2149803977250171E-006
   2.8780000000000000E-002     1.5320222904553311E-006
   2.9200000000000004E-002     1.3314521358149408E-005
   2.9620000000000007E-002     2.6783174172542858E-005
   3.0039999999999997E-002     4.1371973194839163E-005
   3.0460000000000001E-002     5.6285956233249966E-005
   3.0880000000000005E-002     7.0510241248054751E-005
   3.1300000000000008E-002     8.2844900250450028E-005
   3.1719999999999998E-002     9.1967558723204959E-005
   3.2140000000000002E-002     9.6522162630053286E-005
   3.2560000000000006E-002     9.5228561618917188E-005
   3.2980000000000009E-002     8.7004121454257197E-005
   3.3399999999999999E-002     7.1086326234937031E-005
   3.3820000000000003E-002     4.7143910083225807E-005
   3.4240000000000007E-002     1.5364757414070391E-005
   3.4659999999999996E-002    -2.3488455415570716E-005
   3.5080000000000000E-002    -6.8061995806046086E-005
   3.5500000000000004E-002    -1.1643523516643592E-004
   3.5920000000000007E-002    -1.6618505870754917E-004
   3.6339999999999997E-002    -2.1448271398990433E-004
   3.6760000000000001E-002    -2.5821611348941884E-004
   3.7180000000000005E-002    -2.9412772706682020E-004
   3.7600000000000008E-002    -3.1895630927999166E-004
   3.8019999999999998E-002    -3.2957613825678915E-004
   3.8440000000000002E-002    -3.2312521664898451E-004
   3.8860000000000006E-002    -2.9711902537300175E-004
   3.9280000000000009E-002    -2.4954831585683476E-004
   3.9699999999999999E-002    -1.7895940480015397E-004
   4.0120000000000003E-002    -8.4519260542215266E-005
   4.0540000000000007E-002     3.3935217214283906E-005
   4.0960000000000010E-002     1.7586263521717562E-004
   4.1380000000000000E-002     3.4000053759381297E-004
   4.1800000000000004E-002     5.2436573344493841E-004
   4.2220000000000008E-002     7.2628290768914517E-004
   4.2639999999999997E-002     9.4244597804149770E-004
   4.3060000000000001E-002     1.1690171468628960E-003
   4.3480000000000005E-002     1.4017786622864314E-003
   4.3900000000000008E-002     1.6363334211406345E-003
   4.4319999999999998E-002     1.8683586652167667E-003
   4.4740000000000002E-002     2.0938977134236565E-003
   4.5159999999999992E-002     2.3097002036065318E-003
   4.5579999999999996E-002     2.5135665820008022E-003
   4.5999999999999999E-002     2.7046835262184107E-003
   4.6420000000000003E-002     2.8839202172547289E-003
   4.6840000000000007E-002     3.0540679175313267E-003
   4.7260000000000010E-002     3.2199661085435434E-003
   4.7680000000000014E-002     3.3885293009888440E-003
   4.8099999999999990E-002     3.5686849812551664E-003
   4.8519999999999994E-002     3.7711598817275222E-003
   4.8939999999999997E-002     4.0082157499884601E-003
   4.9360000000000001E-002     4.2933207099984686E-003
   4.9780000000000005E-002     4.6407506041269420E-003
   5.0200000000000009E-002     5.0652438463719592E-003
   5.0620000000000012E-002     5.5817034385206160E-003
   5.1040000000000016E-002     6.2049261325070534E-003
   5.1459999999999992E-002     6.9494601530106104E-003
   5.1879999999999996E-002     7.8294510943558628E-003
   5.2299999999999999E-002     8.8586388441601795E-003
   5.2720000000000003E-002     1.0050277943531645E-002
   5.3140000000000007E-002     1.1417229232924278E-002
   5.3560000000000010E-002     1.2971956161018346E-002
   5.3980000000000014E-002     1.4726560502879507E-002
   5.4400000000000018E-002     1.6692850280080301E-002
   5.4819999999999994E-002     1.8882263798122384E-002
   5.5239999999999997E-002     2.1306067038958543E-002
   5.5660000000000001E-002     2.3975453318639976E-002
   5.6080000000000005E-002     2.6901998745611645E-002
   5.6500000000000009E-002     3.0097624772104238E-002
   5.6920000000000012E-002     3.3575405775510853E-002
   5.7340000000000016E-002     3.7350116431230325E-002
   5.7759999999999992E-002     4.1438525537605901E-002
   5.8179999999999996E-002     4.5860427670383272E-002
   5.8599999999999999E-002     5.0638974546781831E-002
   5.9020000000000003E-002     5.5801323357684555E-002
   5.9440000000000007E-002     6.1379142623570929E-002
   5.9860000000000010E-002     6.7408701554068293E-002
   6.0280000000000014E-002     7.3930450359441791E-002
   6.0700000000000018E-002     8.0989064095105909E-002
   6.1119999999999994E-002     8.8633214113699899E-002
   6.1539999999999997E-002     9.6914641143122246E-002
   6.1960000000000001E-002    0.10588779856932232
   6.2380000000000005E-002    0.11560782487071183
   6.2800000000000009E-002    0.12613149027092499
   6.3220000000000012E-002    0.13751511147101889
   6.3640000000000016E-002    0.14981395011361512
   6.4059999999999992E-002    0.16308256798879020
   6.4479999999999996E-002    0.17737425633332032
   6.4899999999999999E-002    0.19273868162504051
   6.5320000000000003E-002    0.20922350138255075
   6.5740000000000007E-002    0.22687327928049136
   6.6160000000000010E-002    0.24573029285271120
   6.6580000000000014E-002    0.26583216522036945
   6.7000000000000018E-002    0.28721235377087562
   6.7419999999999994E-002    0.30990040243219991
   6.7839999999999998E-002    0.33392201385209230
   6.8260000000000001E-002    0.35929867450698361
   6.8680000000000005E-002    0.38604925024823511
   6.9100000000000009E-002    0.41418576512477606
   6.9520000000000012E-002    0.44371144885772135
   6.9940000000000016E-002    0.47462915678563222
   7.0359999999999992E-002    0.50693870063646640
   7.0779999999999996E-002    0.54063287341331512
   7.1199999999999999E-002    0.57570316102572117
   7.1620000000000003E-002    0.61213098992856974
   7.2040000000000007E-002    0.64989610416213139
   7.2460000000000011E-002    0.68896967863845560
   7.2880000000000014E-002    0.72931521193414350
   7.3300000000000018E-002    0.77088471363980637
   7.3719999999999994E-002    0.81362322371545559
   7.4139999999999998E-002    0.85745021943596145
   7.4560000000000001E-002    0.90226825070651351
   7.4980000000000005E-002    0.94795970613699687
   7.5400000000000009E-002    0.99439000182986215
   7.5820000000000012E-002     1.0414048112617804
   7.6240000000000016E-002     1.0888162090664946
   7.6659999999999992E-002     1.1363952542017630
   7.7079999999999996E-002     1.1838996343526478
   7.7499999999999999E-002     1.2310649572913828
   7.7920000000000003E-002     1.2775800083995070
   7.8340000000000007E-002     1.3231249048314113
   7.8760000000000011E-002     1.3673216733766962
   7.9180000000000014E-002     1.4097857326036565
   7.9600000000000018E-002     1.4501145612685029
   8.0019999999999994E-002     1.4878571684077944
   8.0439999999999998E-002     1.5225621304864521
   8.0860000000000001E-002     1.5537347875433107
   8.1280000000000005E-002     1.5808899244621297
   8.1700000000000009E-002     1.6034983325349683
   8.2120000000000012E-002     1.6210285373323636
   8.2540000000000016E-002     1.6329563130192168
   8.2959999999999992E-002     1.6387011564664180
   8.3379999999999996E-002     1.6376730207368022
   8.3799999999999999E-002     1.6293001968737506
   8.4220000000000003E-002     1.6130212185517550
   8.4640000000000007E-002     1.5882931008778163
   8.5060000000000011E-002     1.5545647774549143
   8.5480000000000014E-002     1.5112488527540024
   8.5900000000000018E-002     1.4577972445650353
   8.6319999999999994E-002     1.3936745620172397
   8.6739999999999998E-002     1.3183626992627460
   8.7160000000000001E-002     1.2313557518724014
   8.7580000000000005E-002     1.1321137240026062
   8.8000000000000009E-002     1.0201989026522094
   8.8420000000000012E-002    0.89510442920593458
   8.8840000000000016E-002    0.75644416123987368
   8.9259999999999992E-002    0.60387367099205191
   8.9679999999999996E-002    0.43708728050727375
   9.0100000000000000E-002    0.25585655854371492
   9.0520000000000003E-002     6.0017786818857735E-002
   9.0940000000000007E-002   -0.15051977388915716
   9.1360000000000011E-002   -0.37583444945064465
   9.1780000000000014E-002   -0.61602172983448245
   9.2200000000000018E-002   -0.87093845048734619
   9.2619999999999994E-002    -1.1403548965660171
   9.3039999999999998E-002    -1.4239199251116195
   9.3460000000000001E-002    -1.7212489108185509
   9.3880000000000005E-002    -2.0317887813515965
   9.4300000000000009E-002    -2.3548777148233140
   9.4720000000000013E-002    -2.6897378469878990
   9.5140000000000016E-002    -3.0354509618172436
   9.5559999999999992E-002    -3.3909865937266583
   9.5979999999999996E-002    -3.7552305362867591
   9.6400000000000000E-002    -4.1270771559707811
   9.6820000000000003E-002    -4.5051780429654702
   9.7240000000000007E-002    -4.8880003388186681
   9.7660000000000011E-002    -5.2739382073985084
   9.8080000000000014E-002    -5.6612373056119276
   9.8500000000000018E-002    -6.0481477940185933
   9.8919999999999994E-002    -6.4330070098079810
   9.9339999999999998E-002    -6.8139284229904611
   9.9760000000000001E-002    -7.1888828778422553
  0.10018000000000001         -7.5558522419881671
  0.10060000000000001         -7.9126106017810329
  0.10102000000000001         -8.2571195405017512
  0.10144000000000002         -8.5870352990250112
  0.10185999999999999         -8.9002105942514262
  0.10228000000000000         -9.1942862395513423
  0.10270000000000000         -9.4669437784098971
  0.10312000000000000         -9.7160903797470315
  0.10354000000000001         -9.9395798705689575
  0.10396000000000001         -10.135411216118161
  0.10438000000000001         -10.301428384346091
  0.10480000000000002         -10.435696825125754
  0.10521999999999999         -10.536248135997099
  0.10564000000000000         -10.601236412186383
  0.10606000000000000         -10.628937980489173
  0.10648000000000001         -10.617769818272556
  0.10690000000000001         -10.566234345317042
  0.10732000000000001         -10.473001794954010
  0.10774000000000002         -10.337025360468848
  0.10815999999999999         -10.157501012918079
  0.10858000000000000         -9.9338189330684035
  0.10900000000000000         -9.6655293181994235
  0.10942000000000000         -9.3524357637141620
  0.10984000000000001         -8.9944120399912588
  0.11026000000000001         -8.5916310583877227
  0.11068000000000001         -8.1444406733596519
  0.11110000000000002         -7.6534693735652493
  0.11151999999999999         -7.1195053104781012
  0.11194000000000000         -6.5435610311993671
  0.11236000000000000         -5.9270210246213129
  0.11278000000000001         -5.2713830442903138
  0.11320000000000001         -4.5785073287983078
  0.11362000000000001         -3.8504274917039054
  0.11404000000000002         -3.0893195417183188
  0.11446000000000002         -2.2975736497398014
  0.11488000000000000         -1.4777723430916461
  0.11530000000000000        -0.63227151442875562
  0.11572000000000000         0.23614967338744092
  0.11614000000000001          1.1247735984901190
  0.11656000000000001          2.0304810107178319
  0.11698000000000001          2.9501494724334214
  0.11740000000000002          3.8807007795781798
  0.11781999999999999          4.8187284693243218
  0.11824000000000000          5.7611551275876893
  0.11866000000000000          6.7046197337199693
  0.11908000000000001          7.6454869581951161
  0.11950000000000001          8.5804446112844648
  0.11992000000000001          9.5065043950188102
  0.12034000000000002          10.420273882291093
  0.12076000000000002          11.319088412594493
  0.12118000000000000          12.199600446325629
  0.12160000000000000          13.059185101084754
  0.12202000000000000          13.894807979031031
  0.12244000000000001          14.703594939487763
  0.12286000000000001          15.482711026263487
  0.12328000000000001          16.229785681950460
  0.12370000000000002          16.942690850215506
  0.12411999999999999          17.619091533007733
  0.12454000000000000          18.256657009605398
  0.12496000000000000          18.853823766625780
  0.12537999999999999          19.408871873759303
  0.12580000000000002          19.920465686727873
  0.12622000000000000          20.387132754403858
  0.12664000000000003          20.807715448836284
  0.12706000000000001          21.181134068018455
  0.12747999999999998          21.505902304447325
  0.12790000000000001          21.781484886692265
  0.12831999999999999          22.007258683959805
  0.12874000000000002          22.182676816402584
  0.12916000000000000          22.306488064520629
  0.12958000000000003          22.377788894724432
  0.13000000000000000          22.396470331020765
  0.13041999999999998          22.362070875962250
  0.13084000000000001          22.274662864713687
  0.13125999999999999          22.134272842036676
  0.13168000000000002          21.940994109299098
  0.13210000000000000          21.694321638802425
  0.13252000000000003          21.393582646295595
  0.13294000000000000          21.039013772995137
  0.13336000000000003          20.630027081113930
  0.13378000000000001          20.166956399719240
  0.13419999999999999          19.649290998284933
  0.13462000000000002          19.077049365472462
  0.13503999999999999          18.449712973177281
  0.13546000000000002          17.768066270176629
  0.13588000000000000          17.032668612451381
  0.13630000000000003          16.244416111109580
  0.13672000000000001          15.403460431086714
  0.13713999999999998          14.509812980202266
  0.13756000000000002          13.563755490922773
  0.13797999999999999          12.565658969998021
  0.13840000000000002          11.516240967176632
  0.13882000000000000          10.416456514819158
  0.13924000000000003          9.2672921698059856
  0.13966000000000001          8.0698633192065721
  0.14007999999999998          6.8257687652194043
  0.14050000000000001          5.5370826717470543
  0.14091999999999999          4.2060874980631624
  0.14134000000000002          2.8353740847151618
  0.14176000000000000          1.4275187470118329
  0.14218000000000003         -1.4945435904006210E-002
  0.14260000000000000         -1.4893351524012373
  0.14301999999999998         -2.9930258332439754
  0.14344000000000001         -4.5227686784904471
  0.14385999999999999         -6.0742495190242636
  0.14428000000000002         -7.6426626795841415
  0.14470000000000000         -9.2232567916424610
  0.14512000000000003         -10.810642994988548
  0.14554000000000000         -12.400533773114367
  0.14596000000000003         -13.987350248974469
  0.14638000000000001         -15.565220704598433
  0.14679999999999999         -17.128354053979894
  0.14722000000000002         -18.669903455447336
  0.14763999999999999         -20.183696938233869
  0.14806000000000002         -21.663729796528397
  0.14848000000000000         -23.103820967674682
  0.14890000000000003         -24.497251433025816
  0.14932000000000001         -25.837120706817831
  0.14973999999999998         -27.116146224322119
  0.15016000000000002         -28.328229668801750
  0.15057999999999999         -29.467487232242810
  0.15100000000000002         -30.528180131999704
  0.15142000000000000         -31.504010248492619
  0.15184000000000003         -32.388271707772383
  0.15226000000000001         -33.174631883415081
  0.15267999999999998         -33.857414187446160
  0.15310000000000001         -34.432602718607534
  0.15351999999999999         -34.896226612460978
  0.15394000000000002         -35.244265140886604
  0.15436000000000000         -35.472901744231955
  0.15478000000000003         -35.578698887029987
  0.15520000000000000         -35.559338711953394
  0.15561999999999998         -35.413248816788673
  0.15604000000000001         -35.139526636496505
  0.15645999999999999         -34.737771370679702
  0.15688000000000002         -34.206806457010778
  0.15730000000000000         -33.547961998848372
  0.15772000000000003         -32.762295899418298