  -4.0000000000000001E-002     0.0000000000000000
  -3.9899999999999998E-002     0.0000000000000000
  -3.9800000000000002E-002     0.0000000000000000
  -3.9699999999999999E-002     0.0000000000000000
  -3.9600000000000003E-002     0.0000000000000000
  -3.9500000000000000E-002     0.0000000000000000
  -3.9399999999999998E-002     0.0000000000000000
  -3.9300000000000002E-002     0.0000000000000000
  -3.9199999999999999E-002     0.0000000000000000
  -3.9100000000000003E-002     0.0000000000000000
  -3.9000000000000000E-002     0.0000000000000000
  -3.8900000000000004E-002    -5.6674115091152902E-041
  -3.8800000000000001E-002    -1.2856002566178385E-039
  -3.8699999999999998E-002    -1.5193446877386183E-038
  -3.8600000000000002E-002    -1.2450969576491783E-037
  -3.8500000000000000E-002    -7.9468492385481771E-037
  -3.8400000000000004E-002    -4.2073456812636995E-036
  -3.8300000000000001E-002    -1.9220517887816690E-035
  -3.8199999999999998E-002    -7.7827965682257049E-035
  -3.8100000000000002E-002    -2.8480400594050482E-034
  -3.7999999999999999E-002    -9.5574183491430344E-034
  -3.7900000000000003E-002    -2.9747383302855284E-033
  -3.7800000000000000E-002    -8.6655621526375261E-033
  -3.7699999999999997E-002    -2.3799868248482162E-032
  -3.7600000000000001E-002    -6.2003536036594264E-032
  -3.7499999999999999E-002    -1.5400250231648258E-031
  -3.7400000000000003E-002    -3.6624851627694294E-031
  -3.7300000000000000E-002    -8.3706247425444600E-031
  -3.7200000000000004E-002    -1.8443841145192805E-030
  -3.7100000000000001E-002    -3.9287375954764416E-030
  -3.6999999999999998E-002    -8.1097848030461480E-030
  -3.6900000000000002E-002    -1.6256983804527556E-029
  -3.6799999999999999E-002    -3.1707159444164842E-029
  -3.6700000000000003E-002    -6.0267289173890178E-029
  -3.6600000000000001E-002    -1.1180303790716056E-028
  -3.6499999999999998E-002    -2.0269562848087696E-028
  -3.6400000000000002E-002    -3.5955417243358633E-028
  -3.6299999999999999E-002    -6.2469733306336596E-028
  -3.6200000000000003E-002    -1.0640651238802704E-027
  -3.6100000000000000E-002    -1.7783790587438854E-027
  -3.6000000000000004E-002    -2.9185184154274516E-027
  -3.5900000000000001E-002    -4.7061981750587719E-027
  -3.5799999999999998E-002    -7.4610687823676845E-027
  -3.5700000000000003E-002    -1.1635249225146893E-026
  -3.5600000000000000E-002    -1.7855968278778666E-026
  -3.5500000000000004E-002    -2.6976303515805707E-026
  -3.5400000000000001E-002    -4.0132839411420234E-026
  -3.5299999999999998E-002    -5.8807207738534945E-026
  -3.5200000000000002E-002    -8.4885815277590340E-026
  -3.5099999999999999E-002    -1.2070829096949177E-025
  -3.5000000000000003E-002    -1.6909004240711808E-025
  -3.4900000000000000E-002    -2.3329806923670807E-025
  -3.4799999999999998E-002    -3.1695053130386446E-025
  -3.4700000000000002E-002    -4.2380151904892092E-025
  -3.4599999999999999E-002    -5.5736060068349585E-025
  -3.4500000000000003E-002    -7.2028438856543745E-025
  -3.4400000000000000E-002    -9.1346552811280988E-025
  -3.4299999999999997E-002    -1.1347301651898569E-024
  -3.4200000000000001E-002    -1.3770474290673765E-024
  -3.4099999999999998E-002    -1.6261463329318549E-024
  -3.4000000000000002E-002    -1.8574378851523267E-024
  -3.3900000000000000E-002    -2.0321520374275081E-024
  -3.3799999999999997E-002    -2.0926229589781300E-024
  -3.3700000000000001E-002    -1.9567061693130758E-024
  -3.3599999999999998E-002    -1.5113718043876290E-024
  -3.3500000000000002E-002    -6.0563001339783804E-025
  -3.3399999999999999E-002     9.5693590551024004E-025
  -3.3300000000000003E-002     3.4255689219238996E-024
  -3.3200000000000000E-002     7.1089959633810122E-024
  -3.3099999999999997E-002     1.2380422489583820E-023
  -3.3000000000000002E-002     1.9679619916961765E-023
  -3.2899999999999999E-002     2.9510541779623523E-023
  -3.2800000000000003E-002     4.2432547257355966E-023
  -3.2700000000000000E-002     5.9042925539990805E-023
  -3.2600000000000004E-002     7.9948080316258674E-023
  -3.2500000000000001E-002     1.0572044376886777E-022
  -3.2399999999999998E-002     1.3683798356484788E-022
  -3.2300000000000002E-002     1.7360311742082453E-022
  -3.2199999999999999E-002     2.1603797761835460E-022
  -3.2100000000000004E-002     2.6375358631140448E-022
  -3.2000000000000001E-002     3.1579099156181302E-022
  -3.1899999999999998E-002     3.7043408642370070E-022
  -3.1800000000000002E-002     4.2499503877724953E-022
  -3.1699999999999999E-002     4.7557624466194353E-022
  -3.1600000000000003E-002     5.1681531794490339E-022
  -3.1500000000000000E-002     5.4162301179551030E-022
  -3.1399999999999997E-002     5.4092947053118895E-022
  -3.1300000000000001E-002     5.0345749206058530E-022
  -3.1199999999999999E-002     4.1554852410053654E-022
  -3.1100000000000003E-002     2.6107198934818135E-022
  -3.1000000000000000E-002     2.1455033425695795E-023
  -3.0900000000000000E-002    -3.2412454340811676E-022
  -3.0800000000000001E-002    -7.9833465768706027E-022
  -3.0699999999999998E-002    -1.4250228759208317E-021
  -3.0600000000000002E-002    -2.2282333250908820E-021
  -3.0499999999999999E-002    -3.2308549873779288E-021
  -3.0400000000000000E-002    -4.4528485427954115E-021
  -3.0300000000000001E-002    -5.9090135772833534E-021
  -3.0200000000000001E-002    -7.6062633901360730E-021
  -3.0100000000000002E-002    -9.5403998781861502E-021
  -2.9999999999999999E-002    -1.1692396675654515E-020
  -2.9899999999999999E-002    -1.4024247903009910E-020
  -2.9800000000000000E-002    -1.6474453812620012E-020
  -2.9700000000000001E-002    -1.8953284695068423E-020
  -2.9600000000000001E-002    -2.1338012473728990E-020
  -2.9499999999999998E-002    -2.3468336977589752E-020
  -2.9400000000000003E-002    -2.5142335664308272E-020
  -2.9300000000000000E-002    -2.6113297069429209E-020
  -2.9200000000000000E-002    -2.6087898424097282E-020
  -2.9100000000000001E-002    -2.4726195961534476E-020
  -2.8999999999999998E-002    -2.1644019217172459E-020
  -2.8900000000000002E-002    -1.6418346087047054E-020
  -2.8799999999999999E-002    -8.5962693363913357E-021
  -2.8700000000000000E-002     2.2918256619583803E-021
  -2.8600000000000000E-002     1.6714313572040515E-020
  -2.8500000000000001E-002     3.5115112703757407E-020
  -2.8400000000000002E-002     5.7884832646147905E-020
  -2.8299999999999999E-002     8.5326090640848572E-020
  -2.8200000000000003E-002     1.1761305021206730E-019
  -2.8100000000000000E-002     1.5474551102699949E-019
  -2.8000000000000001E-002     1.9649817622864955E-019
  -2.7900000000000001E-002     2.4236627177290406E-019
  -2.7799999999999998E-002     2.9150896856710286E-019
  -2.7700000000000002E-002     3.4269278522156455E-019
  -2.7600000000000000E-002     3.9423751111704078E-019
  -2.7500000000000000E-002     4.4396768709191123E-019
  -2.7400000000000001E-002     4.8917372795339360E-019
  -2.7299999999999998E-002     5.2658612478218964E-019
  -2.7200000000000002E-002     5.5236836219849010E-019
  -2.7099999999999999E-002     5.6213291913694889E-019
  -2.7000000000000000E-002     5.5098521281672487E-019
  -2.6900000000000000E-002     5.1360171561057991E-019
  -2.6800000000000001E-002     4.4434601882457767E-019
  -2.6700000000000002E-002     3.3742811666478838E-019
  -2.6599999999999999E-002     1.8711014156526725E-019
  -2.6500000000000003E-002    -1.2038952232777989E-020
  -2.6400000000000000E-002    -2.6483877861262086E-019
  -2.6300000000000000E-002    -5.7514384978694860E-019
  -2.6200000000000001E-002    -9.4544458928368885E-019
  -2.6099999999999998E-002    -1.3764285392882381E-018
  -2.6000000000000002E-002    -1.8665113387348274E-018
  -2.5899999999999999E-002    -2.4113497724196708E-018
  -2.5800000000000000E-002    -3.0033523902710626E-018
  -2.5700000000000001E-002    -3.6312079110026466E-018
  -2.5599999999999998E-002    -4.2794544678094285E-018
  -2.5500000000000002E-002    -4.9281162692837119E-018
  -2.5399999999999999E-002    -5.5524378676433162E-018
  -2.5300000000000000E-002    -6.1227462263644330E-018
  -2.5200000000000000E-002    -6.6044767763709213E-018
  -2.5100000000000001E-002    -6.9583979955706162E-018
  -2.5000000000000001E-002    -7.1410684261437641E-018
  -2.4899999999999999E-002    -7.1055501178213496E-018
  -2.4800000000000003E-002    -6.8024223377257797E-018
  -2.4700000000000000E-002    -6.1811042321703554E-018
  -2.4600000000000000E-002    -5.1915029840297842E-018
  -2.4500000000000001E-002    -3.7859986326200010E-018
  -2.4399999999999998E-002    -1.9217523211974969E-018
  -2.4299999999999999E-002     4.3668234554563872E-019
  -2.4199999999999999E-002     3.3144808680463986E-018
  -2.4100000000000000E-002     6.7234580220902425E-018
  -2.4000000000000000E-002     1.0658839269482726E-017
  -2.3900000000000001E-002     1.5095991585172327E-017
  -2.3800000000000002E-002     1.9987216426316786E-017
  -2.3699999999999999E-002     2.5258749134611076E-017
  -2.3599999999999999E-002     3.0808100377798650E-017
  -2.3500000000000000E-002     3.6501931949858412E-017
  -2.3400000000000001E-002     4.2174600933126617E-017
  -2.3300000000000001E-002     4.7627590598035439E-017
  -2.3199999999999998E-002     5.2630021600731528E-017
  -2.3099999999999999E-002     5.6920369210027667E-017
  -2.3000000000000000E-002     6.0209642989677431E-017
  -2.2900000000000000E-002     6.2186095110421834E-017
  -2.2800000000000001E-002     6.2521619419208044E-017
  -2.2700000000000001E-002     6.0879910748751600E-017
  -2.2599999999999999E-002     5.6926450641891157E-017
  -2.2499999999999999E-002     5.0340193759282635E-017
  -2.2400000000000000E-002     4.0827004601269527E-017
  -2.2300000000000000E-002     2.8134530215296607E-017
  -2.2200000000000001E-002     1.2068348415828185E-017
  -2.2100000000000002E-002    -7.4909699611567576E-018
  -2.1999999999999999E-002    -3.0570338891248858E-017
  -2.1899999999999999E-002    -5.7086652365485527E-017
  -2.1800000000000000E-002    -8.6829956227969167E-017
  -2.1700000000000001E-002    -1.1944789800753179E-016
  -2.1600000000000001E-002    -1.5443231749282492E-016
  -2.1499999999999998E-002    -1.9110864558558911E-016
  -2.1399999999999999E-002    -2.2862909494985142E-016
  -2.1299999999999999E-002    -2.6597027773176123E-016
  -2.1200000000000000E-002    -3.0193635546336289E-016
  -2.1100000000000001E-002    -3.3516818437144807E-016
  -2.1000000000000001E-002    -3.6415944870822300E-016
  -2.0899999999999998E-002    -3.8728003356669678E-016
  -2.0799999999999999E-002    -4.0280733862995018E-016
  -2.0700000000000000E-002    -4.0896550638450536E-016
  -2.0600000000000000E-002    -4.0397275008625369E-016
  -2.0500000000000001E-002    -3.8609625208334969E-016
  -2.0400000000000001E-002    -3.5371436779827500E-016
  -2.0299999999999999E-002    -3.0538486481965156E-016
  -2.0199999999999999E-002    -2.3991824419173832E-016
  -2.0100000000000000E-002    -1.5645426454725974E-016
  -2.0000000000000000E-002    -5.4540123910181828E-017
  -1.9900000000000001E-002     6.5792390822916222E-017
  -1.9799999999999998E-002     2.0395306643264312E-016
  -1.9699999999999999E-002     3.5872575882136626E-016
  -1.9599999999999999E-002     5.2821001060557771E-016
  -1.9500000000000000E-002     7.0977533449779963E-016
  -1.9400000000000001E-002     9.0003105761017306E-016
  -1.9300000000000001E-002     1.0948147541607720E-015
  -1.9199999999999998E-002     1.2892033098414767E-015
  -1.9099999999999999E-002     1.4775476501688116E-015
  -1.9000000000000000E-002     1.6535349444660088E-015
  -1.8900000000000000E-002     1.8102798736630748E-015
  -1.8800000000000001E-002     1.9404455442500112E-015
  -1.8700000000000001E-002     2.0363942601414262E-015
  -1.8599999999999998E-002     2.0903695288810751E-015
  -1.8499999999999999E-002     2.0947054905380699E-015
  -1.8400000000000000E-002     2.0420623928662151E-015
  -1.8300000000000000E-002     1.9256847245946842E-015
  -1.8200000000000001E-002     1.7396763952567582E-015
  -1.8100000000000002E-002     1.4792879852380640E-015
  -1.7999999999999999E-002     1.1412078074730741E-015
  -1.7899999999999999E-002     7.2385005746585071E-016
  -1.7800000000000000E-002     2.2762980783032816E-016
  -1.7700000000000000E-002    -3.4478391414691570E-016
  -1.7600000000000001E-002    -9.8824752736345872E-016
  -1.7499999999999998E-002    -1.6949652317403479E-015
  -1.7399999999999999E-002    -2.4543649973046656E-015
  -1.7299999999999999E-002    -3.2530382925013762E-015
  -1.7200000000000000E-002    -4.0747523661710614E-015
  -1.7100000000000001E-002    -4.9005438446905920E-015
  -1.7000000000000001E-002    -5.7089038086721028E-015
  -1.6899999999999998E-002    -6.4760509610884819E-015
  -1.6799999999999999E-002    -7.1763096157260835E-015
  -1.6700000000000000E-002    -7.7825759888221907E-015
  -1.6600000000000000E-002    -8.2668916403703073E-015
  -1.6500000000000001E-002    -8.6010978070719113E-015
  -1.6400000000000001E-002    -8.7575744385829345E-015
  -1.6299999999999999E-002    -8.7100550432090210E-015
  -1.6199999999999999E-002    -8.4344923555776212E-015
  -1.6100000000000000E-002    -7.9099646618915539E-015
  -1.6000000000000000E-002    -7.1195999128744608E-015
  -1.5900000000000001E-002    -6.0514922134197353E-015
  -1.5799999999999998E-002    -4.6995840074050884E-015
  -1.5699999999999999E-002    -3.0644938406402525E-015
  -1.5599999999999999E-002    -1.1542503149157774E-015
  -1.5500000000000000E-002     1.0150914837696052E-015
  -1.5400000000000000E-002     3.4189800936814925E-015
  -1.5300000000000001E-002     6.0240758744994818E-015
  -1.5199999999999998E-002     8.7881591042423927E-015
  -1.5099999999999999E-002     1.1660264022232171E-014
  -1.4999999999999999E-002     1.4581055546997179E-014
  -1.4900000000000000E-002     1.7483469844938558E-014
  -1.4800000000000001E-002     2.0293610067671948E-014
  -1.4700000000000001E-002     2.2931924574857120E-014
  -1.4599999999999998E-002     2.5314643502076517E-014
  -1.4499999999999999E-002     2.7355466050466189E-014
  -1.4400000000000000E-002     2.8967486639637843E-014
  -1.4300000000000000E-002     3.0065319266310564E-014
  -1.4200000000000001E-002     3.0567386187334289E-014
  -1.4099999999999998E-002     3.0398345516116643E-014
  -1.3999999999999999E-002     2.9491579805421969E-014
  -1.3899999999999999E-002     2.7791706653026993E-014
  -1.3800000000000000E-002     2.5257036791333752E-014
  -1.3700000000000000E-002     2.1861927144897070E-014
  -1.3600000000000001E-002     1.7598944152571842E-014
  -1.3499999999999998E-002     1.2480777214940886E-014
  -1.3399999999999999E-002     6.5418311162557773E-015
  -1.3299999999999999E-002    -1.6057850767211033E-016
  -1.3200000000000000E-002    -7.5454796084244505E-015
  -1.3100000000000001E-002    -1.5508012829088501E-014
  -1.3000000000000001E-002    -2.3919753032669924E-014
  -1.2899999999999998E-002    -3.2629640363355389E-014
  -1.2799999999999999E-002    -4.1465522150879036E-014
  -1.2699999999999999E-002    -5.0236345031789975E-014
  -1.2600000000000000E-002    -5.8734972181034850E-014
  -1.2500000000000001E-002    -6.6741629041987272E-014
  -1.2399999999999998E-002    -7.4027928427013168E-014
  -1.2299999999999998E-002    -8.0361430942858803E-014
  -1.2199999999999999E-002    -8.5510686530752833E-014
  -1.2100000000000000E-002    -8.9250621595950846E-014
  -1.2000000000000000E-002    -9.1368285279249534E-014
  -1.1900000000000001E-002    -9.1668704148718111E-014
  -1.1799999999999998E-002    -8.9980838535383412E-014
  -1.1699999999999999E-002    -8.6163423672434153E-014
  -1.1599999999999999E-002    -8.0110634651572171E-014
  -1.1500000000000000E-002    -7.1757344803548978E-014
  -1.1400000000000000E-002    -6.1083916516515430E-014
  -1.1300000000000001E-002    -4.8120304263618227E-014
  -1.1199999999999998E-002    -3.2949398689075676E-014
  -1.1099999999999999E-002    -1.5709416935154839E-014
  -1.0999999999999999E-002     3.4047171176409142E-015
  -1.0900000000000000E-002     2.4141148810357359E-014
  -1.0800000000000001E-002     4.6192094745566015E-014
  -1.0699999999999998E-002     6.9196134011486471E-014
  -1.0599999999999998E-002     9.2741827130253529E-014
  -1.0499999999999999E-002     1.1637266400087859E-013
  -1.0400000000000000E-002     1.3959337429470670E-013
  -1.0300000000000000E-002     1.6187749654183320E-013
  -1.0200000000000001E-002     1.8267618049749162E-013
  -1.0099999999999998E-002     2.0142805338182329E-013
  -9.9999999999999985E-003     2.1757018387434657E-013
  -9.8999999999999991E-003     2.3054968307720247E-013
  -9.7999999999999997E-003     2.3983619994519256E-013
  -9.7000000000000003E-003     2.4493455224108840E-013
  -9.6000000000000009E-003     2.4539783182939146E-013
  -9.4999999999999980E-003     2.4084027957713139E-013
  -9.3999999999999986E-003     2.3094991630917550E-013
  -9.2999999999999992E-003     2.1550057745234330E-013
  -9.1999999999999998E-003     1.9436305321272884E-013
  -9.1000000000000004E-003     1.6751515810337764E-013
  -9.0000000000000011E-003     1.3505025548386784E-013
  -8.8999999999999982E-003     9.7184155796632699E-014
  -8.7999999999999988E-003     5.4260066627504280E-014
  -8.6999999999999994E-003     6.7513006700458712E-015
  -8.5999999999999965E-003    -4.4738406637092817E-014
  -8.5000000000000006E-003    -9.9477134971222292E-014
  -8.3999999999999977E-003    -1.5660981897164944E-013
  -8.3000000000000018E-003    -2.1516603331949574E-013
  -8.1999999999999990E-003    -2.7407077800821467E-013
  -8.0999999999999961E-003    -3.3215807491646099E-013
  -8.0000000000000002E-003    -3.8818755610132982E-013
  -7.8999999999999973E-003    -4.4086365417680962E-013
  -7.8000000000000014E-003    -4.8885748964513920E-013
  -7.6999999999999985E-003    -5.3083118413052577E-013
  -7.6000000000000026E-003    -5.6546401675655611E-013
  -7.4999999999999997E-003    -5.9148074892795277E-013
  -7.3999999999999969E-003    -6.0768078936901393E-013
  -7.3000000000000009E-003    -6.1296833494400849E-013
  -7.1999999999999981E-003    -6.0638316199887465E-013
  -7.1000000000000021E-003    -5.8713049613107193E-013
  -6.9999999999999993E-003    -5.5461055669878134E-013
  -6.8999999999999964E-003    -5.0844604134597793E-013
  -6.8000000000000005E-003    -4.4850771317370142E-013
  -6.6999999999999976E-003    -3.7493662688459217E-013
  -6.6000000000000017E-003    -2.8816288548047519E-013
  -6.4999999999999988E-003    -1.8891980265323821E-013
  -6.3999999999999960E-003    -7.8253050740662022E-014
  -6.3000000000000000E-003     4.2475981634976581E-014
  -6.1999999999999972E-003     1.7159311352463874E-013
  -6.1000000000000013E-003     3.0712108203823085E-013
  -5.9999999999999984E-003     4.4679640846465030E-013
  -5.9000000000000025E-003     5.8809380976132530E-013
  -5.7999999999999996E-003     7.2825784031699259E-013
  -5.6999999999999967E-003     8.6434250598857454E-013
  -5.6000000000000008E-003     9.9325777637437884E-013
  -5.4999999999999979E-003     1.1118233070317451E-012
  -5.4000000000000020E-003     1.2168280705965318E-012
  -5.2999999999999992E-003     1.3050963304853114E-012
  -5.1999999999999963E-003     1.3735573008849533E-012
  -5.1000000000000004E-003     1.4193186556599180E-012
  -4.9999999999999975E-003     1.4397422056638964E-012
  -4.9000000000000016E-003     1.4325202265727532E-012
  -4.7999999999999987E-003     1.3957500519939936E-012
  -4.6999999999999958E-003     1.3280066065921026E-012
  -4.5999999999999999E-003     1.2284094097828047E-012
  -4.4999999999999971E-003     1.0966836163153748E-012
  -4.4000000000000011E-003     9.3321205797691764E-013
  -4.2999999999999983E-003     7.3907660590524782E-013
  -4.2000000000000023E-003     5.1608771509809026E-013
  -4.0999999999999995E-003     2.6679984718898375E-013
  -3.9999999999999966E-003    -5.4886570311776187E-015
  -3.9000000000000007E-003    -2.9675215193133986E-013
  -3.7999999999999978E-003    -6.0227181315070100E-013
  -3.7000000000000019E-003    -9.1668794950650057E-013
  -3.5999999999999990E-003    -1.2340702461657860E-012
  -3.4999999999999962E-003    -1.5480065146400435E-012
  -3.4000000000000002E-003    -1.8517084567071240E-012
  -3.2999999999999974E-003    -2.1381329866343446E-012
  -3.2000000000000015E-003    -2.4001195995937419E-012
  -3.0999999999999986E-003    -2.6305381484181822E-012
  -2.9999999999999957E-003    -2.8224473539589789E-012
  -2.8999999999999998E-003    -2.9692606880182826E-012
  -2.7999999999999969E-003    -3.0649144246858162E-012
  -2.7000000000000010E-003    -3.1040356916756107E-012
  -2.5999999999999981E-003    -3.0821064016944844E-012
  -2.5000000000000022E-003    -2.9956193775548812E-012
  -2.3999999999999994E-003    -2.8422199489785971E-012
  -2.2999999999999965E-003    -2.6208336716126990E-012
  -2.2000000000000006E-003    -2.3317706272785177E-012
  -2.0999999999999977E-003    -1.9768058717728465E-012
  -2.0000000000000018E-003    -1.5592331028754791E-012
  -1.8999999999999989E-003    -1.0838856938713559E-012
  -1.7999999999999960E-003    -5.5712525521764422E-013
  -1.7000000000000001E-003     1.3205076782203933E-014
  -1.5999999999999973E-003     6.1786361617299779E-013
  -1.5000000000000013E-003     1.2463289948694278E-012
  -1.3999999999999985E-003     1.8869550019728898E-012
  -1.2999999999999956E-003     2.5271590375908204E-012
  -1.1999999999999997E-003     3.1536427115563814E-012
  -1.0999999999999968E-003     3.7526388246833520E-012
  -1.0000000000000009E-003     4.3101854550753327E-012
  -8.9999999999999802E-004     4.8124143559036270E-012
  -8.0000000000000210E-004     5.2458571341007509E-012
  -6.9999999999999923E-004     5.5977548985008951E-012
  -5.9999999999999637E-004     5.8563696427038625E-012
  -5.0000000000000044E-004     6.0112873880024953E-012
  -3.9999999999999758E-004     6.0537091832457701E-012
  -3.0000000000000165E-004     5.9767173848923605E-012
  -1.9999999999999879E-004     5.7755163498929285E-012
  -9.9999999999995925E-005     5.4476371330602902E-012
   0.0000000000000000          4.9930992500335503E-012
   1.0000000000000286E-004     4.4145282047935996E-012
   1.9999999999999879E-004     3.7172222765169405E-012
   3.0000000000000165E-004     2.9091609763526316E-012
   4.0000000000000452E-004     2.0009621130162580E-012
   5.0000000000000044E-004     1.0057766251792000E-012
   6.0000000000000331E-004    -6.0871534863452675E-014
   6.9999999999999923E-004    -1.1813027769522200E-012
   8.0000000000000210E-004    -2.3359521782173598E-012
   8.9999999999999802E-004    -3.5036884418054859E-012
   1.0000000000000009E-003    -4.6621777619049176E-012
   1.1000000000000038E-003    -5.7882830473143798E-012
   1.1999999999999997E-003    -6.8584942412852623E-012
   1.3000000000000025E-003    -7.8493817348701533E-012
   1.3999999999999985E-003    -8.7380588875696219E-012
   1.5000000000000013E-003    -9.5026530047559454E-012
   1.6000000000000042E-003    -1.0122764605713375E-011
   1.7000000000000001E-003    -1.0579916283337543E-011
   1.8000000000000030E-003    -1.0857975109301865E-011
   1.8999999999999989E-003    -1.0943542079477897E-011
   2.0000000000000018E-003    -1.0826296456545315E-011
   2.1000000000000046E-003    -1.0499296744514997E-011
   2.2000000000000006E-003    -9.9592235500156612E-012
   2.3000000000000034E-003    -9.2065599935353681E-012
   2.3999999999999994E-003    -8.2457079358944085E-012
   2.5000000000000022E-003    -7.0850404536304534E-012
   2.5999999999999981E-003    -5.7368792875933661E-012
   2.7000000000000010E-003    -4.2174037699627132E-012
   2.8000000000000039E-003    -2.5464946991349269E-012
   2.8999999999999998E-003    -7.4750795830968997E-013
   3.0000000000000027E-003     1.1530135570272937E-012
   3.0999999999999986E-003     3.1256874259005807E-012
   3.2000000000000015E-003     5.1386932903296767E-012
   3.3000000000000043E-003     7.1582210645071420E-012
   3.4000000000000002E-003     9.1489628373242482E-012
   3.5000000000000031E-003     1.1074636867280940E-011
   3.5999999999999990E-003     1.2898540742434239E-011
   3.7000000000000019E-003     1.4584125573868789E-011
   3.7999999999999978E-003     1.6095583199593477E-011
   3.9000000000000007E-003     1.7398431653714574E-011
   4.0000000000000036E-003     1.8460113646034948E-011
   4.0999999999999995E-003     1.9250571622886348E-011
   4.2000000000000023E-003     1.9742818491153002E-011
   4.2999999999999983E-003     1.9913478851996125E-011
   4.4000000000000011E-003     1.9743300744279324E-011
   4.5000000000000040E-003     1.9217643101865356E-011
   4.5999999999999999E-003     1.8326909434485117E-011
   4.7000000000000028E-003     1.7066941609966690E-011
   4.7999999999999987E-003     1.5439354655866211E-011
   4.9000000000000016E-003     1.3451815182585758E-011
   5.0000000000000044E-003     1.1118246948105259E-011
   5.1000000000000004E-003     8.4589722379457832E-012
   5.2000000000000032E-003     5.5007630395120799E-012
   5.2999999999999992E-003     2.2768106844317515E-012
   5.4000000000000020E-003    -1.1733998104765386E-012
   5.4999999999999979E-003    -4.8043153656751603E-012
   5.6000000000000008E-003    -8.5646463879318624E-012
   5.7000000000000037E-003    -1.2397806739561368E-011
   5.7999999999999996E-003    -1.6242472644645289E-011
   5.9000000000000025E-003    -2.0033254569118419E-011
   5.9999999999999984E-003    -2.3701492157801596E-011
   6.1000000000000013E-003    -2.7176158892694424E-011
   6.2000000000000041E-003    -3.0384892518720008E-011
   6.3000000000000000E-003    -3.3255120879260858E-011
   6.4000000000000029E-003    -3.5715291835103358E-011
   6.4999999999999988E-003    -3.7696193389002985E-011
   6.6000000000000017E-003    -3.9132325851953809E-011
   6.7000000000000046E-003    -3.9963362480355258E-011
   6.8000000000000005E-003    -4.0135592765944139E-011
   6.9000000000000034E-003    -3.9603400420196166E-011
   6.9999999999999993E-003    -3.8330706664257974E-011
   7.1000000000000021E-003    -3.6292344129940091E-011
   7.1999999999999981E-003    -3.3475347493983065E-011
   7.3000000000000009E-003    -2.9880119212233325E-011
   7.4000000000000038E-003    -2.5521409638407100E-011
   7.4999999999999997E-003    -2.0429128874677183E-011
   7.6000000000000026E-003    -1.4648886270673955E-011
   7.6999999999999985E-003    -8.2422844591145683E-012
   7.8000000000000014E-003    -1.2869004906851389E-012
   7.9000000000000042E-003     6.1240548222818436E-012
   8.0000000000000002E-003     1.3882425591027481E-011
   8.1000000000000030E-003     2.1866161659112038E-011
   8.1999999999999990E-003     2.9940733919930906E-011
   8.3000000000000018E-003     3.7960926069224854E-011
   8.4000000000000047E-003     4.5772958340295489E-011
   8.5000000000000006E-003     5.3216979434278500E-011
   8.6000000000000035E-003     6.0129838608258268E-011
   8.6999999999999994E-003     6.6348149196926443E-011
   8.8000000000000023E-003     7.1711532545482015E-011
   8.8999999999999982E-003     7.6066070109348516E-011
   9.0000000000000011E-003     7.9267821473383293E-011
   9.1000000000000039E-003     8.1186390943344122E-011
   9.1999999999999998E-003     8.1708390053947255E-011
   9.3000000000000027E-003     8.0740830687986431E-011
   9.3999999999999986E-003     7.8214268395271347E-011
   9.5000000000000015E-003     7.4085598766870930E-011
   9.6000000000000044E-003     6.8340562375812652E-011
   9.7000000000000003E-003     6.0995659911800004E-011
   9.8000000000000032E-003     5.2099668329530502E-011
   9.8999999999999991E-003     4.1734428413153779E-011
   1.0000000000000002E-002     3.0015056412535657E-011
   1.0100000000000005E-002     1.7089437504003158E-011
   1.0200000000000001E-002     3.1369941366765630E-012
   1.0300000000000004E-002    -1.1633278541867131E-011
   1.0400000000000000E-002    -2.6985495435449813E-011
   1.0500000000000002E-002    -4.2660281557305169E-011
   1.0599999999999998E-002    -5.8378808731607279E-011
   1.0700000000000001E-002    -7.3847476744770546E-011
   1.0800000000000004E-002    -8.8763087158216791E-011
   1.0900000000000000E-002    -1.0281848289439566E-010
   1.1000000000000003E-002    -1.1570851915498892E-010
   1.1099999999999999E-002    -1.2713621821980325E-010
   1.1200000000000002E-002    -1.3681912547358621E-010
   1.1300000000000004E-002    -1.4449545726602508E-010
   1.1400000000000000E-002    -1.4993024877174577E-010
   1.1500000000000003E-002    -1.5292107857778348E-010
   1.1599999999999999E-002    -1.5330338387631315E-010
   1.1700000000000002E-002    -1.5095522054586752E-010
   1.1800000000000005E-002    -1.4580124607643796E-010
   1.1900000000000001E-002    -1.3781603636076056E-010
   1.2000000000000004E-002    -1.2702633389594098E-010
   1.2100000000000000E-002    -1.1351252576785598E-010
   1.2200000000000003E-002    -9.7408907329121774E-011
   1.2299999999999998E-002    -7.8902974431915851E-011
   1.2400000000000001E-002    -5.8233654010031444E-011
   1.2500000000000004E-002    -3.5688424437907429E-011
   1.2600000000000000E-002    -1.1599434086850824E-011
   1.2700000000000003E-002     1.3661344624993355E-011
   1.2799999999999999E-002     3.9687877984029285E-011
   1.2900000000000002E-002     6.6046598745650442E-011
   1.3000000000000005E-002     9.2283639063772682E-011
   1.3100000000000001E-002     1.1793259424575098E-010
   1.3200000000000003E-002     1.4252266034020522E-010
   1.3299999999999999E-002     1.6558708570979519E-010
   1.3400000000000002E-002     1.8667162260399550E-010
   1.3500000000000005E-002     2.0534299260965838E-010
   1.3600000000000001E-002     2.2119703291245685E-010
   1.3700000000000004E-002     2.3386650949142052E-010
   1.3800000000000000E-002     2.4302837520195908E-010
   1.3900000000000003E-002     2.4841034784728322E-010
   1.3999999999999999E-002     2.4979668333813265E-010
   1.4100000000000001E-002     2.4703311618523571E-010
   1.4200000000000004E-002     2.4003068976874431E-010
   1.4300000000000000E-002     2.2876860128473453E-010
   1.4400000000000003E-002     2.1329597810204604E-010
   1.4499999999999999E-002     1.9373243287379438E-010