  -8.0000000000000002E-002     0.0000000000000000
  -7.9579999999999998E-002     0.0000000000000000
  -7.9160000000000008E-002     0.0000000000000000
  -7.8740000000000004E-002     0.0000000000000000
  -7.8320000000000001E-002     0.0000000000000000
  -7.7899999999999997E-002     0.0000000000000000
  -7.7480000000000007E-002     0.0000000000000000
  -7.7060000000000003E-002     0.0000000000000000
  -7.6640000000000000E-002     0.0000000000000000
  -7.6219999999999996E-002     0.0000000000000000
  -7.5800000000000006E-002     0.0000000000000000
  -7.5380000000000003E-002    -4.4171731017456330E-035
  -7.4959999999999999E-002     1.2598784484081055E-034
  -7.4539999999999995E-002     2.6255708461646157E-033
  -7.4120000000000005E-002     3.9146441671048473E-033
  -7.3700000000000002E-002    -4.3971671014315475E-032
  -7.3279999999999998E-002    -1.9665054562338682E-031
  -7.2860000000000008E-002    -2.3645654553442600E-032
  -7.2440000000000004E-002     1.9389025995504676E-030
  -7.2020000000000001E-002     5.1329745785183220E-030
  -7.1599999999999997E-002    -2.7172919434874114E-030
  -7.1180000000000007E-002    -4.3503058542913535E-029
  -7.0760000000000003E-002    -8.5950338163804171E-029
  -7.0340000000000000E-002     6.1111442100101536E-029
  -6.9919999999999996E-002     6.2413896886635229E-028
  -6.9500000000000006E-002     1.1122084083553659E-027
  -6.9080000000000003E-002    -5.2971357490137437E-028
  -6.8659999999999999E-002    -6.2720130770957842E-027
  -6.8239999999999995E-002    -1.1484105996721080E-026
  -6.7820000000000005E-002     7.6913077243768692E-028
  -6.7400000000000002E-002     4.6224658347070461E-026
  -6.6979999999999998E-002     9.4574267633467106E-026
  -6.6560000000000008E-002     3.3332898980673482E-026
  -6.6140000000000004E-002    -2.5212841174720623E-025
  -6.5720000000000001E-002    -6.2151344695299807E-025
  -6.5299999999999997E-002    -4.6004763797235078E-025
  -6.4879999999999993E-002     9.6465438198522731E-025
  -6.4460000000000003E-002     3.2516514634773463E-024
  -6.4040000000000000E-002     3.6338997353196403E-024
  -6.3619999999999996E-002    -1.8744037048494857E-024
  -6.3200000000000006E-002    -1.3304556870968902E-023
  -6.2780000000000002E-002    -2.0605285009904617E-023
  -6.2359999999999999E-002    -5.6154029874936831E-024
  -6.1940000000000002E-002     4.0019264632417914E-023
  -6.1520000000000005E-002     8.8634963039781372E-023
  -6.1100000000000002E-002     7.2065749425687640E-023
  -6.0679999999999998E-002    -6.8379634444040772E-023
  -6.0260000000000001E-002    -2.8739218578149515E-022
  -5.9840000000000004E-002    -3.8045342543469147E-022
  -5.9420000000000001E-002    -8.4529662825995850E-023
  -5.8999999999999997E-002     6.4157633166509881E-022
  -5.8580000000000000E-002     1.3440216115552952E-021
  -5.8160000000000003E-002     1.1550220185516348E-021
  -5.7740000000000000E-002    -5.5687011887921750E-022
  -5.7319999999999996E-002    -3.2499282059729157E-021
  -5.6899999999999999E-002    -4.8222807213490529E-021
  -5.6480000000000002E-002    -2.6291385380302353E-021
  -5.6059999999999999E-002     4.1468325636191347E-021
  -5.5640000000000002E-002     1.2280541458855877E-020
  -5.5220000000000005E-002     1.4788145436345043E-020
  -5.4800000000000001E-002     5.0605011753635217E-021
  -5.4379999999999998E-002    -1.6667418102430052E-020
  -5.3960000000000001E-002    -3.9053798980345711E-020
  -5.3540000000000004E-002    -4.2669885186722136E-020
  -5.3120000000000001E-002    -1.1781268708361069E-020
  -5.2699999999999997E-002     5.0187202910590137E-020
  -5.2280000000000000E-002     1.1208661857129038E-019
  -5.1860000000000003E-002     1.2374042135429686E-019
  -5.1440000000000000E-002     4.4181745894936802E-020
  -5.1019999999999996E-002    -1.2160505141208642E-019
  -5.0599999999999999E-002    -2.9997887673242608E-019
  -5.0180000000000002E-002    -3.6374766798047777E-019
  -4.9759999999999999E-002    -1.9450072235459489E-019
  -4.9340000000000002E-002     2.2627094262396559E-019
  -4.8920000000000005E-002     7.4548182521373005E-019
  -4.8500000000000001E-002     1.0473616686700982E-018
  -4.8079999999999998E-002     7.8238126499182376E-019
  -4.7660000000000001E-002    -2.0551830185024106E-019
  -4.7239999999999997E-002    -1.6558084338439545E-018
  -4.6820000000000001E-002    -2.8300948674213332E-018
  -4.6399999999999997E-002    -2.7472771024806329E-018
  -4.5980000000000000E-002    -7.2019391475079869E-019
  -4.5560000000000003E-002     3.0059793564508151E-018
  -4.5140000000000000E-002     6.8926557516930780E-018
  -4.4720000000000003E-002     8.4202661905587342E-018
  -4.4299999999999999E-002     5.2284156269307934E-018
  -4.3880000000000002E-002    -3.2335530723940928E-018
  -4.3459999999999999E-002    -1.4365629273767348E-017
  -4.3040000000000002E-002    -2.2423272594284654E-017
  -4.2619999999999998E-002    -2.0558068498965103E-017
  -4.2200000000000001E-002    -4.6151269382097380E-018
  -4.1779999999999998E-002     2.2846422722363084E-017
  -4.1360000000000001E-002     5.0731083763786388E-017
  -4.0939999999999997E-002     6.1995253083092073E-017
  -4.0520000000000000E-002     4.1178843607370925E-017
  -4.0099999999999997E-002    -1.5372596096655074E-017
  -3.9680000000000000E-002    -9.1536505733725893E-017
  -3.9260000000000003E-002    -1.5155182775219455E-016
  -3.8840000000000000E-002    -1.5193858969899424E-016
  -3.8420000000000003E-002    -6.3520713701166517E-017
  -3.7999999999999999E-002     1.0483415209681558E-016
  -3.7580000000000002E-002     2.9384610463431494E-016
  -3.7159999999999999E-002     4.0501074421880920E-016
  -3.6740000000000002E-002     3.3919985817671673E-016
  -3.6319999999999998E-002     5.2505039690386973E-017
  -3.5900000000000001E-002    -3.9487951585842242E-016
  -3.5479999999999998E-002    -8.2704266140055730E-016
  -3.5060000000000001E-002    -9.9993377912059085E-016
  -3.4639999999999997E-002    -7.0620436807170842E-016
  -3.4220000000000000E-002     9.6734572731721936E-017
  -3.3799999999999997E-002     1.1954851654159684E-015
  -3.3380000000000000E-002     2.1298511141859329E-015
  -3.2960000000000003E-002     2.3369326245838122E-015
  -3.2539999999999999E-002     1.4064061857200924E-015
  -3.2120000000000003E-002    -6.4397673483598621E-016
  -3.1699999999999999E-002    -3.2081510676090956E-015
  -3.1280000000000002E-002    -5.1730127607392434E-015
  -3.0859999999999999E-002    -5.2903631437932705E-015
  -3.0440000000000002E-002    -2.7591729021334070E-015
  -3.0019999999999998E-002     2.1970870990869784E-015
  -2.9600000000000001E-002     8.0482564714932689E-015
  -2.9179999999999998E-002     1.2218290935238895E-014
  -2.8760000000000001E-002     1.1958513983441842E-014
  -2.8339999999999997E-002     5.6295745649425146E-015
  -2.7920000000000000E-002    -6.0794832875146165E-015
  -2.7499999999999997E-002    -1.9599823568121058E-014
  -2.7080000000000000E-002    -2.9096218552974742E-014
  -2.6659999999999996E-002    -2.8367637657150031E-014
  -2.6239999999999999E-002    -1.3605177911812142E-014
  -2.5820000000000003E-002     1.3954786627361897E-014
  -2.5399999999999999E-002     4.6710592002691005E-014
  -2.4980000000000002E-002     7.1740170408973968E-014
  -2.4559999999999998E-002     7.4536253139652175E-014
  -2.4140000000000002E-002     4.4704218747163509E-014
  -2.3719999999999998E-002    -1.8149771773806628E-014
  -2.3300000000000001E-002    -1.0070806833123698E-013
  -2.2879999999999998E-002    -1.7656177352912542E-013
  -2.2460000000000001E-002    -2.1218155089611589E-013
  -2.2039999999999997E-002    -1.7744527071735628E-013
  -2.1620000000000000E-002    -5.8000028690854871E-014
  -2.1199999999999997E-002     1.3458473885495196E-013
  -2.0780000000000000E-002     3.5900725228328181E-013
  -2.0359999999999996E-002     5.4950784266167156E-013
  -1.9939999999999999E-002     6.3036639196889870E-013
  -1.9519999999999996E-002     5.3672618333308443E-013
  -1.9099999999999999E-002     2.3641860926751733E-013
  -1.8680000000000002E-002    -2.5342604878354650E-013
  -1.8259999999999998E-002    -8.6011502163401703E-013
  -1.7840000000000002E-002    -1.4618553762066739E-012
  -1.7420000000000005E-002    -1.9058647752684238E-012
  -1.7000000000000001E-002    -2.0342142776511887E-012
  -1.6579999999999998E-002    -1.7123587124649618E-012
  -1.6159999999999994E-002    -8.5623619370629798E-013
  -1.5740000000000004E-002     5.4385646583113574E-013
  -1.5320000000000000E-002     2.4022287999058857E-012
  -1.4899999999999997E-002     4.5189349404498194E-012
  -1.4479999999999993E-002     6.5651617188192807E-012
  -1.4060000000000003E-002     8.0803783669877531E-012
  -1.3639999999999999E-002     8.4947534775451664E-012
  -1.3219999999999996E-002     7.1933772066693458E-012
  -1.2799999999999992E-002     3.6352158024304836E-012
  -1.2380000000000002E-002    -2.4729250651206609E-012
  -1.1959999999999998E-002    -1.0968045521813570E-011
  -1.1539999999999995E-002    -2.1033537514191205E-011
  -1.1120000000000005E-002    -3.1078809748918704E-011
  -1.0700000000000001E-002    -3.8769597381894405E-011
  -1.0279999999999997E-002    -4.1269158613574773E-011
  -9.8599999999999938E-003    -3.5713395187428613E-011
  -9.4400000000000039E-003    -1.9885573365659221E-011
  -9.0200000000000002E-003     7.0096337918836122E-012
  -8.5999999999999965E-003     4.3630990917346432E-011
  -8.1799999999999928E-003     8.6034465909173790E-011
  -7.7600000000000030E-003     1.2763732194295822E-010
  -7.3399999999999993E-003     1.5973944968502649E-010
  -6.9199999999999956E-003     1.7263348786790158E-010
  -6.4999999999999919E-003     1.5721690867132725E-010
  -6.0800000000000021E-003     1.0690050717169863E-010
  -5.6599999999999984E-003     1.9515481514349651E-011
  -5.2399999999999947E-003    -1.0112459341690172E-010
  -4.8200000000000048E-003    -2.4433923066931871E-010
  -4.4000000000000011E-003    -3.9263948409509195E-010
  -3.9799999999999974E-003    -5.2288500701949490E-010
  -3.5599999999999937E-003    -6.0855919253529030E-010
  -3.1400000000000039E-003    -6.2303752183610032E-010
  -2.7200000000000002E-003    -5.4358456100644962E-010
  -2.2999999999999965E-003    -3.5568674116661138E-010
  -1.8799999999999928E-003    -5.7216685851909186E-011
  -1.4600000000000030E-003     3.3816574627773261E-010
  -1.0399999999999993E-003     7.9902244256983418E-010
  -6.1999999999999555E-004     1.2761913033736658E-009
  -1.9999999999999185E-004     1.7054161271785790E-009
   2.1999999999999797E-004     2.0128484957070961E-009
   6.4000000000000168E-004     2.1233506090872829E-009
   1.0600000000000054E-003     1.9710357763980876E-009
   1.4799999999999952E-003     1.5109425396568550E-009
   1.8999999999999989E-003     7.3024607825488625E-010
   2.3200000000000026E-003    -3.4290924700982954E-010
   2.7400000000000063E-003    -1.6348894212836079E-009
   3.1599999999999961E-003    -3.0279329690810459E-009
   3.5799999999999998E-003    -4.3682201413018183E-009
   4.0000000000000036E-003    -5.4804299166280176E-009
   4.4200000000000073E-003    -6.1873868588565429E-009
   4.8399999999999971E-003    -6.3323573787779070E-009
   5.2600000000000008E-003    -5.8008523473276568E-009
   5.6800000000000045E-003    -4.5386463010827057E-009
   6.1000000000000082E-003    -2.5632143738306586E-009
   6.5199999999999980E-003     3.3148288066115522E-011
   6.9400000000000017E-003     3.0888439634111048E-009
   7.3600000000000054E-003     6.3859660583848511E-009
   7.7799999999999953E-003     9.6683929229348634E-009
   8.1999999999999990E-003     1.2661977681067368E-008
   8.6200000000000027E-003     1.5093869805289821E-008
   9.0400000000000064E-003     1.6708777295345290E-008
   9.4599999999999962E-003     1.7281211423354001E-008
   9.8799999999999999E-003     1.6624161594673475E-008
   1.0300000000000004E-002     1.4595780770632226E-008
   1.0720000000000007E-002     1.1106304926526144E-008
   1.1139999999999997E-002     6.1272976484878202E-009
   1.1560000000000001E-002    -2.9555857033000970E-010
   1.1980000000000005E-002    -8.0263202835381725E-009
   1.2400000000000008E-002    -1.6821044427083858E-008
   1.2819999999999998E-002    -2.6311638571565870E-008
   1.3240000000000002E-002    -3.5995384244809227E-008
   1.3660000000000005E-002    -4.5234355622797012E-008
   1.4079999999999995E-002    -5.3268355404456189E-008
   1.4499999999999999E-002    -5.9243739546635257E-008
   1.4920000000000003E-002    -6.2258884045688922E-008
   1.5340000000000006E-002    -6.1425150225746004E-008
   1.5759999999999996E-002    -5.5940670443610430E-008
   1.6180000000000000E-002    -4.5172689974236001E-008
   1.6600000000000004E-002    -2.8742954996741997E-008
   1.7020000000000007E-002    -6.6096940488179095E-009
   1.7439999999999997E-002     2.0861094634855979E-008
   1.7860000000000001E-002     5.2842799297622957E-008
   1.8280000000000005E-002     8.8021411544625588E-008
   1.8700000000000008E-002     1.2460179663872525E-007
   1.9119999999999998E-002     1.6035216220310750E-007
   1.9540000000000002E-002     1.9268946615574790E-007
   1.9960000000000006E-002     2.1880443515629287E-007
   2.0380000000000009E-002     2.3582053033427665E-007
   2.0799999999999999E-002     2.4097681961508222E-007
   2.1220000000000003E-002     2.3182175721865641E-007
   2.1640000000000006E-002     2.0640339322213354E-007
   2.2059999999999996E-002     1.6344248315097234E-007
   2.2480000000000000E-002     1.0247755709792100E-007
   2.2900000000000004E-002     2.3975075590556892E-008
   2.3320000000000007E-002    -7.0596330941205169E-008
   2.3739999999999997E-002    -1.7872408890993428E-007
   2.4160000000000001E-002    -2.9683598488852099E-007
   2.4580000000000005E-002    -4.2030360449739460E-007
   2.5000000000000008E-002    -5.4346206438140707E-007
   2.5419999999999998E-002    -6.5964774614326534E-007
   2.5840000000000002E-002    -7.6126090939669157E-007
   2.6260000000000006E-002    -8.3986577113073522E-007
   2.6680000000000009E-002    -8.8634124624216291E-007
   2.7099999999999999E-002    -8.9109359508226700E-007
   2.7520000000000003E-002    -8.4433599357391874E-007
   2.7940000000000006E-002    -7.3642984881854629E-007
   2.8359999999999996E-002    -5.5827157726175874E-007
   2.8780000000000000E-002    -3.0169726048925049E-007
   2.9200000000000004E-002     4.0130696389450495E-008
   2.9620000000000007E-002     4.7239704029632043E-007
   3.0039999999999997E-002     9.9840302063071618E-007
   3.0460000000000001E-002     1.6194598984604707E-006
   3.0880000000000005E-002     2.3349228181017666E-006
   3.1300000000000008E-002     3.1423631155331644E-006
   3.1719999999999998E-002     4.0378659194375184E-006
   3.2140000000000002E-002     5.0164346698265367E-006
   3.2560000000000006E-002     6.0724829418911148E-006
   3.2980000000000009E-002     7.2003967366516366E-006
   3.3399999999999999E-002     8.3951509869815303E-006
   3.3820000000000003E-002     9.6529626687548735E-006
   3.4240000000000007E-002     1.0971969956441987E-005
   3.4659999999999996E-002     1.2352964443619842E-005
   3.5080000000000000E-002     1.3800144235700813E-005
   3.5500000000000004E-002     1.5321889323575405E-005
   3.5920000000000007E-002     1.6931524686464192E-005
   3.6339999999999997E-002     1.8648018260129166E-005
   3.6760000000000001E-002     2.0496573266117073E-005
   3.7180000000000005E-002     2.2509076805179459E-005
   3.7600000000000008E-002     2.4724380613332141E-005
   3.8019999999999998E-002     2.7188362142591022E-005
   3.8440000000000002E-002     2.9953807432155993E-005
   3.8860000000000006E-002     3.3080109562984236E-005
   3.9280000000000009E-002     3.6632699710499452E-005
   3.9699999999999999E-002     4.0682365500545358E-005
   4.0120000000000003E-002     4.5304456824155603E-005
   4.0540000000000007E-002     5.0578115173698001E-005
   4.0960000000000010E-002     5.6585651278101044E-005
   4.1380000000000000E-002     6.3411980115127709E-005
   4.1800000000000004E-002     7.1144247284077569E-005
   4.2220000000000008E-002     7.9871703905652917E-005
   4.2639999999999997E-002     8.9685736782297613E-005
   4.3060000000000001E-002     1.0068005711167412E-004
   4.3480000000000005E-002     1.1295131204877303E-004
   4.3900000000000008E-002     1.2659998508533058E-004
   4.4319999999999998E-002     1.4173153214541706E-004
   4.4740000000000002E-002     1.5845778886721868E-004
   4.5159999999999992E-002     1.7689847320854764E-004
   4.5579999999999996E-002     1.9718282103306671E-004
   4.5999999999999999E-002     2.1945148168284328E-004
   4.6420000000000003E-002     2.4385861823758180E-004
   4.6840000000000007E-002     2.7057383240330403E-004
   4.7260000000000010E-002     2.9978413788631233E-004
   4.7680000000000014E-002     3.3169580391691184E-004
   4.8099999999999990E-002     3.6653559274920082E-004
   4.8519999999999994E-002     4.0455198201641031E-004
   4.8939999999999997E-002     4.4601608096368105E-004
   4.9360000000000001E-002     4.9122252539226781E-004
   4.9780000000000005E-002     5.4048994251803943E-004
   5.0200000000000009E-002     5.9416035758008202E-004
   5.0620000000000012E-002     6.5259752671943411E-004
   5.1040000000000016E-002     7.1618537929193113E-004
   5.1459999999999992E-002     7.8532623866957069E-004
   5.1879999999999996E-002     8.6043858885505135E-004
   5.2299999999999999E-002     9.4195489495154901E-004
   5.2720000000000003E-002     1.0303173815953348E-003
   5.3140000000000007E-002     1.1259751834838056E-003
   5.3560000000000010E-002     1.2293831244915875E-003
   5.3980000000000014E-002     1.3409976473467691E-003
   5.4400000000000018E-002     1.4612748501890756E-003
   5.4819999999999994E-002     1.5906699547786436E-003
   5.5239999999999997E-002     1.7296357695857085E-003
   5.5660000000000001E-002     1.8786225788804528E-003
   5.6080000000000005E-002     2.0380792698810480E-003
   5.6500000000000009E-002     2.2084519265858226E-003
   5.6920000000000012E-002     2.3901807017409332E-003
   5.7340000000000016E-002     2.5837008135274546E-003
   5.7759999999999992E-002     2.7894439087620664E-003
   5.8179999999999996E-002     3.0078349859486843E-003
   5.8599999999999999E-002     3.2392868926617215E-003
   5.9020000000000003E-002     3.4841999194028029E-003
   5.9440000000000007E-002     3.7429581491161285E-003
   5.9860000000000010E-002     4.0159287596020863E-003
   6.0280000000000014E-002     4.3034643791441032E-003
   6.0700000000000018E-002     4.6058937287800049E-003
   6.1119999999999994E-002     4.9235109453051682E-003
   6.1539999999999997E-002     5.2565722203765895E-003
   6.1960000000000001E-002     5.6052888591309026E-003
   6.2380000000000005E-002     5.9698243476588751E-003
   6.2800000000000009E-002     6.3502826445480855E-003
   6.3220000000000012E-002     6.7466914454459743E-003
   6.3640000000000016E-002     7.1589963122997615E-003
   6.4059999999999992E-002     7.5870445801227270E-003
   6.4479999999999996E-002     8.0305787061897976E-003
   6.4899999999999999E-002     8.4892326427109463E-003
   6.5320000000000003E-002     8.9625162789662479E-003
   6.5740000000000007E-002     9.4498020804465437E-003
   6.6160000000000010E-002     9.9503121530898613E-003
   6.6580000000000014E-002     1.0463115213613304E-002
   6.7000000000000018E-002     1.0987122103700134E-002
   6.7419999999999994E-002     1.1521086292404675E-002
   6.7839999999999998E-002     1.2063605116176065E-002
   6.8260000000000001E-002     1.2613098663139029E-002
   6.8680000000000005E-002     1.3167815554261240E-002
   6.9100000000000009E-002     1.3725842807642438E-002
   6.9520000000000012E-002     1.4285105809181360E-002
   6.9940000000000016E-002     1.4843360218833875E-002
   7.0359999999999992E-002     1.5398196065640310E-002
   7.0779999999999996E-002     1.5947049557656467E-002
   7.1199999999999999E-002     1.6487196472445526E-002
   7.1620000000000003E-002     1.7015787161083318E-002
   7.2040000000000007E-002     1.7529830100432769E-002
   7.2460000000000011E-002     1.8026195014853554E-002
   7.2880000000000014E-002     1.8501627490016184E-002
   7.3300000000000018E-002     1.8952750194618315E-002
   7.3719999999999994E-002     1.9376114868311471E-002
   7.4139999999999998E-002     1.9768204264683197E-002
   7.4560000000000001E-002     2.0125438905696253E-002
   7.4980000000000005E-002     2.0444163805298930E-002
   7.5400000000000009E-002     2.0720632913533217E-002
   7.5820000000000012E-002     2.0951092623667213E-002
   7.6240000000000016E-002     2.1131828361988830E-002
   7.6659999999999992E-002     2.1259174615539105E-002
   7.7079999999999996E-002     2.1329568804198656E-002
   7.7499999999999999E-002     2.1339603420720391E-002
   7.7920000000000003E-002     2.1285974500055066E-002
   7.8340000000000007E-002     2.1165493233919769E-002
   7.8760000000000011E-002     2.0975123244259444E-002
   7.9180000000000014E-002     2.0711972227586133E-002
   7.9600000000000018E-002     2.0373328506029131E-002
   8.0019999999999994E-002     1.9956864077054173E-002
   8.0439999999999998E-002     1.9460692673719335E-002
   8.0860000000000001E-002     1.8883316070573967E-002
   8.1280000000000005E-002     1.8223693352626913E-002
   8.1700000000000009E-002     1.7481258300336554E-002
   8.2120000000000012E-002     1.6655929380968212E-002
   8.2540000000000016E-002     1.5748113754471538E-002
   8.2959999999999992E-002     1.4758718870287608E-002
   8.3379999999999996E-002     1.3689134635084648E-002
   8.3799999999999999E-002     1.2541276230216584E-002
   8.4220000000000003E-002     1.1317739644789878E-002
   8.4640000000000007E-002     1.0021915395100731E-002
   8.5060000000000011E-002     8.6579120427847326E-003
   8.5480000000000014E-002     7.2305039852303618E-003
   8.5900000000000018E-002     5.7450837738157023E-003
   8.6319999999999994E-002     4.2076379900397969E-003
   8.6739999999999998E-002     2.6247917990192978E-003
   8.7160000000000001E-002     1.0038144623766353E-003
   8.7580000000000005E-002    -6.4738747289637324E-004
   8.8000000000000009E-002    -2.3204085575021125E-003
   8.8420000000000012E-002    -4.0065114139435296E-003
   8.8840000000000016E-002    -5.6965592773236219E-003
   8.9259999999999992E-002    -7.3808463009725263E-003
   8.9679999999999996E-002    -9.0490490123273180E-003
   9.0100000000000000E-002    -1.0690268072635284E-002
   9.0520000000000003E-002    -1.2293225014120276E-002
   9.0940000000000007E-002    -1.3846563591105615E-002
   9.1360000000000011E-002    -1.5339037912470410E-002
   9.1780000000000014E-002    -1.6759626591507266E-002
   9.2200000000000018E-002    -1.8097604794008675E-002
   9.2619999999999994E-002    -1.9342541301226212E-002
   9.3039999999999998E-002    -2.0484227369092056E-002
   9.3460000000000001E-002    -2.1512516129314114E-002
   9.3880000000000005E-002    -2.2417324253951550E-002
   9.4300000000000009E-002    -2.3188915538404343E-002
   9.4720000000000013E-002    -2.3818323345695561E-002
   9.5140000000000016E-002    -2.4297706404185646E-002
   9.5559999999999992E-002    -2.4620367320466591E-002
   9.5979999999999996E-002    -2.4780754086346453E-002
   9.6400000000000000E-002    -2.4774524578949478E-002
   9.6820000000000003E-002    -2.4598656279790763E-002
   9.7240000000000007E-002    -2.4251619285108959E-002
   9.7660000000000011E-002    -2.3733340219708240E-002
   9.8080000000000014E-002    -2.3044994421167843E-002
   9.8500000000000018E-002    -2.2189113476905439E-002
   9.8919999999999994E-002    -2.1169869626538062E-002
   9.9339999999999998E-002    -1.9993275902002325E-002
   9.9760000000000001E-002    -1.8667239793694761E-002
  0.10018000000000001         -1.7201378500213832E-002
  0.10060000000000001         -1.5606969200848387E-002
  0.10102000000000001         -1.3897083564744814E-002
  0.10144000000000002         -1.2086770923880169E-002
  0.10185999999999999         -1.0193117244873972E-002
  0.10228000000000000         -8.2349988829924347E-003
  0.10270000000000000         -6.2327042659744373E-003
  0.10312000000000000         -4.2077609365476490E-003
  0.10354000000000001         -2.1830182681011195E-003
  0.10396000000000001         -1.8261407623779198E-004
  0.10438000000000001          1.7682044972840126E-003
  0.10480000000000002          3.6433396173647607E-003
  0.10521999999999999          5.4161314627127356E-003
  0.10564000000000000          7.0592232427292428E-003
  0.10606000000000000          8.5444941091898773E-003
  0.10648000000000001          9.8434835953294404E-003
  0.10690000000000001          1.0927888572520748E-002
  0.10732000000000001          1.1769913808781717E-002
  0.10774000000000002          1.2342378372247794E-002
  0.10815999999999999          1.2618914295061593E-002
  0.10858000000000000          1.2574313547418165E-002
  0.10900000000000000          1.2184932042324650E-002
  0.10942000000000000          1.1428777310126523E-002
  0.10984000000000001          1.0285413146763010E-002
  0.11026000000000001          8.7363014462323602E-003
  0.11068000000000001          6.7653014274108329E-003
  0.11110000000000002          4.3593160824804454E-003
  0.11151999999999999          1.5086055347394570E-003
  0.11194000000000000         -1.7935545674123627E-003
  0.11236000000000000         -5.5512046504836718E-003
  0.11278000000000001         -9.7656591320936549E-003
  0.11320000000000001         -1.4434838640996600E-002
  0.11362000000000001         -1.9552358990914058E-002
  0.11404000000000002         -2.5107211385014656E-002
  0.11446000000000002         -3.1084252368098354E-002
  0.11488000000000000         -3.7464622835726449E-002
  0.11530000000000000         -4.4225952904856793E-002
  0.11572000000000000         -5.1342268991746300E-002
  0.11614000000000001         -5.8783613390561720E-002
  0.11656000000000001         -6.6515913681882588E-002
  0.11698000000000001         -7.4501130603082222E-002
  0.11740000000000002         -8.2697697939613943E-002
  0.11781999999999999         -9.1060861566190532E-002
  0.11824000000000000         -9.9542917970091224E-002
  0.11866000000000000        -0.10809338925127013
  0.11908000000000001        -0.11665932122838586
  0.11950000000000001        -0.12518544602358880
  0.11992000000000001        -0.13361424948359302
  0.12034000000000002        -0.14188642829042572
  0.12076000000000002        -0.14994151349179891
  0.12118000000000000        -0.15771870703013310
  0.12160000000000000        -0.16515721227837521
  0.12202000000000000        -0.17219603843590378
  0.12244000000000001        -0.17877404309395950
  0.12286000000000001        -0.18483054155760362
  0.12328000000000001        -0.19030676060373933
  0.12370000000000002        -0.19514679535803284
  0.12411999999999999        -0.19929763713970977
  0.12454000000000000        -0.20270886582005085
  0.12496000000000000        -0.20533269732015708
  0.12537999999999999        -0.20712459308667633
  0.12580000000000002        -0.20804428497011759
  0.12622000000000000        -0.20805635685721108
  0.12664000000000003        -0.20712997669458411
  0.12706000000000001        -0.20523882006467489
  0.12747999999999998        -0.20236164002450494
  0.12790000000000001        -0.19848309894168414
  0.12831999999999999        -0.19359440886093679
  0.12874000000000002        -0.18769357505528064
  0.12916000000000000        -0.18078492398752344
  0.12958000000000003        -0.17287872481420163
  0.13000000000000000        -0.16399109143687426
  0.13041999999999998        -0.15414396238542433
  0.13084000000000001        -0.14336486349320815
  0.13125999999999999        -0.13168709607690973
  0.13168000000000002        -0.11915033538879356
  0.13210000000000000        -0.10580072433004904
  0.13252000000000003         -9.1690692631400700E-002
  0.13294000000000000         -7.6877857585762197E-002
  0.13336000000000003         -6.1423709201863706E-002
  0.13378000000000001         -4.5393700431465865E-002
  0.13419999999999999         -2.8857794705084538E-002
  0.13462000000000002         -1.1890361396989431E-002
  0.13503999999999999          5.4302962449131889E-003
  0.13546000000000002          2.3023417468357912E-002
  0.13588000000000000          4.0806970826102434E-002
  0.13630000000000003          5.8697305651676093E-002
  0.13672000000000001          7.6609355818732294E-002
  0.13713999999999998          9.4457448594935364E-002
  0.13756000000000002         0.11215597839062921
  0.13797999999999999         0.12962005676506885
  0.13840000000000002         0.14676568038332685
  0.13882000000000000         0.16350939983459892
  0.13924000000000003         0.17976904252784545
  0.13966000000000001         0.19546548361413774
  0.14007999999999998         0.21052340295879224
  0.14050000000000001         0.22487147850509995
  0.14091999999999999         0.23844245515055698
  0.14134000000000002         0.25117348870597644
  0.14176000000000000         0.26300640828359634
  0.14218000000000003         0.27388812427714104
  0.14260000000000000         0.28377096533005769
  0.14301999999999998         0.29261254405450909
  0.14344000000000001         0.30037577962843676
  0.14385999999999999         0.30702959222973342
  0.14428000000000002         0.31254981349357880
  0.14470000000000000         0.31691916569494166
  0.14512000000000003         0.32012658729787791
  0.14554000000000000         0.32216679536859272
  0.14596000000000003         0.32304019866778133
  0.14638000000000001         0.32275335285152262
  0.14679999999999999         0.32131972110162393
  0.14722000000000002         0.31875968144188860
  0.14763999999999999         0.31509954014396141
  0.14806000000000002         0.31037044502691963
  0.14848000000000000         0.30460767601990307
  0.14890000000000003         0.29785051927573997
  0.14932000000000001         0.29014268119402048
  0.14973999999999998         0.28153242112688476
  0.15016000000000002         0.27207239809006561
  0.15057999999999999         0.26181943569070038
  0.15100000000000002         0.25083373034727630
  0.15142000000000000         0.23917766493646203