  -4.0000000000000001E-002     0.0000000000000000
  -3.9899999999999998E-002     0.0000000000000000
  -3.9800000000000002E-002     0.0000000000000000
  -3.9699999999999999E-002     0.0000000000000000
  -3.9600000000000003E-002     0.0000000000000000
  -3.9500000000000000E-002    -2.9667185100712354E-024
  -3.9399999999999998E-002     1.1623315129064127E-022
  -3.9300000000000002E-002     1.3578330808900359E-022
  -3.9199999999999999E-002    -2.4099109450585102E-021
  -3.9100000000000003E-002     2.3622105329819385E-021
  -3.9000000000000000E-002    -2.6482688142896688E-020
  -3.8900000000000004E-002    -1.0693967058083136E-020
  -3.8800000000000001E-002    -7.3908600656310094E-020
  -3.8699999999999998E-002    -2.3176615901819015E-019
  -3.8600000000000002E-002    -1.3210741296840723E-019
  -3.8500000000000000E-002     2.4349972570077765E-020
  -3.8400000000000004E-002    -6.2049547443624031E-019
  -3.8300000000000001E-002     2.7364604976792968E-018
  -3.8199999999999998E-002    -1.6348557892741721E-018
  -3.8100000000000002E-002     5.4999520170059078E-018
  -3.7999999999999999E-002     7.4564244172347055E-018
  -3.7900000000000003E-002     1.4054663838196671E-017
  -3.7800000000000000E-002     1.4447760951592336E-018
  -3.7699999999999997E-002     2.1634230633222145E-017
  -3.7600000000000001E-002     2.6769955174186254E-018
  -3.7499999999999999E-002     2.1705133246607741E-017
  -3.7400000000000003E-002     3.9202623710284844E-017
  -3.7300000000000000E-002     3.1045339086201309E-017
  -3.7200000000000004E-002     2.9952137188651227E-017
  -3.7100000000000001E-002    -3.5917072243391569E-017
  -3.6999999999999998E-002     4.7236089322836542E-017
  -3.6900000000000002E-002     6.4242472730673562E-017
  -3.6799999999999999E-002    -9.6634567733229606E-017
  -3.6700000000000003E-002     3.3505341140709511E-017
  -3.6600000000000001E-002    -1.6823191357169596E-016
  -3.6499999999999998E-002    -9.5201135200080134E-016
  -3.6400000000000002E-002     5.8529749015167579E-016
  -3.6299999999999999E-002    -3.8772615523210378E-016
  -3.6200000000000003E-002    -5.9572224227088968E-016
  -3.6100000000000000E-002     1.6182200497823885E-016
  -3.6000000000000004E-002    -6.6241401664766746E-016
  -3.5900000000000001E-002     1.1692323160494562E-015
  -3.5799999999999998E-002     1.6944109280857088E-016
  -3.5700000000000003E-002    -2.4626015456837664E-015
  -3.5600000000000000E-002    -1.6686147779050955E-015
  -3.5500000000000004E-002    -1.1706035565119425E-015
  -3.5400000000000001E-002    -1.6007290047100444E-015
  -3.5299999999999998E-002    -1.0296177600018375E-014
  -3.5200000000000002E-002     2.3033654925888256E-015
  -3.5099999999999999E-002     1.8953291813474582E-015
  -3.5000000000000003E-002     2.1955275310821736E-016
  -3.4900000000000000E-002     1.0543213065019198E-014
  -3.4799999999999998E-002    -8.1286262172252516E-015
  -3.4700000000000002E-002     1.4224242917966305E-014
  -3.4599999999999999E-002     1.2392622260955395E-014
  -3.4500000000000003E-002     2.2416916684465243E-014
  -3.4400000000000000E-002     2.7625962634040060E-014
  -3.4299999999999997E-002     1.6216664309683972E-014
  -3.4200000000000001E-002     2.7279302541914976E-014
  -3.4099999999999998E-002     2.9172170457275950E-014
  -3.4000000000000002E-002     2.3957974547381827E-014
  -3.3900000000000000E-002     2.1200804377037932E-014
  -3.3799999999999997E-002     5.4222546456072704E-014
  -3.3700000000000001E-002     5.2464753190744479E-014
  -3.3599999999999998E-002     8.7969006536646466E-014
  -3.3500000000000002E-002    -9.9515376814724929E-015
  -3.3399999999999999E-002     8.3056086693563541E-014
  -3.3300000000000003E-002    -3.7136872082284972E-014
  -3.3200000000000000E-002    -3.0488842516201292E-014
  -3.3099999999999997E-002    -2.0976520217000361E-014
  -3.3000000000000002E-002    -3.0206997385200107E-014
  -3.2899999999999999E-002    -2.1156344634076091E-013
  -3.2800000000000003E-002     5.5888233358716496E-014
  -3.2700000000000000E-002    -1.6102933873482494E-013
  -3.2600000000000004E-002    -2.7725722108809525E-013
  -3.2500000000000001E-002    -3.1315908525196556E-013
  -3.2399999999999998E-002    -3.7987397515787391E-013
  -3.2300000000000002E-002    -1.0759812095126331E-013
  -3.2199999999999999E-002    -2.6702414151341669E-013
  -3.2100000000000004E-002    -5.7508126949726290E-013
  -3.2000000000000001E-002     6.6577894185151226E-014
  -3.1899999999999998E-002     8.8654669543053455E-014
  -3.1800000000000002E-002     5.6961427491019484E-014
  -3.1699999999999999E-002    -4.5758061510865755E-014
  -3.1600000000000003E-002    -9.4093840791870109E-014
  -3.1500000000000000E-002    -1.3726694748309592E-013
  -3.1399999999999997E-002    -4.2457584756988576E-013
  -3.1300000000000001E-002    -1.7341064565204456E-012
  -3.1199999999999999E-002    -7.9169601375963378E-014
  -3.1100000000000003E-002     4.4183431327678158E-013
  -3.1000000000000000E-002    -6.6414430378858302E-013
  -3.0900000000000000E-002    -1.5739314148874306E-013
  -3.0800000000000001E-002    -2.1305235069104915E-014
  -3.0699999999999998E-002    -1.7807899252431092E-012
  -3.0600000000000002E-002    -1.2424772582314558E-013
  -3.0499999999999999E-002    -1.9419078704004805E-013
  -3.0400000000000000E-002    -5.7974539882307830E-013
  -3.0300000000000001E-002     4.8472819725101091E-013
  -3.0200000000000001E-002     2.0225910789956059E-012
  -3.0100000000000002E-002     4.3597778517793020E-014
  -2.9999999999999999E-002     7.6442075325894310E-013
  -2.9899999999999999E-002     1.8431816403013945E-012
  -2.9800000000000000E-002    -4.1750150970958078E-013
  -2.9700000000000001E-002     2.4408400647879525E-012
  -2.9600000000000001E-002     2.2384346980153236E-012
  -2.9499999999999998E-002     1.4876992866785788E-012
  -2.9400000000000003E-002     2.6921399137735946E-012
  -2.9300000000000000E-002     4.5959230345060664E-012
  -2.9200000000000000E-002     6.6520232247860300E-013
  -2.9100000000000001E-002     1.1338215522710415E-012
  -2.8999999999999998E-002     2.4343101319435068E-012
  -2.8900000000000002E-002     1.5096836541300673E-012
  -2.8799999999999999E-002     1.9303536633735741E-012
  -2.8700000000000000E-002     4.7399471500564339E-012
  -2.8600000000000000E-002     4.1844175693861452E-012
  -2.8500000000000001E-002     4.0963703783203353E-012
  -2.8400000000000002E-002     1.6615123990190717E-012
  -2.8299999999999999E-002     2.0365729502119789E-012
  -2.8200000000000003E-002     7.8120175259210889E-012
  -2.8100000000000000E-002     1.0187131086608625E-012
  -2.8000000000000001E-002     3.1853421809946436E-012
  -2.7900000000000001E-002    -6.5772556671894744E-012
  -2.7799999999999998E-002     5.0991910346964708E-012
  -2.7700000000000002E-002     1.4778728588127343E-011
  -2.7600000000000000E-002     1.9150579559645831E-012
  -2.7500000000000000E-002    -4.7902857895631978E-012
  -2.7400000000000001E-002     3.4562704261109634E-012
  -2.7299999999999998E-002     3.7060320090542831E-012
  -2.7200000000000002E-002    -1.8745666477415490E-011
  -2.7099999999999999E-002    -2.6920074242681169E-012
  -2.7000000000000000E-002    -5.0116920162490697E-012
  -2.6900000000000000E-002    -1.4129193474932134E-011
  -2.6800000000000001E-002    -2.2986840295807776E-012
  -2.6700000000000002E-002    -6.9642672705094721E-012
  -2.6599999999999999E-002    -1.8536627094389857E-011
  -2.6500000000000003E-002    -2.9334808887560015E-011
  -2.6400000000000000E-002    -3.8069586545674827E-012
  -2.6300000000000000E-002    -3.4116032915365579E-011
  -2.6200000000000001E-002    -3.1556250668085539E-011
  -2.6099999999999998E-002    -1.5232193978365061E-011
  -2.6000000000000002E-002    -2.5020945385034743E-011
  -2.5899999999999999E-002    -2.8485743278072739E-011
  -2.5800000000000000E-002    -2.3329027511870271E-012
  -2.5700000000000001E-002    -1.9751106999921220E-011
  -2.5599999999999998E-002    -2.4085473199209062E-011
  -2.5500000000000002E-002    -2.5899104041937626E-011
  -2.5399999999999999E-002    -1.5559529359387980E-011
  -2.5300000000000000E-002    -7.9409291642296154E-012
  -2.5200000000000000E-002    -6.1576017722220211E-012
  -2.5100000000000001E-002    -1.2025573245533216E-011
  -2.5000000000000001E-002     1.5231826216988154E-012
  -2.4899999999999999E-002     2.5725406180288068E-011
  -2.4800000000000003E-002     2.8690744224846298E-011
  -2.4700000000000000E-002     4.9979183985859876E-011
  -2.4600000000000000E-002     7.7949036114688397E-011
  -2.4500000000000001E-002     9.0605301039659025E-011
  -2.4399999999999998E-002     5.9818282271972834E-011
  -2.4299999999999999E-002     5.8987342788086039E-011
  -2.4199999999999999E-002     5.8338792130463446E-011
  -2.4100000000000000E-002     1.0286978907592115E-010
  -2.4000000000000000E-002     5.9247273753726404E-011
  -2.3900000000000001E-002     4.6657372410052744E-011
  -2.3800000000000002E-002     8.2357849706671260E-011
  -2.3699999999999999E-002     4.1894685637311468E-011
  -2.3599999999999999E-002     4.6186589275354351E-011
  -2.3500000000000000E-002     5.9390874163067764E-011
  -2.3400000000000001E-002     3.0251020438631926E-011
  -2.3300000000000001E-002     8.7473101678670062E-012
  -2.3199999999999998E-002     2.1115038537078412E-011
  -2.3099999999999999E-002    -9.2719009553432485E-012
  -2.3000000000000000E-002     3.6946188296249627E-012
  -2.2900000000000000E-002    -1.4716131091496720E-010
  -2.2800000000000001E-002    -4.5320820013516894E-011
  -2.2700000000000001E-002    -6.5030154872136592E-011
  -2.2599999999999999E-002    -4.5655770830599351E-011
  -2.2499999999999999E-002    -3.1704135844412562E-011
  -2.2400000000000000E-002    -9.4250805077189526E-012
  -2.2300000000000000E-002     2.5790973523509564E-011
  -2.2200000000000001E-002    -5.9683855080372439E-011
  -2.2100000000000002E-002    -5.0704974940973813E-011
  -2.1999999999999999E-002    -3.8524801404538067E-011
  -2.1899999999999999E-002    -1.1470978680816479E-011
  -2.1800000000000000E-002    -7.1278573321453820E-011
  -2.1700000000000001E-002    -6.1055709099644417E-011
  -2.1600000000000001E-002    -1.8354330555414577E-010
  -2.1499999999999998E-002    -1.3576308133256276E-010
  -2.1399999999999999E-002    -2.5568538952747133E-010
  -2.1299999999999999E-002    -2.2681392874979167E-010
  -2.1200000000000000E-002    -3.0443625398390850E-010
  -2.1100000000000001E-002    -2.6751370563182775E-010
  -2.1000000000000001E-002    -3.4007763272114744E-010
  -2.0899999999999998E-002    -4.1028550001875885E-010
  -2.0799999999999999E-002    -4.4751821692834426E-010
  -2.0700000000000000E-002    -3.3087363404682435E-010
  -2.0600000000000000E-002    -2.5722329821675771E-010
  -2.0500000000000001E-002    -3.3466834858941752E-010
  -2.0400000000000001E-002    -3.2816899198095939E-010
  -2.0299999999999999E-002    -2.6772156713761319E-010
  -2.0199999999999999E-002    -1.8298186577059283E-010
  -2.0100000000000000E-002    -4.1767880820664516E-010
  -2.0000000000000000E-002    -1.7271012398012431E-010
  -1.9900000000000001E-002    -2.3520491110318176E-010
  -1.9799999999999998E-002    -1.9084395175283930E-010
  -1.9699999999999999E-002    -5.0211834690117030E-011
  -1.9599999999999999E-002     5.6853454236116541E-012
  -1.9500000000000000E-002     1.0815875278735732E-010
  -1.9400000000000001E-002     3.8664879631333804E-010
  -1.9300000000000001E-002     5.5273180477044548E-010
  -1.9199999999999998E-002     4.2656847498712125E-010
  -1.9099999999999999E-002     8.6750573391469743E-010
  -1.9000000000000000E-002     9.3123103672709817E-010
  -1.8900000000000000E-002     1.0926309856884586E-009
  -1.8800000000000001E-002     1.2107009839112948E-009
  -1.8700000000000001E-002     1.3362990713972067E-009
  -1.8599999999999998E-002     1.5347461079784352E-009
  -1.8499999999999999E-002     1.4635200829005157E-009
  -1.8400000000000000E-002     1.7242123284688660E-009
  -1.8300000000000000E-002     1.6174223071985239E-009
  -1.8200000000000001E-002     1.4866904374244427E-009
  -1.8100000000000002E-002     1.5999217506390551E-009
  -1.7999999999999999E-002     1.1669083477272579E-009
  -1.7899999999999999E-002     1.0599913169428987E-009
  -1.7800000000000000E-002     9.7584473834899654E-010
  -1.7700000000000000E-002     6.2285965274355704E-010
  -1.7600000000000001E-002     4.8187637213814583E-010
  -1.7499999999999998E-002     3.0777111414970193E-010
  -1.7399999999999999E-002     4.4935624665676244E-011
  -1.7299999999999999E-002     1.7226900461686512E-010
  -1.7200000000000000E-002    -1.0680479417546351E-010
  -1.7100000000000001E-002    -6.4168942381925831E-010
  -1.7000000000000001E-002    -6.0713406524470770E-010
  -1.6899999999999998E-002    -4.1228800928827525E-010
  -1.6799999999999999E-002    -8.5948437256178067E-010
  -1.6700000000000000E-002    -1.1714743619606338E-009
  -1.6600000000000000E-002    -1.1949533584854066E-009
  -1.6500000000000001E-002    -1.6218243414911626E-009
  -1.6400000000000001E-002    -1.1877299144202880E-009
  -1.6299999999999999E-002    -1.1485662421151233E-009
  -1.6199999999999999E-002    -1.1195074867131893E-009
  -1.6100000000000000E-002    -1.5311810708240614E-009
  -1.6000000000000000E-002    -1.9654653460321470E-009
  -1.5900000000000001E-002    -2.0892616525713947E-009
  -1.5799999999999998E-002    -2.9889619668210798E-009
  -1.5699999999999999E-002    -3.1797640076547395E-009
  -1.5599999999999999E-002    -3.2569544838878528E-009
  -1.5500000000000000E-002    -5.1723190175323452E-009
  -1.5400000000000000E-002    -5.4408970662223055E-009
  -1.5300000000000001E-002    -6.1783005378401867E-009
  -1.5199999999999998E-002    -7.8204021036754057E-009
  -1.5099999999999999E-002    -8.5408471406367426E-009
  -1.4999999999999999E-002    -8.9878895437323081E-009
  -1.4900000000000000E-002    -9.6772740931783119E-009
  -1.4800000000000001E-002    -9.9717336610183338E-009
  -1.4700000000000001E-002    -9.8232950662691110E-009
  -1.4599999999999998E-002    -9.7743901861235827E-009
  -1.4499999999999999E-002    -9.0348724057776053E-009
  -1.4400000000000000E-002    -6.9977774685980876E-009
  -1.4300000000000000E-002    -5.5157820533224822E-009
  -1.4200000000000001E-002    -3.0045430587932742E-009
  -1.4099999999999998E-002     3.1165423020063088E-010
  -1.3999999999999999E-002     3.1693085933426346E-009
  -1.3899999999999999E-002     6.8267671515798156E-009
  -1.3800000000000000E-002     1.2275456207078150E-008
  -1.3700000000000000E-002     1.7521601947123600E-008
  -1.3600000000000001E-002     2.1036870023749543E-008
  -1.3499999999999998E-002     2.7469209129549199E-008
  -1.3399999999999999E-002     3.0979823151255914E-008
  -1.3299999999999999E-002     3.5039548151871713E-008
  -1.3200000000000000E-002     4.0588769678606695E-008
  -1.3100000000000001E-002     4.4754091987897482E-008
  -1.3000000000000001E-002     4.7461984564733939E-008
  -1.2899999999999998E-002     4.8957026876905729E-008
  -1.2799999999999999E-002     4.9140215452325720E-008
  -1.2699999999999999E-002     4.7558330606989330E-008
  -1.2600000000000000E-002     4.4311860847301432E-008
  -1.2500000000000001E-002     3.8879118591239603E-008
  -1.2399999999999998E-002     3.2100814451041515E-008
  -1.2299999999999998E-002     2.3223002187933162E-008
  -1.2199999999999999E-002     1.2214525391129882E-008
  -1.2100000000000000E-002    -8.1049927880272321E-010
  -1.2000000000000000E-002    -1.4624635724658219E-008
  -1.1900000000000001E-002    -3.0357146130199908E-008
  -1.1799999999999998E-002    -4.4935287490943665E-008
  -1.1699999999999999E-002    -6.1026398157082440E-008
  -1.1599999999999999E-002    -7.5537876398357184E-008
  -1.1500000000000000E-002    -9.0467153768258868E-008
  -1.1400000000000000E-002    -1.0189416599359902E-007
  -1.1300000000000001E-002    -1.1347063377797895E-007
  -1.1199999999999998E-002    -1.2038060503982706E-007
  -1.1099999999999999E-002    -1.2432080609414697E-007
  -1.0999999999999999E-002    -1.2364166934730747E-007
  -1.0900000000000000E-002    -1.2168501939413545E-007
  -1.0800000000000001E-002    -1.1209102979137242E-007
  -1.0699999999999998E-002    -1.0002020189858740E-007
  -1.0599999999999998E-002    -8.5502740887477557E-008
  -1.0499999999999999E-002    -6.4632978080680914E-008
  -1.0400000000000000E-002    -4.1197289135652682E-008
  -1.0300000000000000E-002    -1.4348740862146769E-008
  -1.0200000000000001E-002     1.3715204083553090E-008
  -1.0099999999999998E-002     4.4268826826510121E-008
  -9.9999999999999985E-003     7.5193433701770118E-008
  -9.8999999999999991E-003     1.0599356414786598E-007
  -9.7999999999999997E-003     1.3329783143944951E-007
  -9.7000000000000003E-003     1.5884576498592651E-007
  -9.6000000000000009E-003     1.7888415015931969E-007
  -9.4999999999999980E-003     1.9081774382812000E-007
  -9.3999999999999986E-003     2.0073264295206172E-007
  -9.2999999999999992E-003     1.9997796130155621E-007
  -9.1999999999999998E-003     1.9435316289673210E-007
  -9.1000000000000004E-003     1.7776477534425794E-007
  -9.0000000000000011E-003     1.5266226682797424E-007
  -8.8999999999999982E-003     1.2098591639642109E-007
  -8.7999999999999988E-003     8.2528622158406506E-008
  -8.6999999999999994E-003     3.0888347879454159E-008
  -8.5999999999999965E-003    -2.4179755087061494E-008
  -8.5000000000000006E-003    -7.9902726213276765E-008
  -8.3999999999999977E-003    -1.3860299930001929E-007
  -8.3000000000000018E-003    -1.9488493308017496E-007
  -8.1999999999999990E-003    -2.4531556164220092E-007
  -8.0999999999999961E-003    -2.8525488460218185E-007
  -8.0000000000000002E-003    -3.0763808922529279E-007
  -7.8999999999999973E-003    -3.1254509735845204E-007
  -7.8000000000000014E-003    -3.0937610517867142E-007
  -7.6999999999999985E-003    -2.8805334295611829E-007
  -7.6000000000000026E-003    -2.4620487693027826E-007
  -7.4999999999999997E-003    -1.7241519856270315E-007
  -7.3999999999999969E-003    -9.4900954650256608E-008
  -7.3000000000000009E-003     1.6986395623419526E-009
  -7.1999999999999981E-003     1.0251017812379359E-007
  -7.1000000000000021E-003     2.2393290066702320E-007
  -6.9999999999999993E-003     3.4013982030955958E-007
  -6.8999999999999964E-003     4.6882732362973911E-007
  -6.8000000000000005E-003     5.9476752767295693E-007
  -6.6999999999999976E-003     7.0551845965383109E-007
  -6.6000000000000017E-003     7.7818447152822046E-007
  -6.4999999999999988E-003     8.5189338960844907E-007
  -6.3999999999999960E-003     8.6871932580834255E-007
  -6.3000000000000000E-003     8.3487896063161315E-007
  -6.1999999999999972E-003     7.9875002256812877E-007
  -6.1000000000000013E-003     6.8856672896799864E-007
  -5.9999999999999984E-003     5.3356404805526836E-007
  -5.9000000000000025E-003     3.4747853305816534E-007
  -5.7999999999999996E-003     1.4486610666608613E-007
  -5.6999999999999967E-003    -1.1764274887582360E-007
  -5.6000000000000008E-003    -4.3152951434421993E-007
  -5.4999999999999979E-003    -7.3467515449010534E-007
  -5.4000000000000020E-003    -1.0221723414360895E-006
  -5.2999999999999992E-003    -1.3701143188882270E-006
  -5.1999999999999963E-003    -1.7033535186783411E-006
  -5.1000000000000004E-003    -1.9230531052016886E-006
  -4.9999999999999975E-003    -2.1483258478838252E-006
  -4.9000000000000016E-003    -2.3546385818917770E-006
  -4.7999999999999987E-003    -2.4408352601312799E-006
  -4.6999999999999958E-003    -2.4122223294398282E-006
  -4.5999999999999999E-003    -2.3085815428203205E-006
  -4.4999999999999971E-003    -2.1160924461582908E-006
  -4.4000000000000011E-003    -1.8019775325228693E-006
  -4.2999999999999983E-003    -1.3207487654653960E-006
  -4.2000000000000023E-003    -8.4237052533353562E-007
  -4.0999999999999995E-003    -2.4302914880536264E-007
  -3.9999999999999966E-003     4.8375665073763230E-007
  -3.9000000000000007E-003     1.2258888091309927E-006
  -3.7999999999999978E-003     1.9071717360930052E-006
  -3.7000000000000019E-003     2.5990914309659274E-006
  -3.5999999999999990E-003     3.1858153306529857E-006
  -3.4999999999999962E-003     3.8821640373498667E-006
  -3.4000000000000002E-003     4.3877912503376137E-006
  -3.2999999999999974E-003     4.7905937208270188E-006
  -3.2000000000000015E-003     5.0882558753073681E-006
  -3.0999999999999986E-003     5.0872672545665409E-006
  -2.9999999999999957E-003     5.0412659220455680E-006
  -2.8999999999999998E-003     4.8237538976536598E-006
  -2.7999999999999969E-003     4.3020809243898839E-006
  -2.7000000000000010E-003     3.7014547160652000E-006
  -2.5999999999999981E-003     2.5925648969860049E-006
  -2.5000000000000022E-003     1.5318511259465595E-006
  -2.3999999999999994E-003     1.5657781204936327E-007
  -2.2999999999999965E-003    -1.1129119457109482E-006
  -2.2000000000000006E-003    -2.4903145003918326E-006
  -2.0999999999999977E-003    -3.8638268051727209E-006
  -2.0000000000000018E-003    -5.2479103942459915E-006
  -1.8999999999999989E-003    -6.2836575125402305E-006
  -1.7999999999999960E-003    -7.1098920670920052E-006
  -1.7000000000000001E-003    -7.6918859122088179E-006
  -1.5999999999999973E-003    -8.3897766671725549E-006
  -1.5000000000000013E-003    -8.4509101725416258E-006
  -1.3999999999999985E-003    -8.1801217675092630E-006
  -1.2999999999999956E-003    -7.7423383118002675E-006
  -1.1999999999999997E-003    -7.1980325628828723E-006
  -1.0999999999999968E-003    -5.7417000789428130E-006
  -1.0000000000000009E-003    -5.1121801334375050E-006
  -8.9999999999999802E-004    -4.0765994526736904E-006
  -8.0000000000000210E-004    -3.1744320949655958E-006
  -6.9999999999999923E-004    -1.6216774838540005E-006
  -5.9999999999999637E-004     1.0560751206867280E-007
  -5.0000000000000044E-004     2.0283521280362038E-006
  -3.9999999999999758E-004     4.1136236177408136E-006
  -3.0000000000000165E-004     6.2085296121949796E-006
  -1.9999999999999879E-004     8.4912053353036754E-006
  -9.9999999999995925E-005     1.0726891559897922E-005
   0.0000000000000000          1.2686593436228577E-005
   1.0000000000000286E-004     1.5196059393929318E-005
   1.9999999999999879E-004     1.5787334632477723E-005
   3.0000000000000165E-004     1.6223950296989642E-005
   4.0000000000000452E-004     1.6055531887104735E-005
   5.0000000000000044E-004     1.5651954527129419E-005
   6.0000000000000331E-004     1.4346707757795230E-005
   6.9999999999999923E-004     1.2219554264447652E-005
   8.0000000000000210E-004     8.6562004071311094E-006
   8.9999999999999802E-004     5.6195253819169011E-006
   1.0000000000000009E-003     1.5703963072155602E-006
   1.1000000000000038E-003    -1.9925273591070436E-006
   1.1999999999999997E-003    -6.7015903368883301E-006
   1.3000000000000025E-003    -1.0990754162776284E-005
   1.3999999999999985E-003    -1.4976361853769049E-005
   1.5000000000000013E-003    -1.8239205019199289E-005
   1.6000000000000042E-003    -2.4011309506022371E-005
   1.7000000000000001E-003    -2.7436884920462035E-005
   1.8000000000000030E-003    -2.6518886443227530E-005
   1.8999999999999989E-003    -2.7235329980612732E-005
   2.0000000000000018E-003    -2.6745612558443099E-005
   2.1000000000000046E-003    -2.5281047783209942E-005
   2.2000000000000006E-003    -2.3931630494189449E-005
   2.3000000000000034E-003    -2.1311301679816097E-005
   2.3999999999999994E-003    -1.5118313967832364E-005
   2.5000000000000022E-003    -7.9550527516403235E-006
   2.5999999999999981E-003    -4.8614433580951300E-006
   2.7000000000000010E-003     4.7501971494057216E-006
   2.8000000000000039E-003     1.1962563803535886E-005
   2.8999999999999998E-003     1.7009595467243344E-005
   3.0000000000000027E-003     2.2573844034923241E-005
   3.0999999999999986E-003     2.8831604140577838E-005
   3.2000000000000015E-003     3.2862397347344086E-005
   3.3000000000000043E-003     3.4689172025537118E-005
   3.4000000000000002E-003     3.2868771086214110E-005
   3.5000000000000031E-003     3.1660703825764358E-005
   3.5999999999999990E-003     2.8998430934734643E-005
   3.7000000000000019E-003     3.0129087463137694E-005
   3.7999999999999978E-003     2.4599117750767618E-005
   3.9000000000000007E-003     1.9753115338971838E-005
   4.0000000000000036E-003     1.2290358426980674E-005
   4.0999999999999995E-003     9.6727890195325017E-006
   4.2000000000000023E-003     2.3169282030721661E-006
   4.2999999999999983E-003    -1.6884540343653498E-007
   4.4000000000000011E-003    -3.2876284876692807E-006
   4.5000000000000040E-003    -6.0688571466016583E-006
   4.5999999999999999E-003    -1.4876156456011813E-005
   4.7000000000000028E-003    -1.8304124751011841E-005
   4.7999999999999987E-003    -3.0579023587051779E-005
   4.9000000000000016E-003    -2.8314716473687440E-005
   5.0000000000000044E-003    -3.4938377211801708E-005
   5.1000000000000004E-003    -3.4983724617632106E-005
   5.2000000000000032E-003    -3.3999138395301998E-005
   5.2999999999999992E-003    -2.8143165764049627E-005
   5.4000000000000020E-003    -2.1984926206641831E-005
   5.4999999999999979E-003    -1.7905853383126669E-005
   5.6000000000000008E-003    -1.6917116226977669E-005
   5.7000000000000037E-003    -2.2205234927241690E-005
   5.7999999999999996E-003    -2.8938215109519660E-005
   5.9000000000000025E-003    -2.6253239411744289E-005
   5.9999999999999984E-003    -4.4112343857705127E-006
   6.1000000000000013E-003    -3.3831759083113866E-006
   6.2000000000000041E-003     8.6193913375609554E-006
   6.3000000000000000E-003     2.0267665604478680E-005
   6.4000000000000029E-003     4.0600156353320926E-005
   6.4999999999999988E-003     3.3322394301649183E-005
   6.6000000000000017E-003     4.4556098146131262E-005
   6.7000000000000046E-003     5.2470204536803067E-005
   6.8000000000000005E-003     7.1319838752970099E-005
   6.9000000000000034E-003     7.8283599577844143E-005
   6.9999999999999993E-003     7.6699754572473466E-005
   7.1000000000000021E-003     7.7344913734123111E-005
   7.1999999999999981E-003     7.6904580055270344E-005
   7.3000000000000009E-003     6.5839019953273237E-005
   7.4000000000000038E-003     3.8028669223422185E-005
   7.4999999999999997E-003     9.0239263954572380E-006
   7.6000000000000026E-003    -1.2037684427923523E-005
   7.6999999999999985E-003    -2.8660220777965151E-005
   7.8000000000000014E-003    -5.9133180911885574E-005
   7.9000000000000042E-003    -9.4189614173956215E-005
   8.0000000000000002E-003    -1.1680991883622482E-004
   8.1000000000000030E-003    -1.4705357898492366E-004
   8.1999999999999990E-003    -1.6475765733048320E-004
   8.3000000000000018E-003    -1.6677009989507496E-004
   8.4000000000000047E-003    -1.9663202692754567E-004
   8.5000000000000006E-003    -2.1831650519743562E-004
   8.6000000000000035E-003    -2.0824067178182304E-004
   8.6999999999999994E-003    -2.2162401000969112E-004
   8.8000000000000023E-003    -2.2001424804329872E-004
   8.8999999999999982E-003    -1.8722632376011461E-004
   9.0000000000000011E-003    -1.2105037603760138E-004
   9.1000000000000039E-003    -5.0102004024665803E-005
   9.1999999999999998E-003     1.3801538443658501E-005
   9.3000000000000027E-003     5.6734621466603130E-005
   9.3999999999999986E-003     1.2335875362623483E-004
   9.5000000000000015E-003     1.6515098104719073E-004
   9.6000000000000044E-003     2.4033224326558411E-004
   9.7000000000000003E-003     3.1700247200205922E-004
   9.8000000000000032E-003     3.7821600562892854E-004
   9.8999999999999991E-003     4.0478270966559649E-004
   1.0000000000000002E-002     4.9044005572795868E-004
   1.0100000000000005E-002     4.9026164924725890E-004
   1.0200000000000001E-002     4.6961702173575759E-004
   1.0300000000000004E-002     4.2463678983040154E-004
   1.0400000000000000E-002     4.2269265395589173E-004
   1.0500000000000002E-002     3.3551332307979465E-004
   1.0599999999999998E-002     2.2124446695670485E-004
   1.0700000000000001E-002     1.8319621449336410E-004
   1.0800000000000004E-002    -9.5399975919008284E-008
   1.0900000000000000E-002    -8.8355773186776787E-005
   1.1000000000000003E-002    -1.7580908024683595E-004
   1.1099999999999999E-002    -2.4774821940809488E-004
   1.1200000000000002E-002    -3.0819009407423437E-004
   1.1300000000000004E-002    -3.5374701838009059E-004
   1.1400000000000000E-002    -5.2057241555303335E-004
   1.1500000000000003E-002    -5.0337216816842556E-004
   1.1599999999999999E-002    -5.4999493295326829E-004
   1.1700000000000002E-002    -5.5075023556128144E-004
   1.1800000000000005E-002    -4.7553566400893033E-004
   1.1900000000000001E-002    -4.5807560672983527E-004
   1.2000000000000004E-002    -2.9509078012779355E-004
   1.2100000000000000E-002    -3.0666397651657462E-004
   1.2200000000000003E-002    -1.5397100651171058E-004
   1.2299999999999998E-002    -1.9035698642255738E-005
   1.2400000000000001E-002    -6.4065725382533856E-006
   1.2500000000000004E-002     1.0702322470024228E-004
   1.2600000000000000E-002     1.7007120186462998E-004
   1.2700000000000003E-002     9.1555753897409886E-005
   1.2799999999999999E-002     1.2714709737338126E-004
   1.2900000000000002E-002     4.0814455132931471E-005
   1.3000000000000005E-002    -3.2957923394860700E-005
   1.3100000000000001E-002     7.5443109381012619E-005
   1.3200000000000003E-002     1.2174187577329576E-004
   1.3299999999999999E-002     1.5843515575397760E-004
   1.3400000000000002E-002     7.9017245298018679E-006
   1.3500000000000005E-002    -6.1740844103042036E-005
   1.3600000000000001E-002     4.7543875552946702E-005
   1.3700000000000004E-002    -1.6212907212320715E-005
   1.3800000000000000E-002     1.6350258374586701E-004
   1.3900000000000003E-002     2.4017481337068602E-005
   1.3999999999999999E-002    -3.1540001509711146E-004
   1.4100000000000001E-002    -2.0212771778460592E-004
   1.4200000000000004E-002    -1.8427475879434496E-004
   1.4300000000000000E-002    -2.6716027059592307E-004
   1.4400000000000003E-002    -2.0467700960580260E-004