  -4.0000000000000001E-002     0.0000000000000000
  -3.9899999999999998E-002     0.0000000000000000
  -3.9800000000000002E-002     0.0000000000000000
  -3.9699999999999999E-002     0.0000000000000000
  -3.9600000000000003E-002     0.0000000000000000
  -3.9500000000000000E-002     0.0000000000000000
  -3.9399999999999998E-002    -3.5505377790159487E-026
  -3.9300000000000002E-002    -5.1673348802601082E-025
  -3.9199999999999999E-002    -3.9559384458494894E-024
  -3.9100000000000003E-002    -2.1211573572581155E-023
  -3.9000000000000000E-002    -8.9438019766823543E-023
  -3.8900000000000004E-002    -3.1559659826303366E-022
  -3.8800000000000001E-002    -9.6844059001756776E-022
  -3.8699999999999998E-002    -2.6514321033688982E-021
  -3.8600000000000002E-002    -6.5944054162463096E-021
  -3.8500000000000000E-002    -1.5094370176636345E-020
  -3.8400000000000004E-002    -3.2102182108996992E-020
  -3.8300000000000001E-002    -6.3872916452306900E-020
  -3.8199999999999998E-002    -1.1944957422601560E-019
  -3.8100000000000002E-002    -2.1050385204813091E-019
  -3.7999999999999999E-002    -3.4968527661043252E-019
  -3.7900000000000003E-002    -5.4610332324754348E-019
  -3.7800000000000000E-002    -7.9587064092465654E-019
  -3.7699999999999997E-002    -1.0647663105653771E-018
  -3.7600000000000001E-002    -1.2590540119708655E-018
  -3.7499999999999999E-002    -1.1793876435671030E-018
  -3.7400000000000003E-002    -4.5162976285531091E-019
  -3.7300000000000000E-002     1.5725542166222751E-018
  -3.7200000000000004E-002     5.9530356048435627E-018
  -3.7100000000000001E-002     1.4344170541219092E-017
  -3.6999999999999998E-002     2.9230108206457199E-017
  -3.6900000000000002E-002     5.4217002416622949E-017
  -3.6799999999999999E-002     9.4382811899612427E-017
  -3.6700000000000003E-002     1.5667967201878304E-016
  -3.6600000000000001E-002     2.5037558246389590E-016
  -3.6499999999999998E-002     3.8751203556338024E-016
  -3.6400000000000002E-002     5.8334106279353961E-016
  -3.6299999999999999E-002     8.5668992527237813E-016
  -3.6200000000000003E-002     1.2301847909045357E-015
  -3.6100000000000000E-002     1.7302459635105720E-015
  -3.6000000000000004E-002     2.3867500516173605E-015
  -3.5900000000000001E-002     3.2322370831951560E-015
  -3.5799999999999998E-002     4.3005265820374292E-015
  -3.5700000000000003E-002     5.6245994697315578E-015
  -3.5600000000000000E-002     7.2336034386399967E-015
  -3.5500000000000004E-002     9.1488471724325268E-015
  -3.5400000000000001E-002     1.1378679244451385E-014
  -3.5299999999999998E-002     1.3912179853576987E-014
  -3.5200000000000002E-002     1.6711658738300396E-014
  -3.5099999999999999E-002     1.9704029767166512E-014
  -3.5000000000000003E-002     2.2771231776319619E-014
  -3.4900000000000000E-002     2.5739981295583707E-014
  -3.4799999999999998E-002     2.8371292394644481E-014
  -3.4700000000000002E-002     3.0350342308036697E-014
  -3.4599999999999999E-002     3.1277430325527330E-014
  -3.4500000000000003E-002     3.0660942075408678E-014
  -3.4400000000000000E-002     2.7913391411463758E-014
  -3.4299999999999997E-002     2.2351752943009098E-014
  -3.4200000000000001E-002     1.3203397884670533E-014
  -3.4099999999999998E-002    -3.8097972298809248E-016
  -3.4000000000000002E-002    -1.9306061962539189E-014
  -3.3900000000000000E-002    -4.4500949498393547E-014
  -3.3799999999999997E-002    -7.6877376572625765E-014
  -3.3700000000000001E-002    -1.1727635967442759E-013
  -3.3599999999999998E-002    -1.6640268660230468E-013
  -3.3500000000000002E-002    -2.2474740177638050E-013
  -3.3399999999999999E-002    -2.9249907037129327E-013
  -3.3300000000000003E-002    -3.6944518967888870E-013
  -3.3200000000000000E-002    -4.5486625833794777E-013
  -3.3099999999999997E-002    -5.4742571696759791E-013
  -3.3000000000000002E-002    -6.4506020670541523E-013
  -3.2899999999999999E-002    -7.4487555107100392E-013
  -3.2800000000000003E-002    -8.4305490384521868E-013
  -3.2700000000000000E-002    -9.3478633170979570E-013
  -3.2600000000000004E-002    -1.0142180512312086E-012
  -3.2500000000000001E-002    -1.0744499621095268E-012
  -3.2399999999999998E-002    -1.1075704474277790E-012
  -3.2300000000000002E-002    -1.1047473276109804E-012
  -3.2199999999999999E-002    -1.0563811741035015E-012
  -3.2100000000000004E-002    -9.5232840828842176E-013
  -3.2000000000000001E-002    -7.8219956629913815E-013
  -3.1899999999999998E-002    -5.3573707485094212E-013
  -3.1800000000000002E-002    -2.0327250095793051E-013
  -3.1699999999999999E-002     2.2373897922737420E-013
  -3.1600000000000003E-002     7.5211264684325263E-013
  -3.1500000000000000E-002     1.3862685796723300E-012
  -3.1399999999999997E-002     2.1275207461774338E-012
  -3.1300000000000001E-002     2.9733412343304085E-012
  -3.1199999999999999E-002     3.9166255634557025E-012
  -3.1100000000000003E-002     4.9449875615470937E-012
  -3.1000000000000000E-002     6.0401198545097659E-012
  -3.0900000000000000E-002     7.1772578064784810E-012
  -3.0800000000000001E-002     8.3247857498066854E-012
  -3.0699999999999998E-002     9.4440311631281778E-012
  -3.0600000000000002E-002     1.0489286484443915E-011
  -3.0499999999999999E-002     1.1408102985805881E-011
  -3.0400000000000000E-002     1.2141892823025968E-011
  -3.0300000000000001E-002     1.2626869246429533E-011
  -3.0200000000000001E-002     1.2795356297630851E-011
  -3.0100000000000002E-002     1.2577474593612000E-011
  -2.9999999999999999E-002     1.1903209856187326E-011
  -2.9899999999999999E-002     1.0704855131064820E-011
  -2.9800000000000000E-002     8.9197971222231692E-012
  -2.9700000000000001E-002     6.4935983647361446E-012
  -2.9600000000000001E-002     3.3833215402341525E-012
  -2.9499999999999998E-002    -4.3899534665866913E-013
  -2.9400000000000003E-002    -4.9827973425583013E-012
  -2.9300000000000000E-002    -1.0235544310541834E-011
  -2.9200000000000000E-002    -1.6159425429007379E-011
  -2.9100000000000001E-002    -2.2688403834403667E-011
  -2.8999999999999998E-002    -2.9725762755249930E-011
  -2.8900000000000002E-002    -3.7142288231427677E-011
  -2.8799999999999999E-002    -4.4775266304998482E-011
  -2.8700000000000000E-002    -5.2428434298713868E-011
  -2.8600000000000000E-002    -5.9873030056396761E-011
  -2.8500000000000001E-002    -6.6850062460887722E-011
  -2.8400000000000002E-002    -7.3073895317360371E-011
  -2.8299999999999999E-002    -7.8237207681254271E-011
  -2.8200000000000003E-002    -8.2017377925714738E-011
  -2.8100000000000000E-002    -8.4084225080166556E-011
  -2.8000000000000001E-002    -8.4109083605228694E-011
  -2.7900000000000001E-002    -8.1775093105165474E-011
  -2.7799999999999998E-002    -7.6788469624625706E-011
  -2.7700000000000002E-002    -6.8890595895874597E-011
  -2.7600000000000000E-002    -5.7870624175120547E-011
  -2.7500000000000000E-002    -4.3578222139519404E-011
  -2.7400000000000001E-002    -2.5936144964330506E-011
  -2.7299999999999998E-002    -4.9521470182570635E-012
  -2.7200000000000002E-002     1.9270160966623557E-011
  -2.7099999999999999E-002     4.6521989813838411E-011
  -2.7000000000000000E-002     7.6482047699437381E-011
  -2.6900000000000000E-002     1.0871167792744273E-010
  -2.6800000000000001E-002     1.4265286436851110E-010
  -2.6700000000000002E-002     1.7762946928638700E-010
  -2.6599999999999999E-002     2.1285204353790166E-010
  -2.6500000000000003E-002     2.4742647894754603E-010
  -2.6400000000000000E-002     2.8036659819427991E-010
  -2.6300000000000000E-002     3.1061067908589527E-010
  -2.6200000000000001E-002     3.3704192176856558E-010
  -2.6099999999999998E-002     3.5851261720145879E-010
  -2.6000000000000002E-002     3.7387169889428932E-010
  -2.5899999999999999E-002     3.8199515270318915E-010
  -2.5800000000000000E-002     3.8181869458888184E-010
  -2.5700000000000001E-002     3.7237202157749726E-010
  -2.5599999999999998E-002     3.5281391860289581E-010
  -2.5500000000000002E-002     3.2246710955803530E-010
  -2.5399999999999999E-002     2.8085187249171365E-010
  -2.5300000000000000E-002     2.2771749253821726E-010
  -2.5200000000000000E-002     1.6307063740461215E-010
  -2.5100000000000001E-002     8.7199192006902065E-011
  -2.5000000000000001E-002     6.9097721911922806E-013
  -2.4899999999999999E-002    -9.5553810923940954E-011
  -2.4800000000000003E-002    -2.0031720852200823E-010
  -2.4700000000000000E-002    -3.1206543299406341E-010
  -2.4600000000000000E-002    -4.2895919833059142E-010
  -2.4500000000000001E-002    -5.4887249658491687E-010
  -2.4399999999999998E-002    -6.6941968109196254E-010
  -2.4299999999999999E-002    -7.8799083973648239E-010
  -2.4199999999999999E-002    -9.0179510767102900E-010
  -2.4100000000000000E-002    -1.0079111432976490E-009
  -2.4000000000000000E-002    -1.1033440162764729E-009
  -2.3900000000000001E-002    -1.1850872918020026E-009
  -2.3800000000000002E-002    -1.2501888969098775E-009
  -2.3699999999999999E-002    -1.2958197749512370E-009
  -2.3599999999999999E-002    -1.3193432952118356E-009
  -2.3500000000000000E-002    -1.3183838819797245E-009
  -2.3400000000000001E-002    -1.2908933095641035E-009
  -2.3300000000000001E-002    -1.2352127962175851E-009
  -2.3199999999999998E-002    -1.1501293099977588E-009
  -2.3099999999999999E-002    -1.0349248639381446E-009
  -2.3000000000000000E-002    -8.8941724121922878E-010
  -2.2900000000000000E-002    -7.1399119202475705E-010
  -2.2800000000000001E-002    -5.0961954939541080E-010
  -2.2700000000000001E-002    -2.7787269479494782E-010
  -2.2599999999999999E-002    -2.0916585193446064E-011
  -2.2499999999999999E-002     2.5849966252236343E-010
  -2.2400000000000000E-002     5.5706682317625953E-010
  -2.2300000000000000E-002     8.7094956284229317E-010
  -2.2200000000000001E-002     1.1958296240663603E-009
  -2.2100000000000002E-002     1.5269572722216250E-009
  -2.1999999999999999E-002     1.8592093082668658E-009
  -2.1899999999999999E-002     2.1871524017810731E-009
  -2.1800000000000000E-002     2.5051111827868241E-009
  -2.1700000000000001E-002     2.8072385615467613E-009
  -2.1600000000000001E-002     3.0875869513879586E-009
  -2.1499999999999998E-002     3.3401805301332551E-009
  -2.1399999999999999E-002     3.5590854819794334E-009
  -2.1299999999999999E-002     3.7384789040385734E-009
  -2.1200000000000000E-002     3.8727165799986917E-009
  -2.1100000000000001E-002     3.9563974306856414E-009
  -2.1000000000000001E-002     3.9844267357273028E-009
  -2.0899999999999998E-002     3.9520783080608864E-009
  -2.0799999999999999E-002     3.8550552473059777E-009
  -2.0700000000000000E-002     3.6895536020917738E-009
  -2.0600000000000000E-002     3.4523261180237459E-009
  -2.0500000000000001E-002     3.1407501596285151E-009
  -2.0400000000000001E-002     2.7529006685944201E-009
  -2.0299999999999999E-002     2.2876294758391625E-009
  -2.0199999999999999E-002     1.7446511996436966E-009
  -2.0100000000000000E-002     1.1246362844007484E-009
  -2.0000000000000000E-002     4.2931216386054058E-010
  -1.9900000000000001E-002    -3.3842997743793167E-010
  -1.9799999999999998E-002    -1.1744224369894409E-009
  -1.9699999999999999E-002    -2.0731035523470527E-009
  -1.9599999999999999E-002    -3.0274061017541804E-009
  -1.9500000000000000E-002    -4.0286458616759501E-009
  -1.9400000000000001E-002    -5.0664215361520197E-009
  -1.9300000000000001E-002    -6.1285308756711086E-009
  -1.9199999999999998E-002    -7.2009107669430263E-009
  -1.9099999999999999E-002    -8.2676051004366519E-009
  -1.9000000000000000E-002    -9.3107725260703821E-009
  -1.8900000000000000E-002    -1.0310739344225187E-008
  -1.8800000000000001E-002    -1.1246105506676088E-008
  -1.8700000000000001E-002    -1.2093912882817106E-008
  -1.8599999999999998E-002    -1.2829876625089798E-008
  -1.8499999999999999E-002    -1.3428692862255620E-008
  -1.8400000000000000E-002    -1.3864416760118603E-008
  -1.8300000000000000E-002    -1.4110921213310260E-008
  -1.8200000000000001E-002    -1.4142429740632179E-008
  -1.8100000000000002E-002    -1.3934120582347433E-008
  -1.7999999999999999E-002    -1.3462793143236990E-008
  -1.7899999999999999E-002    -1.2707595390798916E-008
  -1.7800000000000000E-002    -1.1650794660118845E-008
  -1.7700000000000000E-002    -1.0278568991231145E-008
  -1.7600000000000001E-002    -8.5818165865418887E-009
  -1.7499999999999998E-002    -6.5569435936781818E-009
  -1.7399999999999999E-002    -4.2066264132651539E-009
  -1.7299999999999999E-002    -1.5404964235394214E-009
  -1.7200000000000000E-002     1.4242489468289312E-009
  -1.7100000000000001E-002     4.6623502223098434E-009
  -1.7000000000000001E-002     8.1401488134621691E-009
  -1.6899999999999998E-002     1.1815401109480348E-008
  -1.6799999999999999E-002     1.5637298605960302E-008
  -1.6700000000000000E-002     1.9546686785149821E-008
  -1.6600000000000000E-002     2.3476524502883659E-008
  -1.6500000000000001E-002     2.7352584949824372E-008
  -1.6400000000000001E-002     3.1094395800883909E-008
  -1.6299999999999999E-002     3.4616438293944644E-008
  -1.6199999999999999E-002     3.7829572616168603E-008
  -1.6100000000000000E-002     4.0642706542705372E-008
  -1.6000000000000000E-002     4.2964659663300266E-008
  -1.5900000000000001E-002     4.4706177725557077E-008
  -1.5799999999999998E-002     4.5782131529202936E-008
  -1.5699999999999999E-002     4.6113770307785381E-008
  -1.5599999999999999E-002     4.5631010085854879E-008
  -1.5500000000000000E-002     4.4274730243908144E-008
  -1.5400000000000000E-002     4.1998979556812719E-008
  -1.5300000000000001E-002     3.8773053742582938E-008
  -1.5199999999999998E-002     3.4583347899709106E-008
  -1.5099999999999999E-002     2.9434970558646851E-008
  -1.4999999999999999E-002     2.3353017303163831E-008
  -1.4900000000000000E-002     1.6383464691322527E-008
  -1.4800000000000001E-002     8.5936254291154279E-009
  -1.4700000000000001E-002     7.2159082601868827E-011
  -1.4599999999999998E-002    -9.0714549638558486E-009
  -1.4499999999999999E-002    -1.8707935583526305E-008
  -1.4400000000000000E-002    -2.8689749917051401E-008
  -1.4300000000000000E-002    -3.8853200908638383E-008
  -1.4200000000000001E-002    -4.9020988947838003E-008
  -1.4099999999999998E-002    -5.9005230111340236E-008
  -1.3999999999999999E-002    -6.8610887168732925E-008
  -1.3899999999999999E-002    -7.7639548874588505E-008
  -1.3800000000000000E-002    -8.5893454192440320E-008
  -1.3700000000000000E-002    -9.3179705448531428E-008
  -1.3600000000000001E-002    -9.9314537422704593E-008
  -1.3499999999999998E-002    -1.0412758249624408E-007
  -1.3399999999999999E-002    -1.0746597966478729E-007
  -1.3299999999999999E-002    -1.0919826284336489E-007
  -1.3200000000000000E-002    -1.0921784161672950E-007
  -1.3100000000000001E-002    -1.0744608836622795E-007
  -1.3000000000000001E-002    -1.0383483900610838E-007
  -1.2899999999999998E-002    -9.8368307824091324E-008
  -1.2799999999999999E-002    -9.1064267092725295E-008
  -1.2699999999999999E-002    -8.1974528080415587E-008
  -1.2600000000000000E-002    -7.1184637398940625E-008
  -1.2500000000000001E-002    -5.8812796712035946E-008
  -1.2399999999999998E-002    -4.5008030110936492E-008
  -1.2299999999999998E-002    -2.9947618364662443E-008
  -1.2199999999999999E-002    -1.3833896660708777E-008
  -1.2100000000000000E-002     3.1095459306527908E-009
  -1.2000000000000000E-002     2.0642181662822421E-008
  -1.1900000000000001E-002     3.8511219485338166E-008
  -1.1799999999999998E-002     5.6456497959339248E-008
  -1.1699999999999999E-002     7.4215512111439781E-008
  -1.1599999999999999E-002     9.1528461383430244E-008
  -1.1500000000000000E-002     1.0814304985947751E-007
  -1.1400000000000000E-002     1.2381901567509569E-007
  -1.1300000000000001E-002     1.3833228731276938E-007
  -1.1199999999999998E-002     1.5147849938061736E-007
  -1.1099999999999999E-002     1.6307594747806022E-007
  -1.0999999999999999E-002     1.7296778142313466E-007
  -1.0900000000000000E-002     1.8102345433227424E-007
  -1.0800000000000001E-002     1.8713940811156582E-007
  -1.0699999999999998E-002     1.9123895034431044E-007
  -1.0599999999999998E-002     1.9327138357210535E-007
  -1.0499999999999999E-002     1.9321046112483344E-007
  -1.0400000000000000E-002     1.9105228462361894E-007
  -1.0300000000000000E-002     1.8681266974516645E-007
  -1.0200000000000001E-002     1.8052419898203548E-007
  -1.0099999999999998E-002     1.7223308373080395E-007
  -9.9999999999999985E-003     1.6199602202191048E-007
  -9.8999999999999991E-003     1.4987708870096049E-007
  -9.7999999999999997E-003     1.3594507985304793E-007
  -9.7000000000000003E-003     1.2027118752033136E-007
  -9.6000000000000009E-003     1.0292731455297154E-007
  -9.4999999999999980E-003     8.3985078819272328E-008
  -9.3999999999999986E-003     6.3515639398933498E-008
  -9.2999999999999992E-003     4.1590382773430443E-008
  -9.1999999999999998E-003     1.8282471331120418E-008
  -9.1000000000000004E-003    -6.3308085498855281E-009
  -9.0000000000000011E-003    -3.2164827508931029E-008
  -8.8999999999999982E-003    -5.9123688812531787E-008
  -8.7999999999999988E-003    -8.7095873212732765E-008
  -8.6999999999999994E-003    -1.1594945814755237E-007
  -8.5999999999999965E-003    -1.4552717845580901E-007
  -8.5000000000000006E-003    -1.7564158418713306E-007
  -8.3999999999999977E-003    -2.0607060606365428E-007
  -8.3000000000000018E-003    -2.3655368570595062E-007
  -8.1999999999999990E-003    -2.6678881860684783E-007
  -8.0999999999999961E-003    -2.9643073278114233E-007
  -8.0000000000000002E-003    -3.2509049096834917E-007
  -7.8999999999999973E-003    -3.5233663531557442E-007
  -7.8000000000000014E-003    -3.7769813890563759E-007
  -7.6999999999999985E-003    -4.0066913094254806E-007
  -7.6000000000000026E-003    -4.2071567727125856E-007
  -7.4999999999999997E-003    -4.3728434278699666E-007
  -7.3999999999999969E-003    -4.4981268473869894E-007
  -7.3000000000000009E-003    -4.5774124478938725E-007
  -7.1999999999999981E-003    -4.6052729236303915E-007
  -7.1000000000000021E-003    -4.5765939168910572E-007
  -6.9999999999999993E-003    -4.4867291654182331E-007
  -6.8999999999999964E-003    -4.3316598728826480E-007
  -6.8000000000000005E-003    -4.1081529376680563E-007
  -6.6999999999999976E-003    -3.8139129847133979E-007
  -6.6000000000000017E-003    -3.4477234178339494E-007
  -6.4999999999999988E-003    -3.0095731563248386E-007
  -6.3999999999999960E-003    -2.5007611420729301E-007
  -6.3000000000000000E-003    -1.9239739469873529E-007
  -6.1999999999999972E-003    -1.2833372861047577E-007
  -6.1000000000000013E-003    -5.8443081481103536E-008
  -5.9999999999999984E-003     1.6573279067475523E-008
  -5.9000000000000025E-003     9.5876407105525983E-008
  -5.7999999999999996E-003     1.7849941866224336E-007
  -5.6999999999999967E-003     2.6336099038294597E-007
  -5.6000000000000008E-003     3.4928251172528770E-007
  -5.4999999999999979E-003     4.3500861287546803E-007
  -5.4000000000000020E-003     5.1923059274408811E-007
  -5.2999999999999992E-003     6.0061255301503370E-007
  -5.1999999999999963E-003     6.7781913061416775E-007
  -5.1000000000000004E-003     7.4954467840975351E-007
  -4.9999999999999975E-003     8.1454270868822329E-007
  -4.9000000000000016E-003     8.7165485809713773E-007
  -4.7999999999999987E-003     9.1983883379582939E-007
  -4.6999999999999958E-003     9.5819429572097215E-007
  -4.5999999999999999E-003     9.8598573932262300E-007
  -4.4999999999999971E-003     1.0026619008021292E-006
  -4.4000000000000011E-003     1.0078705732083104E-006
  -4.2999999999999983E-003     1.0014689778079869E-006
  -4.2000000000000023E-003     9.8352867453370278E-007
  -4.0999999999999995E-003     9.5433463953470425E-007
  -3.9999999999999966E-003     9.1437877880157880E-007
  -3.9000000000000007E-003     8.6434767863662475E-007
  -3.7999999999999978E-003     8.0510498264933069E-007
  -3.7000000000000019E-003     7.3766815338088185E-007
  -3.5999999999999990E-003     6.6318100216128986E-007
  -3.4999999999999962E-003     5.8288216330981474E-007
  -3.4000000000000002E-003     4.9807043526315509E-007
  -3.2999999999999974E-003     4.1006824724036922E-007
  -3.2000000000000015E-003     3.2018361524407454E-007
  -3.0999999999999986E-003     2.2967247733818008E-007
  -2.9999999999999957E-003     1.3970237223888716E-007
  -2.8999999999999998E-003     5.1318202297553888E-008
  -2.7999999999999969E-003    -3.4588443644693674E-008
  -2.7000000000000010E-003    -1.1730533738040049E-007
  -2.5999999999999981E-003    -1.9632025247550070E-007
  -2.5000000000000022E-003    -2.7133532417868782E-007
  -2.3999999999999994E-003    -3.4227462201271348E-007
  -2.2999999999999965E-003    -4.0928436268418437E-007
  -2.2000000000000006E-003    -4.7272546729388961E-007
  -2.0999999999999977E-003    -5.3315874693929696E-007
  -2.0000000000000018E-003    -5.9132284564508497E-007
  -1.8999999999999989E-003    -6.4810517362514177E-007
  -1.7999999999999960E-003    -7.0450673325256030E-007
  -1.7000000000000001E-003    -7.6160162755812474E-007
  -1.5999999999999973E-003    -8.2049225541375292E-007
  -1.5000000000000013E-003    -8.8226177117476887E-007
  -1.3999999999999985E-003    -9.4792467440908896E-007
  -1.2999999999999956E-003    -1.0183767907967196E-006
  -1.1999999999999997E-003    -1.0943467413476984E-006
  -1.0999999999999968E-003    -1.1763498746541520E-006
  -1.0000000000000009E-003    -1.2646462055800580E-006
  -8.9999999999999802E-004    -1.3592034724902317E-006
  -8.0000000000000210E-004    -1.4596666782537544E-006
  -6.9999999999999923E-004    -1.5653349243333398E-006
  -5.9999999999999637E-004    -1.6751468065983140E-006
  -5.0000000000000044E-004    -1.7876742625908729E-006
  -3.9999999999999758E-004    -1.9011257406026753E-006
  -3.0000000000000165E-004    -2.0133586928294102E-006
  -1.9999999999999879E-004    -2.1219010919199644E-006
  -9.9999999999995925E-005    -2.2239814164813029E-006
   0.0000000000000000         -2.3165671714177363E-006
   1.0000000000000286E-004    -2.3964102283901521E-006
   1.9999999999999879E-004    -2.4600986650224075E-006
   3.0000000000000165E-004    -2.5041136067291737E-006
   4.0000000000000452E-004    -2.5248893188930473E-006
   5.0000000000000044E-004    -2.5188770168547767E-006
   6.0000000000000331E-004    -2.4826076141875996E-006
   6.9999999999999923E-004    -2.4127565866208022E-006
   8.0000000000000210E-004    -2.3062060419116622E-006
   8.9999999999999802E-004    -2.1601035917664986E-006
   1.0000000000000009E-003    -1.9719187481682813E-006
   1.1000000000000038E-003    -1.7394945192655403E-006
   1.1999999999999997E-003    -1.4610929622135624E-006
   1.3000000000000025E-003    -1.1354368260769603E-006
   1.3999999999999985E-003    -7.6174459225366670E-007
   1.5000000000000013E-003    -3.3975946841397851E-007
   1.6000000000000042E-003     1.3022525380438448E-007
   1.7000000000000001E-003     6.4734744644173243E-007
   1.8000000000000030E-003     1.2101600401406640E-006
   1.8999999999999989E-003     1.8166186281366331E-006
   2.0000000000000018E-003     2.4640715300671071E-006
   2.1000000000000046E-003     3.1492508279773681E-006
   2.2000000000000006E-003     3.8682647066665179E-006
   2.3000000000000034E-003     4.6165867858171223E-006
   2.3999999999999994E-003     5.3890454065885491E-006
   2.5000000000000022E-003     6.1798119351390543E-006
   2.5999999999999981E-003     6.9823819394064988E-006
   2.7000000000000010E-003     7.7895566957438373E-006
   2.8000000000000039E-003     8.5934208244793291E-006
   2.8999999999999998E-003     9.3853134695777207E-006
   3.0000000000000027E-003     1.0155798981020041E-005
   3.0999999999999986E-003     1.0894631716499241E-005
   3.2000000000000015E-003     1.1590724861410057E-005
   3.3000000000000043E-003     1.2232109962233008E-005
   3.4000000000000002E-003     1.2805905084315724E-005
   3.5000000000000031E-003     1.3298281449525304E-005
   3.5999999999999990E-003     1.3694429460362737E-005
   3.7000000000000019E-003     1.3978534406150863E-005
   3.7999999999999978E-003     1.4133757643744344E-005
   3.9000000000000007E-003     1.4142223720049784E-005
   4.0000000000000036E-003     1.3985018597825310E-005
   4.0999999999999995E-003     1.3642197173577486E-005
   4.2000000000000023E-003     1.3092799549697273E-005
   4.2999999999999983E-003     1.2314880648831622E-005
   4.4000000000000011E-003     1.1285553893095801E-005
   4.5000000000000040E-003     9.9810445605351271E-006
   4.5999999999999999E-003     8.3767514543279206E-006
   4.7000000000000028E-003     6.4473223327560652E-006
   4.7999999999999987E-003     4.1667412471372486E-006
   4.9000000000000016E-003     1.5084108342857262E-006
   5.0000000000000044E-003    -1.5547495323723297E-006
   5.1000000000000004E-003    -5.0502028824021175E-006
   5.2000000000000032E-003    -9.0057015312709131E-006
   5.2999999999999992E-003    -1.3449190274722942E-005
   5.4000000000000020E-003    -1.8408716694026158E-005
   5.4999999999999979E-003    -2.3912355597319064E-005
   5.6000000000000008E-003    -2.9988144330951926E-005
   5.7000000000000037E-003    -3.6664020839394799E-005
   5.7999999999999996E-003    -4.3967802118618333E-005
   5.9000000000000025E-003    -5.1927162643636277E-005
   5.9999999999999984E-003    -6.0569642257096595E-005
   6.1000000000000013E-003    -6.9922691475825206E-005
   6.2000000000000041E-003    -8.0013715019868625E-005
   6.3000000000000000E-003    -9.0870174403380696E-005
   6.4000000000000029E-003    -1.0251969262943265E-004
   6.4999999999999988E-003    -1.1499020598633146E-004
   6.6000000000000017E-003    -1.2831010359614978E-004
   6.7000000000000046E-003    -1.4250845078141793E-004
   6.8000000000000005E-003    -1.5761519478465705E-004
   6.9000000000000034E-003    -1.7366142188182597E-004
   6.9999999999999993E-003    -1.9067960882573312E-004
   7.1000000000000021E-003    -2.0870389637173454E-004
   7.1999999999999981E-003    -2.2777038388937585E-004
   7.3000000000000009E-003    -2.4791745705370603E-004
   7.4000000000000038E-003    -2.6918609018530175E-004
   7.4999999999999997E-003    -2.9162020527826067E-004
   7.6000000000000026E-003    -3.1526696393914869E-004
   7.6999999999999985E-003    -3.4017714337738092E-004
   7.8000000000000014E-003    -3.6640543662570720E-004
   7.9000000000000042E-003    -3.9401083506672245E-004
   8.0000000000000002E-003    -4.2305691517311432E-004
   8.1000000000000030E-003    -4.5361220669434257E-004
   8.1999999999999990E-003    -4.8575050406189267E-004
   8.3000000000000018E-003    -5.1955120783800813E-004
   8.4000000000000047E-003    -5.5509965675975604E-004
   8.5000000000000006E-003    -5.9248739158873805E-004
   8.6000000000000035E-003    -6.3181252858090392E-004
   8.6999999999999994E-003    -6.7317999581470672E-004
   8.8000000000000023E-003    -7.1670202877504338E-004
   8.8999999999999982E-003    -7.6249827132798321E-004
   9.0000000000000011E-003    -8.1069620103336895E-004
   9.1000000000000039E-003    -8.6143142418345264E-004
   9.1999999999999998E-003    -9.1484802952464315E-004
   9.3000000000000027E-003    -9.7109895170774299E-004
   9.3999999999999986E-003    -1.0303462148709874E-003
   9.5000000000000015E-003    -1.0927614336409981E-003
   9.6000000000000044E-003    -1.1585261065442313E-003
   9.7000000000000003E-003    -1.2278319555992286E-003
   9.8000000000000032E-003    -1.3008814258478512E-003
   9.8999999999999991E-003    -1.3778879752801595E-003
   1.0000000000000002E-002    -1.4590767423852654E-003
   1.0100000000000005E-002    -1.5446847170700342E-003
   1.0200000000000001E-002    -1.6349612437611990E-003
   1.0300000000000004E-002    -1.7301685243604316E-003
   1.0400000000000000E-002    -1.8305822319506166E-003
   1.0500000000000002E-002    -1.9364917997962239E-003
   1.0599999999999998E-002    -2.0482010193716843E-003
   1.0700000000000001E-002    -2.1660286591508012E-003
   1.0800000000000004E-002    -2.2903089354628764E-003
   1.0900000000000000E-002    -2.4213918743472194E-003
   1.1000000000000003E-002    -2.5596438953822062E-003
   1.1099999999999999E-002    -2.7054487058161417E-003
   1.1200000000000002E-002    -2.8592075001838565E-003
   1.1300000000000004E-002    -3.0213398660034335E-003
   1.1400000000000000E-002    -3.1922839088492361E-003
   1.1500000000000003E-002    -3.3724972533309512E-003
   1.1599999999999999E-002    -3.5624578056463914E-003
   1.1700000000000002E-002    -3.7626639838887008E-003
   1.1800000000000005E-002    -3.9736352009392814E-003
   1.1900000000000001E-002    -4.1959132786107420E-003
   1.2000000000000004E-002    -4.4300627047874326E-003
   1.2100000000000000E-002    -4.6766709534347131E-003
   1.2200000000000003E-002    -4.9363498233598192E-003
   1.2299999999999998E-002    -5.2097363481452396E-003
   1.2400000000000001E-002    -5.4974928543392153E-003
   1.2500000000000004E-002    -5.8003083264403042E-003
   1.2600000000000000E-002    -6.1188986517074859E-003
   1.2700000000000003E-002    -6.4540081798240860E-003
   1.2799999999999999E-002    -6.8064103307211811E-003
   1.2900000000000002E-002    -7.1769084549627151E-003
   1.3000000000000005E-002    -7.5663365957778575E-003
   1.3100000000000001E-002    -7.9755612210499188E-003
   1.3200000000000003E-002    -8.4054819008680705E-003
   1.3299999999999999E-002    -8.8570317223037875E-003
   1.3400000000000002E-002    -9.3311789377943394E-003
   1.3500000000000005E-002    -9.8289284130281904E-003
   1.3600000000000001E-002    -1.0351321179636084E-002
   1.3700000000000004E-002    -1.0899437623497807E-002
   1.3800000000000000E-002    -1.1474397920400205E-002
   1.3900000000000003E-002    -1.2077363026803060E-002
   1.3999999999999999E-002    -1.2709536095607363E-002
   1.4100000000000001E-002    -1.3372163509957995E-002
   1.4200000000000004E-002    -1.4066536620871149E-002
   1.4300000000000000E-002    -1.4793992711962464E-002
   1.4400000000000003E-002    -1.5555915130370284E-002
   1.4499999999999999E-002    -1.6353736717661816E-002