  -4.0000000000000001E-002    -18.033538818359375
  -3.9899999999999998E-002    -18.679136276245117
  -3.9800000000000002E-002    -18.805755615234375
  -3.9699999999999999E-002    -18.420139312744141
  -3.9600000000000003E-002    -17.548723220825195
  -3.9500000000000000E-002    -16.236614227294922
  -3.9399999999999998E-002    -14.545754432678223
  -3.9300000000000002E-002    -12.552519798278809
  -3.9199999999999999E-002    -10.344721794128418
  -3.9100000000000003E-002    -8.0181760787963867
  -3.9000000000000000E-002    -5.6730136871337891
  -3.8900000000000004E-002    -3.4097218513488770
  -3.8800000000000001E-002    -1.3253663778305054
  -3.8699999999999998E-002    0.49022632837295532
  -3.8600000000000002E-002     1.9578307867050171
  -3.8500000000000000E-002     3.0118036270141602
  -3.8400000000000004E-002     3.6025342941284180
  -3.8300000000000001E-002     3.6982574462890625
  -3.8199999999999998E-002     3.2860271930694580
  -3.8100000000000002E-002     2.3721158504486084
  -3.7999999999999999E-002    0.98152250051498413
  -3.7900000000000003E-002   -0.84325498342514038
  -3.7800000000000000E-002    -3.0440547466278076
  -3.7699999999999997E-002    -5.5496225357055664
  -3.7600000000000001E-002    -8.2785587310791016
  -3.7499999999999999E-002    -11.142759323120117
  -3.7400000000000003E-002    -14.051162719726562
  -3.7300000000000000E-002    -16.913297653198242
  -3.7200000000000004E-002    -19.643196105957031
  -3.7100000000000001E-002    -22.162864685058594
  -3.6999999999999998E-002    -24.405347824096680
  -3.6900000000000002E-002    -26.317621231079102
  -3.6799999999999999E-002    -27.862565994262695
  -3.6700000000000003E-002    -29.020614624023438
  -3.6600000000000001E-002    -29.790454864501953
  -3.6499999999999998E-002    -30.189050674438477
  -3.6400000000000002E-002    -30.251052856445312
  -3.6299999999999999E-002    -30.027336120605469
  -3.6200000000000003E-002    -29.582891464233398
  -3.6100000000000000E-002    -28.994388580322266
  -3.6000000000000004E-002    -28.347105026245117
  -3.5900000000000001E-002    -27.731361389160156
  -3.5799999999999998E-002    -27.239206314086914
  -3.5700000000000003E-002    -26.960681915283203
  -3.5600000000000000E-002    -26.980293273925781
  -3.5500000000000004E-002    -27.373794555664062
  -3.5400000000000001E-002    -28.205476760864258
  -3.5299999999999998E-002    -29.525188446044922
  -3.5200000000000002E-002    -31.367389678955078
  -3.5099999999999999E-002    -33.749397277832031
  -3.5000000000000003E-002    -36.670837402343750
  -3.4900000000000000E-002    -40.114383697509766
  -3.4799999999999998E-002    -44.046268463134766
  -3.4700000000000002E-002    -48.418350219726562
  -3.4599999999999999E-002    -53.169696807861328
  -3.4500000000000003E-002    -58.229743957519531
  -3.4400000000000000E-002    -63.521339416503906
  -3.4299999999999997E-002    -68.963706970214844
  -3.4200000000000001E-002    -74.476890563964844
  -3.4099999999999998E-002    -79.983535766601562
  -3.4000000000000002E-002    -85.413932800292969
  -3.3900000000000000E-002    -90.707687377929688
  -3.3799999999999997E-002    -95.817222595214844
  -3.3700000000000001E-002    -100.70936584472656
  -3.3599999999999998E-002    -105.36676788330078
  -3.3500000000000002E-002    -109.78912353515625
  -3.3399999999999999E-002    -113.99322509765625
  -3.3300000000000003E-002    -118.01210784912109
  -3.3200000000000000E-002    -121.89387512207031
  -3.3099999999999997E-002    -125.70093536376953
  -3.3000000000000002E-002    -129.50628662109375
  -3.2899999999999999E-002    -133.39137268066406
  -3.2800000000000003E-002    -137.44387817382812
  -3.2700000000000000E-002    -141.75231933593750
  -3.2600000000000004E-002    -146.40542602539062
  -3.2500000000000001E-002    -151.48680114746094
  -3.2399999999999998E-002    -157.07305908203125
  -3.2300000000000002E-002    -163.23150634765625
  -3.2199999999999999E-002    -170.01597595214844
  -3.2100000000000004E-002    -177.46745300292969
  -3.2000000000000001E-002    -185.61126708984375
  -3.1899999999999998E-002    -194.45805358886719
  -3.1800000000000002E-002    -204.00144958496094
  -3.1699999999999999E-002    -214.22294616699219
  -3.1600000000000003E-002    -225.08985900878906
  -3.1500000000000000E-002    -236.55691528320312
  -3.1399999999999997E-002    -248.57228088378906
  -3.1300000000000001E-002    -261.07669067382812
  -3.1199999999999999E-002    -274.00839233398438
  -3.1100000000000003E-002    -287.30642700195312
  -3.1000000000000000E-002    -300.90979003906250
  -3.0900000000000000E-002    -314.76782226562500
  -3.0800000000000001E-002    -328.83367919921875
  -3.0699999999999998E-002    -343.07583618164062
  -3.0600000000000002E-002    -357.47161865234375
  -3.0499999999999999E-002    -372.01513671875000
  -3.0400000000000000E-002    -386.71340942382812
  -3.0300000000000001E-002    -401.58715820312500
  -3.0200000000000001E-002    -416.67501831054688
  -3.0100000000000002E-002    -432.02481079101562
  -2.9999999999999999E-002    -447.69622802734375
  -2.9899999999999999E-002    -463.75927734375000
  -2.9800000000000000E-002    -480.28921508789062
  -2.9700000000000001E-002    -497.36740112304688
  -2.9600000000000001E-002    -515.07513427734375
  -2.9499999999999998E-002    -533.48901367187500
  -2.9400000000000003E-002    -552.68432617187500
  -2.9300000000000000E-002    -572.72882080078125
  -2.9200000000000000E-002    -593.67797851562500
  -2.9100000000000001E-002    -615.57922363281250
  -2.8999999999999998E-002    -638.46063232421875
  -2.8900000000000002E-002    -662.34661865234375
  -2.8799999999999999E-002    -687.23596191406250
  -2.8700000000000000E-002    -713.12310791015625
  -2.8600000000000000E-002    -739.98352050781250
  -2.8500000000000001E-002    -767.78198242187500
  -2.8400000000000002E-002    -796.47979736328125
  -2.8299999999999999E-002    -826.02484130859375
  -2.8200000000000003E-002    -856.36047363281250
  -2.8100000000000000E-002    -887.43066406250000
  -2.8000000000000001E-002    -919.17584228515625
  -2.7900000000000001E-002    -951.54553222656250
  -2.7799999999999998E-002    -984.49468994140625
  -2.7700000000000002E-002    -1017.9785766601562
  -2.7600000000000000E-002    -1051.9735107421875
  -2.7500000000000000E-002    -1086.4624023437500
  -2.7400000000000001E-002    -1121.4361572265625
  -2.7299999999999998E-002    -1156.9051513671875
  -2.7200000000000002E-002    -1192.8892822265625
  -2.7099999999999999E-002    -1229.4166259765625
  -2.7000000000000000E-002    -1266.5389404296875
  -2.6900000000000000E-002    -1304.2961425781250
  -2.6800000000000001E-002    -1342.7539062500000
  -2.6700000000000002E-002    -1381.9685058593750
  -2.6599999999999999E-002    -1422.0030517578125
  -2.6500000000000003E-002    -1462.9132080078125
  -2.6400000000000000E-002    -1504.7524414062500
  -2.6300000000000000E-002    -1547.5748291015625
  -2.6200000000000001E-002    -1591.4202880859375
  -2.6099999999999998E-002    -1636.3107910156250
  -2.6000000000000002E-002    -1682.2604980468750
  -2.5899999999999999E-002    -1729.2719726562500
  -2.5800000000000000E-002    -1777.3217773437500
  -2.5700000000000001E-002    -1826.3937988281250
  -2.5599999999999998E-002    -1876.4348144531250
  -2.5500000000000002E-002    -1927.3865966796875
  -2.5399999999999999E-002    -1979.1768798828125
  -2.5300000000000000E-002    -2031.7510986328125
  -2.5200000000000000E-002    -2084.9948730468750
  -2.5100000000000001E-002    -2138.8310546875000
  -2.5000000000000001E-002    -2193.1694335937500
  -2.4899999999999999E-002    -2247.9379882812500
  -2.4800000000000003E-002    -2303.0156250000000
  -2.4700000000000000E-002    -2358.3461914062500
  -2.4600000000000000E-002    -2413.8383789062500
  -2.4500000000000001E-002    -2469.4492187500000
  -2.4399999999999998E-002    -2525.1064453125000
  -2.4299999999999999E-002    -2580.7954101562500
  -2.4199999999999999E-002    -2636.4636230468750
  -2.4100000000000000E-002    -2692.0996093750000
  -2.4000000000000000E-002    -2747.6958007812500
  -2.3900000000000001E-002    -2803.2409667968750
  -2.3800000000000002E-002    -2858.7568359375000
  -2.3699999999999999E-002    -2914.2307128906250
  -2.3599999999999999E-002    -2969.6887207031250
  -2.3500000000000000E-002    -3025.1232910156250
  -2.3400000000000001E-002    -3080.5510253906250
  -2.3300000000000001E-002    -3135.9541015625000
  -2.3199999999999998E-002    -3191.3142089843750
  -2.3099999999999999E-002    -3246.6022949218750
  -2.3000000000000000E-002    -3301.8024902343750
  -2.2900000000000000E-002    -3356.7980957031250
  -2.2800000000000001E-002    -3411.5944824218750
  -2.2700000000000001E-002    -3466.0615234375000
  -2.2599999999999999E-002    -3520.0856933593750
  -2.2499999999999999E-002    -3573.5300292968750
  -2.2400000000000000E-002    -3626.2949218750000
  -2.2300000000000000E-002    -3678.2182617187500
  -2.2200000000000001E-002    -3729.1179199218750
  -2.2100000000000002E-002    -3778.8422851562500
  -2.1999999999999999E-002    -3827.2199707031250
  -2.1899999999999999E-002    -3874.1193847656250
  -2.1800000000000000E-002    -3919.3142089843750
  -2.1700000000000001E-002    -3962.6777343750000
  -2.1600000000000001E-002    -4004.0268554687500
  -2.1499999999999998E-002    -4043.1967773437500
  -2.1399999999999999E-002    -4080.1215820312500
  -2.1299999999999999E-002    -4114.6044921875000
  -2.1200000000000000E-002    -4146.5581054687500
  -2.1100000000000001E-002    -4175.9008789062500
  -2.1000000000000001E-002    -4202.5341796875000
  -2.0899999999999998E-002    -4226.3374023437500
  -2.0799999999999999E-002    -4247.2871093750000
  -2.0700000000000000E-002    -4265.2988281250000
  -2.0600000000000000E-002    -4280.2958984375000
  -2.0500000000000001E-002    -4292.2778320312500
  -2.0400000000000001E-002    -4301.1245117187500
  -2.0299999999999999E-002    -4306.8061523437500
  -2.0199999999999999E-002    -4309.2875976562500
  -2.0100000000000000E-002    -4308.4267578125000
  -2.0000000000000000E-002    -4304.1694335937500
  -1.9900000000000001E-002    -4296.3769531250000
  -1.9799999999999998E-002    -4285.0004882812500
  -1.9699999999999999E-002    -4269.8173828125000
  -1.9599999999999999E-002    -4250.8422851562500
  -1.9500000000000000E-002    -4227.7470703125000
  -1.9400000000000001E-002    -4200.4584960937500
  -1.9300000000000001E-002    -4168.7592773437500
  -1.9199999999999998E-002    -4132.4233398437500
  -1.9099999999999999E-002    -4091.3544921875000
  -1.9000000000000000E-002    -4045.2380371093750
  -1.8900000000000000E-002    -3993.9680175781250
  -1.8800000000000001E-002    -3937.2919921875000
  -1.8700000000000001E-002    -3875.0712890625000
  -1.8599999999999998E-002    -3807.0441894531250
  -1.8499999999999999E-002    -3733.0659179687500
  -1.8400000000000000E-002    -3652.9880371093750
  -1.8300000000000000E-002    -3566.6308593750000
  -1.8200000000000001E-002    -3474.0058593750000
  -1.8100000000000002E-002    -3374.9155273437500
  -1.7999999999999999E-002    -3269.2492675781250
  -1.7899999999999999E-002    -3157.0156250000000
  -1.7800000000000000E-002    -3038.1552734375000
  -1.7700000000000000E-002    -2912.5959472656250
  -1.7600000000000001E-002    -2780.3154296875000
  -1.7499999999999998E-002    -2641.2971191406250
  -1.7399999999999999E-002    -2495.7734375000000
  -1.7299999999999999E-002    -2343.4348144531250
  -1.7200000000000000E-002    -2184.3654785156250
  -1.7100000000000001E-002    -2018.6564941406250
  -1.7000000000000001E-002    -1846.3240966796875
  -1.6899999999999998E-002    -1667.2952880859375
  -1.6799999999999999E-002    -1481.7338867187500
  -1.6700000000000000E-002    -1289.4732666015625
  -1.6600000000000000E-002    -1090.5201416015625
  -1.6500000000000001E-002    -884.95947265625000
  -1.6400000000000001E-002    -672.75292968750000
  -1.6299999999999999E-002    -453.71423339843750
  -1.6199999999999999E-002    -228.19985961914062
  -1.6100000000000000E-002     4.3854603767395020
  -1.6000000000000000E-002     243.61851501464844
  -1.5900000000000001E-002     489.71368408203125
  -1.5799999999999998E-002     742.66210937500000
  -1.5699999999999999E-002     1002.5628051757812
  -1.5599999999999999E-002     1269.1977539062500
  -1.5500000000000000E-002     1542.7353515625000
  -1.5400000000000000E-002     1823.0695800781250
  -1.5300000000000001E-002     2110.1286621093750
  -1.5199999999999998E-002     2403.9548339843750
  -1.5099999999999999E-002     2704.3039550781250
  -1.4999999999999999E-002     3011.0976562500000
  -1.4900000000000000E-002     3324.1855468750000
  -1.4800000000000001E-002     3643.3454589843750
  -1.4700000000000001E-002     3968.4401855468750
  -1.4599999999999998E-002     4299.0649414062500
  -1.4499999999999999E-002     4635.0419921875000
  -1.4400000000000000E-002     4976.2963867187500
  -1.4300000000000000E-002     5322.3295898437500
  -1.4200000000000001E-002     5672.7988281250000
  -1.4099999999999998E-002     6027.5458984375000
  -1.3999999999999999E-002     6386.2280273437500
  -1.3899999999999999E-002     6748.5014648437500
  -1.3800000000000000E-002     7113.9160156250000
  -1.3700000000000000E-002     7482.2290039062500
  -1.3600000000000001E-002     7853.1840820312500
  -1.3499999999999998E-002     8226.4023437500000
  -1.3399999999999999E-002     8601.4736328125000
  -1.3299999999999999E-002     8978.2167968750000
  -1.3200000000000000E-002     9356.3417968750000
  -1.3100000000000001E-002     9735.4492187500000
  -1.3000000000000001E-002     10115.250000000000
  -1.2899999999999998E-002     10495.482421875000
  -1.2799999999999999E-002     10875.702148437500
  -1.2699999999999999E-002     11255.761718750000
  -1.2600000000000000E-002     11635.249023437500
  -1.2500000000000001E-002     12013.802734375000
  -1.2399999999999998E-002     12391.273437500000
  -1.2299999999999998E-002     12766.992187500000
  -1.2199999999999999E-002     13140.756835937500
  -1.2100000000000000E-002     13512.093750000000
  -1.2000000000000000E-002     13880.601562500000
  -1.1900000000000001E-002     14245.737304687500
  -1.1799999999999998E-002     14607.327148437500
  -1.1699999999999999E-002     14964.676757812500
  -1.1599999999999999E-002     15317.247070312500
  -1.1500000000000000E-002     15664.703125000000
  -1.1400000000000000E-002     16006.413085937500
  -1.1300000000000001E-002     16341.883789062500
  -1.1199999999999998E-002     16670.496093750000
  -1.1099999999999999E-002     16991.759765625000
  -1.0999999999999999E-002     17305.005859375000
  -1.0900000000000000E-002     17610.046875000000
  -1.0800000000000001E-002     17905.941406250000
  -1.0699999999999998E-002     18192.373046875000
  -1.0599999999999998E-002     18468.609375000000
  -1.0499999999999999E-002     18734.406250000000
  -1.0400000000000000E-002     18989.064453125000
  -1.0300000000000000E-002     19232.236328125000
  -1.0200000000000001E-002     19463.462890625000
  -1.0099999999999998E-002     19682.322265625000
  -9.9999999999999985E-003     19888.365234375000
  -9.8999999999999991E-003     20081.078125000000
  -9.7999999999999997E-003     20260.226562500000
  -9.7000000000000003E-003     20425.392578125000
  -9.6000000000000009E-003     20576.169921875000
  -9.4999999999999980E-003     20712.302734375000
  -9.3999999999999986E-003     20833.460937500000
  -9.2999999999999992E-003     20939.208984375000
  -9.1999999999999998E-003     21029.406250000000
  -9.1000000000000004E-003     21103.599609375000
  -9.0000000000000011E-003     21161.466796875000
  -8.8999999999999982E-003     21202.652343750000
  -8.7999999999999988E-003     21226.972656250000
  -8.6999999999999994E-003     21234.035156250000
  -8.5999999999999965E-003     21223.503906250000
  -8.5000000000000006E-003     21195.101562500000
  -8.3999999999999977E-003     21148.542968750000
  -8.3000000000000018E-003     21083.500000000000
  -8.1999999999999990E-003     20999.701171875000
  -8.0999999999999961E-003     20896.927734375000
  -8.0000000000000002E-003     20774.849609375000
  -7.8999999999999973E-003     20633.255859375000
  -7.8000000000000014E-003     20472.085937500000
  -7.6999999999999985E-003     20291.058593750000
  -7.6000000000000026E-003     20090.039062500000
  -7.4999999999999997E-003     19868.957031250000
  -7.3999999999999969E-003     19627.669921875000
  -7.3000000000000009E-003     19366.169921875000
  -7.1999999999999981E-003     19084.414062500000
  -7.1000000000000021E-003     18782.441406250000
  -6.9999999999999993E-003     18460.390625000000
  -6.8999999999999964E-003     18118.203125000000
  -6.8000000000000005E-003     17756.062500000000
  -6.6999999999999976E-003     17374.271484375000
  -6.6000000000000017E-003     16972.837890625000
  -6.4999999999999988E-003     16552.068359375000
  -6.3999999999999960E-003     16112.222656250000
  -6.3000000000000000E-003     15653.533203125000
  -6.1999999999999972E-003     15176.230468750000
  -6.1000000000000013E-003     14680.738281250000
  -5.9999999999999984E-003     14167.351562500000
  -5.9000000000000025E-003     13636.416015625000
  -5.7999999999999996E-003     13088.206054687500
  -5.6999999999999967E-003     12523.131835937500
  -5.6000000000000008E-003     11941.690429687500
  -5.4999999999999979E-003     11344.106445312500
  -5.4000000000000020E-003     10730.833007812500
  -5.2999999999999992E-003     10102.326171875000
  -5.1999999999999963E-003     9459.0439453125000
  -5.1000000000000004E-003     8801.3632812500000
  -4.9999999999999975E-003     8129.7768554687500
  -4.9000000000000016E-003     7444.7084960937500
  -4.7999999999999987E-003     6746.8408203125000
  -4.6999999999999958E-003     6036.7880859375000
  -4.5999999999999999E-003     5314.6411132812500
  -4.4999999999999971E-003     4581.4965820312500
  -4.4000000000000011E-003     3837.6315917968750
  -4.2999999999999983E-003     3083.9267578125000
  -4.2000000000000023E-003     2320.7138671875000
  -4.0999999999999995E-003     1549.1943359375000
  -3.9999999999999966E-003     769.58972167968750
  -3.9000000000000007E-003    -16.910579681396484
  -3.7999999999999978E-003    -809.78387451171875
  -3.7000000000000019E-003    -1608.0557861328125
  -3.5999999999999990E-003    -2411.2895507812500
  -3.4999999999999962E-003    -3218.2041015625000
  -3.4000000000000002E-003    -4028.3347167968750
  -3.2999999999999974E-003    -4840.4526367187500
  -3.2000000000000015E-003    -5653.9038085937500
  -3.0999999999999986E-003    -6468.0429687500000
  -2.9999999999999957E-003    -7281.5605468750000
  -2.8999999999999998E-003    -8093.9506835937500
  -2.7999999999999969E-003    -8904.3232421875000
  -2.7000000000000010E-003    -9711.6162109375000
  -2.5999999999999981E-003    -10515.361328125000
  -2.5000000000000022E-003    -11314.369140625000
  -2.3999999999999994E-003    -12108.131835937500
  -2.2999999999999965E-003    -12895.508789062500
  -2.2000000000000006E-003    -13675.987304687500
  -2.0999999999999977E-003    -14448.630859375000
  -2.0000000000000018E-003    -15212.776367187500
  -1.8999999999999989E-003    -15967.750000000000
  -1.7999999999999960E-003    -16712.593750000000
  -1.7000000000000001E-003    -17446.515625000000
  -1.5999999999999973E-003    -18169.136718750000
  -1.5000000000000013E-003    -18879.406250000000
  -1.3999999999999985E-003    -19576.603515625000
  -1.2999999999999956E-003    -20260.199218750000
  -1.1999999999999997E-003    -20929.240234375000
  -1.0999999999999968E-003    -21583.335937500000
  -1.0000000000000009E-003    -22221.269531250000
  -8.9999999999999802E-004    -22842.648437500000
  -8.0000000000000210E-004    -23446.921875000000
  -6.9999999999999923E-004    -24033.291015625000
  -5.9999999999999637E-004    -24600.863281250000
  -5.0000000000000044E-004    -25149.035156250000
  -3.9999999999999758E-004    -25677.402343750000
  -3.0000000000000165E-004    -26184.957031250000
  -1.9999999999999879E-004    -26671.619140625000
  -9.9999999999995925E-005    -27136.242187500000
   0.0000000000000000         -27578.873046875000
   1.0000000000000286E-004    -27998.923828125000
   1.9999999999999879E-004    -28395.287109375000
   3.0000000000000165E-004    -28768.109375000000
   4.0000000000000452E-004    -29117.207031250000
   5.0000000000000044E-004    -29441.337890625000
   6.0000000000000331E-004    -29740.865234375000
   6.9999999999999923E-004    -30015.328125000000
   8.0000000000000210E-004    -30264.626953125000
   8.9999999999999802E-004    -30488.330078125000
   1.0000000000000009E-003    -30686.185546875000
   1.1000000000000038E-003    -30858.611328125000
   1.1999999999999997E-003    -31004.861328125000
   1.3000000000000025E-003    -31125.191406250000
   1.3999999999999985E-003    -31219.468750000000
   1.5000000000000013E-003    -31287.609375000000
   1.6000000000000042E-003    -31329.789062500000
   1.7000000000000001E-003    -31345.943359375000
   1.8000000000000030E-003    -31336.230468750000
   1.8999999999999989E-003    -31300.607421875000
   2.0000000000000018E-003    -31238.896484375000
   2.1000000000000046E-003    -31151.490234375000
   2.2000000000000006E-003    -31038.824218750000
   2.3000000000000034E-003    -30900.535156250000
   2.3999999999999994E-003    -30737.146484375000
   2.5000000000000022E-003    -30548.490234375000
   2.5999999999999981E-003    -30334.986328125000
   2.7000000000000010E-003    -30096.943359375000
   2.8000000000000039E-003    -29834.675781250000
   2.8999999999999998E-003    -29548.208984375000
   3.0000000000000027E-003    -29238.179687500000
   3.0999999999999986E-003    -28904.912109375000
   3.2000000000000015E-003    -28548.548828125000
   3.3000000000000043E-003    -28169.626953125000
   3.4000000000000002E-003    -27768.771484375000
   3.5000000000000031E-003    -27346.355468750000
   3.5999999999999990E-003    -26902.882812500000
   3.7000000000000019E-003    -26438.992187500000
   3.7999999999999978E-003    -25954.992187500000
   3.9000000000000007E-003    -25451.916015625000
   4.0000000000000036E-003    -24930.130859375000
   4.0999999999999995E-003    -24390.417968750000
   4.2000000000000023E-003    -23833.333984375000
   4.2999999999999983E-003    -23259.898437500000
   4.4000000000000011E-003    -22670.693359375000
   4.5000000000000040E-003    -22066.261718750000
   4.5999999999999999E-003    -21447.376953125000
   4.7000000000000028E-003    -20815.097656250000
   4.7999999999999987E-003    -20169.765625000000
   4.9000000000000016E-003    -19512.339843750000
   5.0000000000000044E-003    -18843.617187500000
   5.1000000000000004E-003    -18164.271484375000
   5.2000000000000032E-003    -17475.351562500000
   5.2999999999999992E-003    -16777.169921875000
   5.4000000000000020E-003    -16070.615234375000
   5.4999999999999979E-003    -15356.671875000000
   5.6000000000000008E-003    -14635.878906250000
   5.7000000000000037E-003    -13908.993164062500
   5.7999999999999996E-003    -13176.762695312500
   5.9000000000000025E-003    -12439.821289062500
   5.9999999999999984E-003    -11699.052734375000
   6.1000000000000013E-003    -10955.075195312500
   6.2000000000000041E-003    -10208.715820312500
   6.3000000000000000E-003    -9460.7539062500000
   6.4000000000000029E-003    -8711.9218750000000
   6.4999999999999988E-003    -7962.7807617187500
   6.6000000000000017E-003    -7214.1625976562500
   6.7000000000000046E-003    -6466.8720703125000
   6.8000000000000005E-003    -5721.6933593750000
   6.9000000000000034E-003    -4979.2636718750000
   6.9999999999999993E-003    -4240.3793945312500
   7.1000000000000021E-003    -3505.8115234375000
   7.1999999999999981E-003    -2776.2163085937500
   7.3000000000000009E-003    -2052.2751464843750
   7.4000000000000038E-003    -1334.9592285156250
   7.4999999999999997E-003    -624.69628906250000
   7.6000000000000026E-003     77.689926147460938
   7.6999999999999985E-003     771.63323974609375
   7.8000000000000014E-003     1456.3317871093750
   7.9000000000000042E-003     2131.2812500000000
   8.0000000000000002E-003     2795.8798828125000
   8.1000000000000030E-003     3449.5197753906250
   8.1999999999999990E-003     4091.7480468750000
   8.3000000000000018E-003     4721.9633789062500
   8.4000000000000047E-003     5339.7802734375000
   8.5000000000000006E-003     5944.6435546875000
   8.6000000000000035E-003     6536.1845703125000
   8.6999999999999994E-003     7114.0043945312500
   8.8000000000000023E-003     7677.7983398437500
   8.8999999999999982E-003     8227.1582031250000
   9.0000000000000011E-003     8761.7285156250000
   9.1000000000000039E-003     9281.3066406250000
   9.1999999999999998E-003     9785.5664062500000
   9.3000000000000027E-003     10274.239257812500
   9.3999999999999986E-003     10747.109375000000
   9.5000000000000015E-003     11203.979492187500
   9.6000000000000044E-003     11644.595703125000
   9.7000000000000003E-003     12068.792968750000
   9.8000000000000032E-003     12476.335937500000
   9.8999999999999991E-003     12867.102539062500
   1.0000000000000002E-002     13240.948242187500
   1.0100000000000005E-002     13597.682617187500
   1.0200000000000001E-002     13937.167968750000
   1.0300000000000004E-002     14259.322265625000
   1.0400000000000000E-002     14564.015625000000
   1.0500000000000002E-002     14851.190429687500
   1.0599999999999998E-002     15120.765625000000
   1.0700000000000001E-002     15372.746093750000
   1.0800000000000004E-002     15607.085937500000
   1.0900000000000000E-002     15823.778320312500
   1.1000000000000003E-002     16023.020507812500
   1.1099999999999999E-002     16204.621093750000
   1.1200000000000002E-002     16368.861328125000
   1.1300000000000004E-002     16515.810546875000
   1.1400000000000000E-002     16645.632812500000
   1.1500000000000003E-002     16758.462890625000
   1.1599999999999999E-002     16854.556640625000
   1.1700000000000002E-002     16934.058593750000
   1.1800000000000005E-002     16997.478515625000
   1.1900000000000001E-002     17044.714843750000
   1.2000000000000004E-002     17076.279296875000
   1.2100000000000000E-002     17092.488281250000
   1.2200000000000003E-002     17093.595703125000
   1.2299999999999998E-002     17079.931640625000
   1.2400000000000001E-002     17051.800781250000
   1.2500000000000004E-002     17009.601562500000
   1.2600000000000000E-002     16953.695312500000
   1.2700000000000003E-002     16884.501953125000
   1.2799999999999999E-002     16802.222656250000
   1.2900000000000002E-002     16707.185546875000
   1.3000000000000005E-002     16599.884765625000
   1.3100000000000001E-002     16480.566406250000
   1.3200000000000003E-002     16349.671875000000
   1.3299999999999999E-002     16207.436523437500
   1.3400000000000002E-002     16054.332031250000
   1.3500000000000005E-002     15890.677734375000
   1.3600000000000001E-002     15716.832031250000
   1.3700000000000004E-002     15533.014648437500
   1.3800000000000000E-002     15339.774414062500
   1.3900000000000003E-002     15137.515625000000
   1.3999999999999999E-002     14926.377929687500
   1.4100000000000001E-002     14706.897460937500
   1.4200000000000004E-002     14479.430664062500
   1.4300000000000000E-002     14244.461914062500
   1.4400000000000003E-002     14002.346679687500
   1.4499999999999999E-002     13753.486328125000
   1.4600000000000002E-002     13498.272460937500
   1.4700000000000005E-002     13237.157226562500
   1.4800000000000001E-002     12970.640625000000
   1.4900000000000004E-002     12699.112304687500
   1.4999999999999999E-002     12423.062500000000
   1.5100000000000002E-002     12142.861328125000
   1.5200000000000005E-002     11859.066406250000
   1.5300000000000001E-002     11572.013671875000
   1.5400000000000004E-002     11282.069335937500
   1.5500000000000000E-002     10989.747070312500
   1.5600000000000003E-002     10695.448242187500
   1.5699999999999999E-002     10399.584960937500
   1.5800000000000002E-002     10102.411132812500
   1.5900000000000004E-002     9804.5087890625000
   1.6000000000000000E-002     9506.0000000000000
   1.6100000000000003E-002     9207.4423828125000
   1.6199999999999999E-002     8908.9521484375000
   1.6300000000000002E-002     8610.9628906250000
   1.6400000000000005E-002     8313.7294921875000
   1.6500000000000001E-002     8017.4824218750000
   1.6600000000000004E-002     7722.5400390625000
   1.6700000000000000E-002     7429.1264648437500
   1.6800000000000002E-002     7137.5126953125000
   1.6900000000000005E-002     6847.8105468750000
   1.7000000000000001E-002     6560.4033203125000
   1.7100000000000004E-002     6275.4799804687500
   1.7200000000000000E-002     5993.1323242187500
   1.7300000000000003E-002     5713.7182617187500
   1.7399999999999999E-002     5437.3496093750000
   1.7500000000000002E-002     5164.4409179687500
   1.7600000000000005E-002     4894.9121093750000
   1.7700000000000000E-002     4629.2011718750000
   1.7800000000000003E-002     4367.3222656250000
   1.7899999999999999E-002     4109.6171875000000
   1.8000000000000002E-002     3856.1704101562500
   1.8100000000000005E-002     3607.2189941406250
   1.8200000000000001E-002     3363.0043945312500
   1.8300000000000004E-002     3123.6516113281250
   1.8400000000000000E-002     2889.2453613281250
   1.8500000000000003E-002     2660.0224609375000
   1.8600000000000005E-002     2436.0878906250000
   1.8700000000000001E-002     2217.6655273437500
   1.8800000000000004E-002     2004.7834472656250
   1.8900000000000000E-002     1797.4632568359375
   1.9000000000000003E-002     1595.9451904296875
   1.9099999999999999E-002     1400.1082763671875
   1.9200000000000002E-002     1210.1447753906250
   1.9300000000000005E-002     1026.0594482421875
   1.9400000000000001E-002     847.83526611328125
   1.9500000000000003E-002     675.49493408203125
   1.9599999999999999E-002     508.93954467773438
   1.9700000000000002E-002     348.16012573242188
   1.9800000000000005E-002     193.23043823242188
   1.9900000000000001E-002     44.001251220703125