 -0.12000000000000000          0.0000000000000000
 -0.11889999999999999          0.0000000000000000
 -0.11780000000000000         -2.8803398555155013E-010
 -0.11670000000000000         -3.7413219744486526E-010
 -0.11559999999999999          3.5014199872840379E-010
 -0.11449999999999999          9.4073016043694224E-010
 -0.11340000000000000          9.4344115852962318E-011
 -0.11230000000000000         -1.0913596693029604E-009
 -0.11119999999999999         -5.3994986259908728E-010
 -0.11009999999999999          4.0800493539272509E-010
 -0.10900000000000000         -1.7057470991233004E-009
 -0.10790000000000000         -5.1608428641713999E-009
 -0.10679999999999999         -2.5409692128164352E-009
 -0.10569999999999999          7.8289570382139573E-009
 -0.10460000000000000          1.4875282339232854E-008
 -0.10349999999999999          7.4609003419823239E-009
 -0.10239999999999999         -7.8669248892992982E-009
 -0.10130000000000000         -1.2319265607629859E-008
 -0.10020000000000000         -5.1220550023600708E-010
  -9.9099999999999994E-002     1.0257106275446404E-008
  -9.7999999999999990E-002     3.9317074040923217E-009
  -9.6899999999999986E-002    -1.0295767793877530E-008
  -9.5799999999999996E-002    -1.0654859217140711E-008
  -9.4699999999999993E-002     4.9943840174648813E-009
  -9.3599999999999989E-002     1.5762308791522628E-008
  -9.2499999999999999E-002     8.8267295694777204E-009
  -9.1399999999999995E-002    -2.6693793842014202E-009
  -9.0299999999999991E-002    -2.5358370958628029E-009
  -8.9200000000000002E-002     1.5048964296937584E-009
  -8.8099999999999984E-002    -9.5547330047907053E-009
  -8.6999999999999994E-002    -3.3973734048231563E-008
  -8.5899999999999990E-002    -5.0857028810469274E-008
  -8.4799999999999986E-002    -5.4565401086392740E-008
  -8.3699999999999997E-002    -6.5483426681112178E-008
  -8.2599999999999993E-002    -9.6673907989952568E-008
  -8.1499999999999989E-002    -1.2998593490465282E-007
  -8.0399999999999999E-002    -1.4490673549971689E-007
  -7.9299999999999995E-002    -1.5748329929010652E-007
  -7.8199999999999992E-002    -2.0287106394789589E-007
  -7.7100000000000002E-002    -2.8165894150333770E-007
  -7.5999999999999984E-002    -3.5502839068612957E-007
  -7.4899999999999994E-002    -4.0535437051403278E-007
  -7.3799999999999991E-002    -4.7338815534203604E-007
  -7.2699999999999987E-002    -6.0896365994267398E-007
  -7.1599999999999997E-002    -8.0216415199174662E-007
  -7.0499999999999993E-002    -9.9893975402665092E-007
  -6.9399999999999989E-002    -1.1834146107503329E-006
  -6.8300000000000000E-002    -1.4076381376071367E-006
  -6.7199999999999996E-002    -1.7256301134693786E-006
  -6.6099999999999992E-002    -2.1305777408997528E-006
  -6.5000000000000002E-002    -2.5860899768304080E-006
  -6.3899999999999985E-002    -3.0978669656178681E-006
  -6.2799999999999995E-002    -3.7148813589737983E-006
  -6.1699999999999991E-002    -4.4658031583821867E-006
  -6.0599999999999994E-002    -5.3392168410937302E-006
  -5.9499999999999990E-002    -6.3407492234546226E-006
  -5.8399999999999994E-002    -7.5280295277480036E-006
  -5.7299999999999990E-002    -8.9556378952693194E-006
  -5.6199999999999986E-002    -1.0613653103064280E-005
  -5.5099999999999996E-002    -1.2469113244151231E-005
  -5.3999999999999992E-002    -1.4561912394128740E-005
  -5.2899999999999989E-002    -1.7006786947604269E-005
  -5.1799999999999985E-002    -1.9883862478309311E-005
  -5.0699999999999995E-002    -2.3173888621386141E-005
  -4.9599999999999991E-002    -2.6839263227884658E-005
  -4.8499999999999988E-002    -3.0936844268580899E-005
  -4.7399999999999998E-002    -3.5597324313130230E-005
  -4.6299999999999994E-002    -4.0901817556004971E-005
  -4.5199999999999990E-002    -4.6839446440571919E-005
  -4.4099999999999986E-002    -5.3402603953145444E-005
  -4.2999999999999997E-002    -6.0669695812975988E-005
  -4.1899999999999993E-002    -6.8749170168302953E-005
  -4.0799999999999989E-002    -7.7678771049249917E-005
  -3.9699999999999985E-002    -8.7438995251432061E-005
  -3.8599999999999995E-002    -9.8054748377762735E-005
  -3.7499999999999992E-002    -1.0961816587951034E-004
  -3.6399999999999988E-002    -1.2218939082231373E-004
  -3.5299999999999984E-002    -1.3572994794230908E-004
  -3.4199999999999994E-002    -1.5017815167084336E-004
  -3.3099999999999991E-002    -1.6554999456275254E-004
  -3.1999999999999987E-002    -1.8190126866102219E-004
  -3.0899999999999997E-002    -1.9920030899811536E-004
  -2.9799999999999993E-002    -2.1730408479925245E-004
  -2.8699999999999989E-002    -2.3608269111718982E-004
  -2.7599999999999986E-002    -2.5549551355652511E-004
  -2.6499999999999996E-002    -2.7550020604394376E-004
  -2.5399999999999992E-002    -2.9592114151455462E-004
  -2.4299999999999988E-002    -3.1648436561226845E-004
  -2.3199999999999985E-002    -3.3696260652504861E-004
  -2.2099999999999995E-002    -3.5721409949474037E-004
  -2.0999999999999991E-002    -3.7705575232394040E-004
  -1.9899999999999987E-002    -3.9616279536858201E-004
  -1.8799999999999983E-002    -4.1414322913624346E-004
  -1.7699999999999994E-002    -4.3067467049695551E-004
  -1.6599999999999990E-002    -4.4549602898769081E-004
  -1.5499999999999986E-002    -4.5828209840692580E-004
  -1.4399999999999996E-002    -4.6860115253366530E-004
  -1.3299999999999992E-002    -4.7602527774870396E-004
  -1.2199999999999989E-002    -4.8021960537880659E-004
  -1.1099999999999985E-002    -4.8088069888763130E-004
  -9.9999999999999950E-003    -4.7762310714460909E-004
  -8.8999999999999913E-003    -4.7001699567772448E-004
  -7.7999999999999875E-003    -4.5772257726639509E-004
  -6.6999999999999837E-003    -4.4053606688976288E-004
  -5.5999999999999939E-003    -4.1826991946436465E-004
  -4.4999999999999901E-003    -3.9066310273483396E-004
  -3.3999999999999864E-003    -3.5747786751016974E-004
  -2.2999999999999826E-003    -3.1863368349149823E-004
  -1.1999999999999927E-003    -2.7419894468039274E-004
  -9.9999999999988987E-005    -2.2426793293561786E-004
   1.0000000000000148E-003    -1.6890652477741241E-004
   2.1000000000000185E-003    -1.0826219659065828E-004
   3.2000000000000084E-003    -4.2665356886573136E-005
   4.3000000000000121E-003     2.7421854611020535E-005
   5.4000000000000159E-003     1.0153241601074114E-004
   6.5000000000000058E-003     1.7919542733579874E-004
   7.6000000000000234E-003     2.5981754879467189E-004
   8.7000000000000133E-003     3.4262906410731375E-004
   9.8000000000000032E-003     4.2678721365518868E-004
   1.0900000000000021E-002     5.1148975035175681E-004
   1.2000000000000011E-002     5.9593701735138893E-004
   1.3100000000000001E-002     6.7922455491498113E-004
   1.4200000000000018E-002     7.6034164521843195E-004
   1.5300000000000008E-002     8.3828886272385716E-004
   1.6400000000000026E-002     9.1215432621538639E-004
   1.7500000000000016E-002     9.8105589859187603E-004
   1.8600000000000005E-002     1.0440722107887268E-003
   1.9700000000000023E-002     1.1002919636666775E-003
   2.0800000000000013E-002     1.1489290045574307E-003
   2.1900000000000003E-002     1.1893297778442502E-003
   2.3000000000000020E-002     1.2208929983898997E-003
   2.4100000000000010E-002     1.2430390343070030E-003
   2.5200000000000000E-002     1.2553018750622869E-003
   2.6300000000000018E-002     1.2574207503348589E-003
   2.7400000000000008E-002     1.2493055546656251E-003
   2.8500000000000025E-002     1.2309406884014606E-003
   2.9600000000000015E-002     1.2023741146549582E-003
   3.0700000000000005E-002     1.1637986171990633E-003
   3.1800000000000023E-002     1.1156063992530107E-003
   3.2900000000000013E-002     1.0583361145108938E-003
   3.4000000000000002E-002     9.9259929265826941E-004
   3.5100000000000020E-002     9.1908394824713469E-004
   3.6200000000000010E-002     8.3860888844355941E-004
   3.7300000000000028E-002     7.5210828799754381E-004
   3.8400000000000017E-002     6.6056451760232449E-004
   3.9500000000000007E-002     5.6498014600947499E-004
   4.0600000000000025E-002     4.6639324864372611E-004
   4.1700000000000015E-002     3.6591704702004790E-004
   4.2800000000000005E-002     2.6468525175005198E-004
   4.3900000000000022E-002     1.6379199223592877E-004
   4.5000000000000012E-002     6.4266634581144899E-005
   4.6100000000000002E-002    -3.2908184948610142E-005
   4.7200000000000020E-002    -1.2678251368924975E-004
   4.8300000000000010E-002    -2.1645054221153259E-004
   4.9400000000000027E-002    -3.0110173975117505E-004
   5.0500000000000017E-002    -3.8002282963134348E-004
   5.1600000000000007E-002    -4.5260935439728200E-004
   5.2700000000000025E-002    -5.1836628699675202E-004
   5.3800000000000014E-002    -5.7690794346854091E-004
   5.4900000000000004E-002    -6.2794785480946302E-004
   5.6000000000000022E-002    -6.7130278330296278E-004
   5.7100000000000012E-002    -7.0689525455236435E-004
   5.8200000000000002E-002    -7.3475431418046355E-004
   5.9300000000000019E-002    -7.5500842649489641E-004
   6.0400000000000009E-002    -7.6787784928455949E-004
   6.1500000000000027E-002    -7.7367387712001801E-004
   6.2600000000000017E-002    -7.7278335811570287E-004
   6.3700000000000007E-002    -7.6564669143408537E-004
   6.4800000000000024E-002    -7.5273076072335243E-004
   6.5900000000000014E-002    -7.3453987715765834E-004
   6.7000000000000004E-002    -7.1163871325552464E-004
   6.8100000000000022E-002    -6.8464223295450211E-004
   6.9200000000000012E-002    -6.5415992867201567E-004
   7.0300000000000029E-002    -6.2075856840237975E-004
   7.1400000000000019E-002    -5.8498705038800836E-004
   7.2500000000000009E-002    -5.4741598432883620E-004
   7.3600000000000027E-002    -5.0862238276749849E-004
   7.4700000000000016E-002    -4.6912490506656468E-004
   7.5800000000000006E-002    -4.2936598765663803E-004
   7.6900000000000024E-002    -3.8976175710558891E-004
   7.8000000000000014E-002    -3.5074204788543284E-004
   7.9100000000000004E-002    -3.1270101317204535E-004
   8.0200000000000021E-002    -2.7592713013291359E-004
   8.1300000000000011E-002    -2.4061932344920933E-004
   8.2400000000000029E-002    -2.0697699801530689E-004
   8.3500000000000019E-002    -1.7523144197184592E-004
   8.4600000000000009E-002    -1.4556336100213230E-004
   8.5700000000000026E-002    -1.1803226516349241E-004
   8.6800000000000016E-002    -9.2629517894238234E-005
   8.7900000000000006E-002    -6.9375688326545060E-005
   8.9000000000000024E-002    -4.8320103815058246E-005
   9.0100000000000013E-002    -2.9449631256284192E-005
   9.1200000000000003E-002    -1.2655779755732510E-005
   9.2300000000000021E-002     2.1796074634039542E-006
   9.3400000000000011E-002     1.5105081729416270E-005
   9.4500000000000028E-002     2.6161664209212177E-005
   9.5600000000000018E-002     3.5486267734086141E-005
   9.6700000000000008E-002     4.3289775931043550E-005
   9.7800000000000026E-002     4.9723254051059484E-005
   9.8900000000000016E-002     5.4830088629387319E-005
  0.10000000000000001          5.8662335504777730E-005
  0.10110000000000002          6.1390426708385348E-005
  0.10220000000000001          6.3233033870346844E-005
  0.10330000000000003          6.4312400354538113E-005
  0.10440000000000002          6.4646439568605274E-005
  0.10550000000000001          6.4293250034097582E-005
  0.10660000000000003          6.3417937781196088E-005
  0.10770000000000002          6.2180464738048613E-005
  0.10880000000000001          6.0618807765422389E-005
  0.10990000000000003          5.8712750615086406E-005
  0.11100000000000002          5.6531505833845586E-005
  0.11210000000000001          5.4235631978372112E-005
  0.11320000000000002          5.1919003453804180E-005
  0.11430000000000001          4.9535719881532714E-005
  0.11540000000000003          4.7031331632751971E-005
  0.11650000000000002          4.4482556404545903E-005
  0.11760000000000001          4.2031711927847937E-005
  0.11870000000000003          3.9712223951937631E-005
  0.11980000000000002          3.7433241232065484E-005
  0.12090000000000001          3.5147168091498315E-005
  0.12200000000000003          3.2941909012151882E-005
  0.12310000000000001          3.0916118703316897E-005
  0.12420000000000003          2.9033524697297253E-005
  0.12530000000000002          2.7184980353922583E-005
  0.12640000000000001          2.5366514819324948E-005
  0.12750000000000003          2.3693291950621642E-005
  0.12860000000000002          2.2222468032850884E-005
  0.12970000000000001          2.0857667550444603E-005
  0.13080000000000003          1.9486564269755036E-005
  0.13190000000000002          1.8146953152609058E-005
  0.13300000000000001          1.6965319446171634E-005
  0.13410000000000000          1.5960078599164262E-005
  0.13520000000000004          1.5008942682470661E-005
  0.13630000000000003          1.4029395060788374E-005
  0.13740000000000002          1.3094582755002193E-005
  0.13850000000000001          1.2309291378187481E-005
  0.13960000000000000          1.1640304364846088E-005
  0.14070000000000005          1.0963570275634993E-005
  0.14180000000000004          1.0252747415506747E-005
  0.14290000000000003          9.6156509243883193E-006
  0.14400000000000002          9.1203019110253081E-006
  0.14510000000000001          8.6818781710462645E-006
  0.14620000000000000          8.1865118772839196E-006
  0.14730000000000004          7.6626065492746420E-006
  0.14840000000000003          7.2335528784606140E-006
  0.14950000000000002          6.9245120357663836E-006
  0.15060000000000001          6.6212533056386746E-006
  0.15170000000000000          6.2425760916084982E-006
  0.15280000000000005          5.8611026361177210E-006
  0.15390000000000004          5.5866762522782665E-006
  0.15500000000000003          5.3931257752992678E-006
  0.15610000000000002          5.1567772061389405E-006
  0.15720000000000001          4.8461361075169407E-006
  0.15830000000000000          4.5690931074204855E-006
  0.15940000000000004          4.4055605030735023E-006
  0.16050000000000003          4.2832921280933078E-006
  0.16160000000000002          4.0868853830033913E-006
  0.16270000000000001          3.8314669836836401E-006
  0.16380000000000000          3.6358296711114235E-006
  0.16490000000000005          3.5395019040151965E-006
  0.16600000000000004          3.4449992654117523E-006
  0.16710000000000003          3.2698178529244615E-006
  0.16820000000000002          3.0701899049745407E-006
  0.16930000000000001          2.9486670882761246E-006
  0.17040000000000000          2.8937997740285937E-006
  0.17150000000000004          2.8001700229651760E-006
  0.17260000000000003          2.6340794647694565E-006
  0.17370000000000002          2.4852695332810981E-006
  0.17480000000000001          2.4262221813842189E-006
  0.17590000000000000          2.3986056021385593E-006
  0.17700000000000005          2.3023594621918164E-006
  0.17810000000000004          2.1487719550350448E-006
  0.17920000000000003          2.0421261979208793E-006
  0.18030000000000002          2.0199872778903227E-006
  0.18140000000000001          1.9978001546405721E-006
  0.18250000000000000          1.8996931885340018E-006
  0.18360000000000004          1.7718612070893869E-006
  0.18470000000000003          1.7076262111004326E-006
  0.18580000000000002          1.7046805851350655E-006
  0.18690000000000001          1.6726725107218954E-006
  0.18800000000000000          1.5739856280561071E-006
  0.18910000000000005          1.4782687003389583E-006
  0.19020000000000004          1.4513360611090320E-006
  0.19130000000000003          1.4542082453772309E-006
  0.19240000000000002          1.4061926094655064E-006
  0.19350000000000001          1.3097904911774094E-006
  0.19460000000000005          1.2441180388123030E-006
  0.19570000000000004          1.2416383015079191E-006
  0.19680000000000003          1.2400957984937122E-006
  0.19790000000000002          1.1806321253970964E-006
  0.19900000000000001          1.0971723440889036E-006
  0.20010000000000000          1.0613798622216564E-006
  0.20120000000000005          1.0721871603891486E-006
  0.20230000000000004          1.0601362419038196E-006
  0.20340000000000003          9.9498288363975007E-007
  0.20450000000000002          9.2911255933358916E-007
  0.20560000000000000          9.1438613480931963E-007
  0.20670000000000005          9.2433748477560584E-007
  0.20780000000000004          8.9902016497944715E-007
  0.20890000000000003          8.3794844840667793E-007
