 -0.12000000000000000          0.0000000000000000
 -0.11889999999999999          0.0000000000000000
 -0.11780000000000000          0.0000000000000000
 -0.11670000000000000          0.0000000000000000
 -0.11559999999999999          0.0000000000000000
 -0.11449999999999999          0.0000000000000000
 -0.11340000000000000         -1.0370384665327475E-019
 -0.11230000000000000         -4.6409876227256865E-020
 -0.11119999999999999          8.2720873669385448E-019
 -0.11009999999999999          8.0862064416129255E-019
 -0.10900000000000000         -2.4883418826797283E-018
 -0.10790000000000000         -2.5798952668528631E-018
 -0.10679999999999999          4.4458120695224181E-018
 -0.10569999999999999         -8.2915616800998807E-018
 -0.10460000000000000         -4.1711786762958298E-017
 -0.10349999999999999          3.4793565756919995E-017
 -0.10239999999999999          2.8669140353912079E-016
 -0.10130000000000000          2.5638882632087780E-016
 -0.10020000000000000         -6.8406137298284960E-016
  -9.9099999999999994E-002    -1.7783003564977255E-015
  -9.7999999999999990E-002    -6.4952429277282515E-016
  -9.6899999999999986E-002     3.2767266276625268E-015
  -9.5799999999999996E-002     5.7871666883830847E-015
  -9.4699999999999993E-002     2.2170075190009342E-015
  -9.3599999999999989E-002    -5.0691211888860901E-015
  -9.2499999999999999E-002    -9.9055149933163777E-015
  -9.1399999999999995E-002    -1.3656558048584684E-014
  -9.0299999999999991E-002    -1.9275605214080262E-014
  -8.9200000000000002E-002    -7.1703405745467824E-015
  -8.8099999999999984E-002     5.4147770387489094E-014
  -8.6999999999999994E-002     1.3642902183409050E-013
  -8.5899999999999990E-002     1.1752883009256282E-013
  -8.4799999999999986E-002    -9.3426256856689316E-014
  -8.3699999999999997E-002    -3.7053053767582833E-013
  -8.2599999999999993E-002    -4.1808887623652480E-013
  -8.1499999999999989E-002    -1.0171629706047514E-013
  -8.0399999999999999E-002     3.5628252193116439E-013
  -7.9299999999999995E-002     6.6288993608512592E-013
  -7.8199999999999992E-002     8.2279506558730064E-013
  -7.7100000000000002E-002     9.0005449924698833E-013
  -7.5999999999999984E-002     4.4932590634316760E-013
  -7.4899999999999994E-002    -1.1745848434510653E-012
  -7.3799999999999991E-002    -3.4557812340907379E-012
  -7.2699999999999987E-002    -4.2359757194965209E-012
  -7.1599999999999997E-002    -1.7172210918861563E-012
  -7.0499999999999993E-002     2.9525605051150539E-012
  -6.9399999999999989E-002     6.3249323313530059E-012
  -6.8300000000000000E-002     6.5535025323137930E-012
  -6.7199999999999996E-002     5.3395486816765203E-012
  -6.6099999999999992E-002     4.4603713084123697E-012
  -6.5000000000000002E-002     1.5831729373652625E-012
  -6.3899999999999985E-002    -7.2067703367484359E-012
  -6.2799999999999995E-002    -1.9912897719631673E-011
  -6.1699999999999991E-002    -2.7178318623422015E-011
  -6.0599999999999994E-002    -2.1546920497828026E-011
  -5.9499999999999990E-002    -6.1065978662622200E-012
  -5.8399999999999994E-002     1.0584761366005946E-011
  -5.7299999999999990E-002     2.7202171071216696E-011
  -5.6199999999999986E-002     5.0020990821630917E-011
  -5.5099999999999996E-002     7.6652982572422701E-011
  -5.3999999999999992E-002     8.5816118100545680E-011
  -5.2899999999999989E-002     5.3101446850778444E-011
  -5.1799999999999985E-002    -2.2090558549070494E-011
  -5.0699999999999995E-002    -1.1234477237387352E-010
  -4.9599999999999991E-002    -1.8649713717788785E-010
  -4.8499999999999988E-002    -2.2949625533286167E-010
  -4.7399999999999998E-002    -2.3298921125736172E-010
  -4.6299999999999994E-002    -1.7724297030063951E-010
  -4.5199999999999990E-002    -3.9997807149694253E-011
  -4.4099999999999986E-002     1.7328639911884380E-010
  -4.2999999999999997E-002     4.1959899443888560E-010
  -4.1899999999999993E-002     6.4424504619964296E-010
  -4.0799999999999989E-002     8.0668832724839490E-010
  -3.9699999999999985E-002     8.7561646822109651E-010
  -3.8599999999999995E-002     8.1776507787623132E-010
  -3.7499999999999992E-002     6.2022365021618953E-010
  -3.6399999999999988E-002     3.2891844803373260E-010
  -3.5299999999999984E-002     4.5455552516449060E-011
  -3.4199999999999994E-002    -1.2487523515236632E-010
  -3.3099999999999991E-002    -1.0976099890092073E-010
  -3.1999999999999987E-002     1.4637492606883740E-010
  -3.0899999999999997E-002     6.9391509205374291E-010
  -2.9799999999999993E-002     1.5184199453344149E-009
  -2.8699999999999989E-002     2.4584017044304574E-009
  -2.7599999999999986E-002     3.2189666487880686E-009
  -2.6499999999999996E-002     3.4918123947846880E-009
  -2.5399999999999992E-002     3.0425113539678250E-009
  -2.4299999999999988E-002     1.6652297318842102E-009
  -2.3199999999999985E-002    -8.9583496176715016E-010
  -2.2099999999999995E-002    -4.8898360915927697E-009
  -2.0999999999999991E-002    -1.0389102023111718E-008
  -1.9899999999999987E-002    -1.7221799097910662E-008
  -1.8799999999999983E-002    -2.5130848513299497E-008
  -1.7699999999999994E-002    -3.4010277261131705E-008
  -1.6599999999999990E-002    -4.3996138288093789E-008
  -1.5499999999999986E-002    -5.5407486598824107E-008
  -1.4399999999999996E-002    -6.8721050183739862E-008
  -1.3299999999999992E-002    -8.4656129217819398E-008
  -1.2199999999999989E-002    -1.0424456320379250E-007
  -1.1099999999999985E-002    -1.2877325161753106E-007
  -9.9999999999999950E-003    -1.5969079925071128E-007
  -8.8999999999999913E-003    -1.9860701172547124E-007
  -7.7999999999999875E-003    -2.4732432279961358E-007
  -6.6999999999999837E-003    -3.0777553661209822E-007
  -5.5999999999999939E-003    -3.8194360740817501E-007
  -4.4999999999999901E-003    -4.7200117592183233E-007
  -3.3999999999999864E-003    -5.8066473229700932E-007
  -2.2999999999999826E-003    -7.1144154389912728E-007
  -1.1999999999999927E-003    -8.6851849800950731E-007
  -9.9999999999988987E-005    -1.0565523780314834E-006
   1.0000000000000148E-003    -1.2807668099412695E-006
   2.1000000000000185E-003    -1.5473519852093887E-006
   3.2000000000000084E-003    -1.8637198309079395E-006
   4.3000000000000121E-003    -2.2382841962098610E-006
   5.4000000000000159E-003    -2.6801360490935622E-006
   6.5000000000000058E-003    -3.1991380637919065E-006
   7.6000000000000234E-003    -3.8063881220296025E-006
   8.7000000000000133E-003    -4.5144952309783548E-006
   9.8000000000000032E-003    -5.3374328672362026E-006
   1.0900000000000021E-002    -6.2903040998207871E-006
   1.2000000000000011E-002    -7.3894098022719845E-006
   1.3100000000000001E-002    -8.6525196820730343E-006
   1.4200000000000018E-002    -1.0098979146277998E-005
   1.5300000000000008E-002    -1.1749670193239581E-005
   1.6400000000000026E-002    -1.3626872714667115E-005
   1.7500000000000016E-002    -1.5754314517835155E-005
   1.8600000000000005E-002    -1.8156744772568345E-005
   1.9700000000000023E-002    -2.0859433789155446E-005
   2.0800000000000013E-002    -2.3887818315415643E-005
   2.1900000000000003E-002    -2.7267549739917740E-005
   2.3000000000000020E-002    -3.1024461350170895E-005
   2.4100000000000010E-002    -3.5183715226594359E-005
   2.5200000000000000E-002    -3.9768863643985242E-005
   2.6300000000000018E-002    -4.4801279727835208E-005
   2.7400000000000008E-002    -5.0299888243898749E-005
   2.8500000000000025E-002    -5.6281394790858030E-005
   2.9600000000000015E-002    -6.2758961576037109E-005
   3.0700000000000005E-002    -6.9740875915158540E-005
   3.1800000000000023E-002    -7.7229655289556831E-005
   3.2900000000000013E-002    -8.5220483015291393E-005
   3.4000000000000002E-002    -9.3700233264826238E-005
   3.5100000000000020E-002    -1.0264713637297973E-004
   3.6200000000000010E-002    -1.1202993482584134E-004
   3.7300000000000028E-002    -1.2180601333966479E-004
   3.8400000000000017E-002    -1.3192128972150385E-004
   3.9500000000000007E-002    -1.4230965462047607E-004
   4.0600000000000025E-002    -1.5289243310689926E-004
   4.1700000000000015E-002    -1.6357626009266824E-004
   4.2800000000000005E-002    -1.7425451369490474E-004
   4.3900000000000022E-002    -1.8480615108273923E-004
   4.5000000000000012E-002    -1.9509714911691844E-004
   4.6100000000000002E-002    -2.0498032972682267E-004
   4.7200000000000020E-002    -2.1429451589938253E-004
   4.8300000000000010E-002    -2.2286687453743070E-004
   4.9400000000000027E-002    -2.3051138850860298E-004
   5.0500000000000017E-002    -2.3703582701273263E-004
   5.1600000000000007E-002    -2.4224097433034331E-004
   5.2700000000000025E-002    -2.4592442787252367E-004
   5.3800000000000014E-002    -2.4788427981548011E-004
   5.4900000000000004E-002    -2.4791658506728709E-004
   5.6000000000000022E-002    -2.4582081823609769E-004
   5.7100000000000012E-002    -2.4140809546224773E-004
   5.8200000000000002E-002    -2.3450312437489629E-004
   5.9300000000000019E-002    -2.2494947188533843E-004
   6.0400000000000009E-002    -2.1261107758618891E-004
   6.1500000000000027E-002    -1.9737474212888628E-004
   6.2600000000000017E-002    -1.7915455100592226E-004
   6.3700000000000007E-002    -1.5790054749231786E-004
   6.4800000000000024E-002    -1.3359980948735029E-004
   6.5900000000000014E-002    -1.0627997835399583E-004
   6.7000000000000004E-002    -7.6012795034330338E-005
   6.8100000000000022E-002    -4.2913463403237984E-005
   6.9200000000000012E-002    -7.1413828663935419E-006
   7.0300000000000029E-002     3.1098945328267291E-005
   7.1400000000000019E-002     7.1552065492141992E-005
   7.2500000000000009E-002     1.1391344014555216E-004
   7.3600000000000027E-002     1.5783362323418260E-004
   7.4700000000000016E-002     2.0292369299568236E-004
   7.5800000000000006E-002     2.4876187671907246E-004
   7.6900000000000024E-002     2.9489153530448675E-004
   7.8000000000000014E-002     3.4082549973390996E-004
   7.9100000000000004E-002     3.8604912697337568E-004
   8.0200000000000021E-002     4.3003645259886980E-004
   8.1300000000000011E-002     4.7225708840414882E-004
   8.2400000000000029E-002     5.1218527369201183E-004
   8.3500000000000019E-002     5.4929923499003053E-004
   8.4600000000000009E-002     5.8309198357164860E-004
   8.5700000000000026E-002     6.1308237491175532E-004
   8.6800000000000016E-002     6.3882558606564999E-004
   8.7900000000000006E-002     6.5992114832624793E-004
   8.9000000000000024E-002     6.7602016497403383E-004
   9.0100000000000013E-002     6.8683165591210127E-004
   9.1200000000000003E-002     6.9212558446452022E-004
   9.2300000000000021E-002     6.9173786323517561E-004
   9.3400000000000011E-002     6.8557047052308917E-004
   9.4500000000000028E-002     6.7360268440097570E-004
   9.5600000000000018E-002     6.5589626319706440E-004
   9.6700000000000008E-002     6.3259573653340340E-004
   9.7800000000000026E-002     6.0391478473320603E-004
   9.8900000000000016E-002     5.7012343313544989E-004
  0.10000000000000001          5.3156283684074879E-004
  0.10110000000000002          4.8864382551982999E-004
  0.10220000000000001          4.4184256694279611E-004
  0.10330000000000003          3.9168569492176175E-004
  0.10440000000000002          3.3873078064061701E-004
  0.10550000000000001          2.8356295661069453E-004
  0.10660000000000003          2.2678587993141264E-004
  0.10770000000000002          1.6902539937291294E-004
  0.10880000000000001          1.1091273336205631E-004
  0.10990000000000003          5.3083687816979364E-005
  0.11100000000000002         -3.8557582229259424E-006
  0.11210000000000001         -5.9324422181816772E-005
  0.11320000000000002         -1.1278272722847760E-004
  0.11430000000000001         -1.6372904065065086E-004
  0.11540000000000003         -2.1169874526094645E-004
  0.11650000000000002         -2.5627051945775747E-004
  0.11760000000000001         -2.9708765214309096E-004
  0.11870000000000003         -3.3386336872354150E-004
  0.11980000000000002         -3.6638416349887848E-004
  0.12090000000000001         -3.9449500036425889E-004
  0.12200000000000003         -4.1808874811977148E-004
  0.12310000000000001         -4.3711555190384388E-004
  0.12420000000000003         -4.5159505680203438E-004
  0.12530000000000002         -4.6161341015249491E-004
  0.12640000000000001         -4.6731441398151219E-004
  0.12750000000000003         -4.6887787175364792E-004
  0.12860000000000002         -4.6652444871142507E-004
  0.12970000000000001         -4.6051107347011566E-004
  0.13080000000000003         -4.5112639782018960E-004
  0.13190000000000002         -4.3868416105397046E-004
  0.13300000000000001         -4.2351990123279393E-004
  0.13410000000000000         -4.0598484338261187E-004
  0.13520000000000004         -3.8643530569970608E-004
  0.13630000000000003         -3.6521948641166091E-004
  0.13740000000000002         -3.4267452429048717E-004
  0.13850000000000001         -3.1913368729874492E-004
  0.13960000000000000         -2.9492875910364091E-004
  0.14070000000000005         -2.7037615654990077E-004
  0.14180000000000004         -2.4575908901169896E-004
  0.14290000000000003         -2.2132572485134006E-004
  0.14400000000000002         -1.9730383064597845E-004
  0.14510000000000001         -1.7391012806911021E-004
  0.14620000000000000         -1.5133830311242491E-004
  0.14730000000000004         -1.2974346464034170E-004
  0.14840000000000003         -1.0924431262537837E-004
  0.14950000000000002         -8.9936555013991892E-005
  0.15060000000000001         -7.1901420596987009E-005
  0.15170000000000000         -5.5199525377247483E-005
  0.15280000000000005         -3.9859540265752003E-005
  0.15390000000000004         -2.5885821742122062E-005
  0.15500000000000003         -1.3269606824906077E-005
  0.15610000000000002         -1.9914518816221971E-006
  0.15720000000000001          7.9857809396344237E-006
  0.15830000000000000          1.6716840036679059E-005
  0.15940000000000004          2.4264298190246336E-005
  0.16050000000000003          3.0688843253301457E-005
  0.16160000000000002          3.6057190300198272E-005
  0.16270000000000001          4.0449936932418495E-005
  0.16380000000000000          4.3954249122180045E-005
  0.16490000000000005          4.6650631702505052E-005
  0.16600000000000004          4.8609359510010108E-005
  0.16710000000000003          4.9902842874871567E-005
  0.16820000000000002          5.0614999054232612E-005
  0.16930000000000001          5.0830196414608508E-005
  0.17040000000000000          5.0614744395716116E-005
  0.17150000000000004          5.0019323680317029E-005
  0.17260000000000003          4.9097659939434379E-005
  0.17370000000000002          4.7915811592247337E-005
  0.17480000000000001          4.6537305024685338E-005
  0.17590000000000000          4.5003980631008744E-005
  0.17700000000000005          4.3340591219021007E-005
  0.17810000000000004          4.1576418880140409E-005
  0.17920000000000003          3.9752736483933404E-005
  0.18030000000000002          3.7909147067693993E-005
  0.18140000000000001          3.6068144254386425E-005
  0.18250000000000000          3.4239721571793780E-005
  0.18360000000000004          3.2437354093417525E-005
  0.18470000000000003          3.0678838811581954E-005
  0.18580000000000002          2.8975011446163990E-005
  0.18690000000000001          2.7328000214765780E-005
  0.18800000000000000          2.5743671358213760E-005
  0.18910000000000005          2.4236431272584014E-005
  0.19020000000000004          2.2815149350208230E-005
  0.19130000000000003          2.1469890270964243E-005
  0.19240000000000002          2.0184292225167155E-005
  0.19350000000000001          1.8958946384373121E-005
  0.19460000000000005          1.7812710211728700E-005
  0.19570000000000004          1.6757492630858906E-005
  0.19680000000000003          1.5779454770381562E-005
  0.19790000000000002          1.4854489563731477E-005
  0.19900000000000001          1.3975745787320193E-005
  0.20010000000000000          1.3155661690689158E-005
  0.20120000000000005          1.2402013453538530E-005
  0.20230000000000004          1.1704499229381327E-005
  0.20340000000000003          1.1048781743738800E-005
  0.20450000000000002          1.0434156138217077E-005
  0.20560000000000000          9.8673408501781523E-006
  0.20670000000000005          9.3442495199269615E-006
  0.20780000000000004          8.8506831161794253E-006
  0.20890000000000003          8.3813292803824879E-006
