 -0.12000000000000000          0.0000000000000000
 -0.11889999999999999          0.0000000000000000
 -0.11780000000000000          0.0000000000000000
 -0.11670000000000000          0.0000000000000000
 -0.11559999999999999          0.0000000000000000
 -0.11449999999999999          0.0000000000000000
 -0.11340000000000000         -1.0370384665327475E-019
 -0.11230000000000000         -4.6409876227256865E-020
 -0.11119999999999999          8.2720873669385448E-019
 -0.11009999999999999          8.0862064416129255E-019
 -0.10900000000000000         -2.4883418826797283E-018
 -0.10790000000000000         -2.5798952668528631E-018
 -0.10679999999999999          4.4458120695224181E-018
 -0.10569999999999999         -8.2915616800998807E-018
 -0.10460000000000000         -4.1711786762958298E-017
 -0.10349999999999999          3.4793565756919995E-017
 -0.10239999999999999          2.8669140353912079E-016
 -0.10130000000000000          2.5638882632087780E-016
 -0.10020000000000000         -6.8406137298284960E-016
  -9.9099999999999994E-002    -1.7783003564977255E-015
  -9.7999999999999990E-002    -6.4952429277282515E-016
  -9.6899999999999986E-002     3.2767266276625268E-015
  -9.5799999999999996E-002     5.7871666883830847E-015
  -9.4699999999999993E-002     2.2170075190009342E-015
  -9.3599999999999989E-002    -5.0691211888860901E-015
  -9.2499999999999999E-002    -9.9055149933163777E-015
  -9.1399999999999995E-002    -1.3656558048584684E-014
  -9.0299999999999991E-002    -1.9275605214080262E-014
  -8.9200000000000002E-002    -7.1703405745467824E-015
  -8.8099999999999984E-002     5.4147770387489094E-014
  -8.6999999999999994E-002     1.3642902183409050E-013
  -8.5899999999999990E-002     1.1752883009256282E-013
  -8.4799999999999986E-002    -9.3426256856689316E-014
  -8.3699999999999997E-002    -3.7053053767582833E-013
  -8.2599999999999993E-002    -4.1808887623652480E-013
  -8.1499999999999989E-002    -1.0171629706047514E-013
  -8.0399999999999999E-002     3.5628252193116439E-013
  -7.9299999999999995E-002     6.6288993608512592E-013
  -7.8199999999999992E-002     8.2279506558730064E-013
  -7.7100000000000002E-002     9.0005449924698833E-013
  -7.5999999999999984E-002     4.4932590634316760E-013
  -7.4899999999999994E-002    -1.1745848434510653E-012
  -7.3799999999999991E-002    -3.4557812340907379E-012
  -7.2699999999999987E-002    -4.2359757194965209E-012
  -7.1599999999999997E-002    -1.7172210918861563E-012
  -7.0499999999999993E-002     2.9525605051150539E-012
  -6.9399999999999989E-002     6.3249323313530059E-012
  -6.8300000000000000E-002     6.5535025323137930E-012
  -6.7199999999999996E-002     5.3395486816765203E-012
  -6.6099999999999992E-002     4.4603713084123697E-012
  -6.5000000000000002E-002     1.5831729373652625E-012
  -6.3899999999999985E-002    -7.2067703367484359E-012
  -6.2799999999999995E-002    -1.9912897719631673E-011
  -6.1699999999999991E-002    -2.7178318623422015E-011
  -6.0599999999999994E-002    -2.1546920497828026E-011
  -5.9499999999999990E-002    -6.1065978662622200E-012
  -5.8399999999999994E-002     1.0584761366005946E-011
  -5.7299999999999990E-002     2.7202171071216696E-011
  -5.6199999999999986E-002     5.0020990821630917E-011
  -5.5099999999999996E-002     7.6652982572422701E-011
  -5.3999999999999992E-002     8.5816118100545680E-011
  -5.2899999999999989E-002     5.3101446850778444E-011
  -5.1799999999999985E-002    -2.2090558549070494E-011
  -5.0699999999999995E-002    -1.1234477237387352E-010
  -4.9599999999999991E-002    -1.8649713717788785E-010
  -4.8499999999999988E-002    -2.2949625533286167E-010
  -4.7399999999999998E-002    -2.3298921125736172E-010
  -4.6299999999999994E-002    -1.7724297030063951E-010
  -4.5199999999999990E-002    -3.9997807149694253E-011
  -4.4099999999999986E-002     1.7328639911884380E-010
  -4.2999999999999997E-002     4.1959896668330998E-010
  -4.1899999999999993E-002     6.4424493517734049E-010
  -4.0799999999999989E-002     8.0668832724839490E-010
  -3.9699999999999985E-002     8.7561657924339897E-010
  -3.8599999999999995E-002     8.1776513338738255E-010
  -3.7499999999999992E-002     6.2022359470503829E-010
  -3.6399999999999988E-002     3.2891836476700576E-010
  -3.5299999999999984E-002     4.5455618435941147E-011
  -3.4199999999999994E-002    -1.2487524903015412E-010
  -3.3099999999999991E-002    -1.0976027031706082E-010
  -3.1999999999999987E-002     1.4637276113393938E-010
  -3.0899999999999997E-002     6.9391653534367492E-010
  -2.9799999999999993E-002     1.5184220547581617E-009
  -2.8699999999999989E-002     2.4584039248765066E-009
  -2.7599999999999986E-002     3.2189706455909572E-009
  -2.6499999999999996E-002     3.4918150593199471E-009
  -2.5399999999999992E-002     3.0425288954916141E-009
  -2.4299999999999988E-002     1.6652327294863767E-009
  -2.3199999999999985E-002    -8.9585011631143630E-010
  -2.2099999999999995E-002    -4.8898445292877568E-009
  -2.0999999999999991E-002    -1.0389110904895915E-008
  -1.9899999999999987E-002    -1.7221841730474807E-008
  -1.8799999999999983E-002    -2.5130891145863643E-008
  -1.7699999999999994E-002    -3.4010309235554814E-008
  -1.6599999999999990E-002    -4.3996102760957001E-008
  -1.5499999999999986E-002    -5.5407461729828356E-008
  -1.4399999999999996E-002    -6.8720865442628565E-008
  -1.3299999999999992E-002    -8.4656122112392040E-008
  -1.2199999999999989E-002    -1.0424464846892079E-007
  -1.1099999999999985E-002    -1.2877303845471033E-007
  -9.9999999999999950E-003    -1.5969087030498486E-007
  -8.8999999999999913E-003    -1.9860766542478814E-007
  -7.7999999999999875E-003    -2.4732460701670789E-007
  -6.6999999999999837E-003    -3.0777533766013221E-007
  -5.5999999999999939E-003    -3.8194352214304672E-007
  -4.4999999999999901E-003    -4.7200160224747378E-007
  -3.3999999999999864E-003    -5.8066450492333388E-007
  -2.2999999999999826E-003    -7.1144040703075007E-007
  -1.1999999999999927E-003    -8.6851861169634503E-007
  -9.9999999999988987E-005    -1.0565516959104571E-006
   1.0000000000000148E-003    -1.2807665825675940E-006
   2.1000000000000185E-003    -1.5473544863198185E-006
   3.2000000000000084E-003    -1.8637236962604220E-006
   4.3000000000000121E-003    -2.2382876068149926E-006
   5.4000000000000159E-003    -2.6801362764672376E-006
   6.5000000000000058E-003    -3.1991328341973713E-006
   7.6000000000000234E-003    -3.8063813008193392E-006
   8.7000000000000133E-003    -4.5144952309783548E-006
   9.8000000000000032E-003    -5.3374396884464659E-006
   1.0900000000000021E-002    -6.2903172874939628E-006
   1.2000000000000011E-002    -7.3894257184292655E-006
   1.3100000000000001E-002    -8.6525242295465432E-006
   1.4200000000000018E-002    -1.0098964594362769E-005
   1.5300000000000008E-002    -1.1749659279303160E-005
   1.6400000000000026E-002    -1.3626908184960485E-005
   1.7500000000000016E-002    -1.5754356354591437E-005
   1.8600000000000005E-002    -1.8156690202886239E-005
   1.9700000000000023E-002    -2.0859337382717058E-005
   2.0800000000000013E-002    -2.3887836505309679E-005
   2.1900000000000003E-002    -2.7267669793218374E-005
   2.3000000000000020E-002    -3.1024534109747037E-005
   2.4100000000000010E-002    -3.5183649742975831E-005
   2.5200000000000000E-002    -3.9768779970472679E-005
   2.6300000000000018E-002    -4.4801228796131909E-005
   2.7400000000000008E-002    -5.0299957365496084E-005
   2.8500000000000025E-002    -5.6281460274476558E-005
   2.9600000000000015E-002    -6.2758917920291424E-005
   3.0700000000000005E-002    -6.9740846811328083E-005
   3.1800000000000023E-002    -7.7229597081895918E-005
   3.2900000000000013E-002    -8.5220432083588094E-005
   3.4000000000000002E-002    -9.3700073193758726E-005
   3.5100000000000020E-002    -1.0264723823638633E-004
   3.6200000000000010E-002    -1.1203006579307839E-004
   3.7300000000000028E-002    -1.2180605699541047E-004
   3.8400000000000017E-002    -1.3192149344831705E-004
   3.9500000000000007E-002    -1.4230984379537404E-004
   4.0600000000000025E-002    -1.5289217117242515E-004
   4.1700000000000015E-002    -1.6357611457351595E-004
   4.2800000000000005E-002    -1.7425458645448089E-004
   4.3900000000000022E-002    -1.8480622384231538E-004
   4.5000000000000012E-002    -1.9509726553224027E-004
   4.6100000000000002E-002    -2.0498021331150085E-004
   4.7200000000000020E-002    -2.1429423941299319E-004
   4.8300000000000010E-002    -2.2286655439529568E-004
   4.9400000000000027E-002    -2.3051201424095780E-004
   5.0500000000000017E-002    -2.3703671467956156E-004
   5.1600000000000007E-002    -2.4224152730312198E-004
   5.2700000000000025E-002    -2.4592445697635412E-004
   5.3800000000000014E-002    -2.4788323207758367E-004
   5.4900000000000004E-002    -2.4791527539491653E-004
   5.6000000000000022E-002    -2.4582078913226724E-004
   5.7100000000000012E-002    -2.4140915775205940E-004
   5.8200000000000002E-002    -2.3450433218386024E-004
   5.9300000000000019E-002    -2.2495008306577802E-004
   6.0400000000000009E-002    -2.1261081565171480E-004
   6.1500000000000027E-002    -1.9737331604119390E-004
   6.2600000000000017E-002    -1.7915402713697404E-004
   6.3700000000000007E-002    -1.5790123143233359E-004
   6.4800000000000024E-002    -1.3360036246012896E-004
   6.5900000000000014E-002    -1.0627959272824228E-004
   6.7000000000000004E-002    -7.6011587225366384E-005
   6.8100000000000022E-002    -4.2912804929073900E-005
   6.9200000000000012E-002    -7.1414110607292969E-006
   7.0300000000000029E-002     3.1097806640900671E-005
   7.1400000000000019E-002     7.1550653956364840E-005
   7.2500000000000009E-002     1.1391289444873109E-004
   7.3600000000000027E-002     1.5783464186824858E-004
   7.4700000000000016E-002     2.0292506087571383E-004
   7.5800000000000006E-002     2.4876263341866434E-004
   7.6900000000000024E-002     2.9489159351214767E-004
   7.8000000000000014E-002     3.4082349156960845E-004
   7.9100000000000004E-002     3.8604770088568330E-004
   8.0200000000000021E-002     4.3003723840229213E-004
   8.1300000000000011E-002     4.7225976595655084E-004
   8.2400000000000029E-002     5.1218661246821284E-004
   8.3500000000000019E-002     5.4929818725213408E-004
   8.4600000000000009E-002     5.8308930601924658E-004
   8.5700000000000026E-002     6.1308016302064061E-004
   8.6800000000000016E-002     6.3882523681968451E-004
   8.7900000000000006E-002     6.5992266172543168E-004
   8.9000000000000024E-002     6.7602208582684398E-004
   9.0100000000000013E-002     6.8683293648064137E-004
   9.1200000000000003E-002     6.9212558446452022E-004
   9.2300000000000021E-002     6.9173675728961825E-004
   9.3400000000000011E-002     6.8556913174688816E-004
   9.4500000000000028E-002     6.7360274260863662E-004
   9.5600000000000018E-002     6.5589766018092632E-004
   9.6700000000000008E-002     6.3259655144065619E-004
   9.7800000000000026E-002     6.0391268925741315E-004
   9.8900000000000016E-002     5.7012174511328340E-004
  0.10000000000000001          5.3156208014115691E-004
  0.10110000000000002          4.8864464042708278E-004
  0.10220000000000001          4.4184626312926412E-004
  0.10330000000000003          3.9168927469290793E-004
  0.10440000000000002          3.3873354550451040E-004
  0.10550000000000001          2.8356423717923462E-004
  0.10660000000000003          2.2678835375700146E-004
  0.10770000000000002          1.6902721836231649E-004
  0.10880000000000001          1.1091268243035302E-004
  0.10990000000000003          5.3078958444530144E-005
  0.11100000000000002         -3.8649227462883573E-006
  0.11210000000000001         -5.9340200095903128E-005
  0.11320000000000002         -1.1280242324573919E-004
  0.11430000000000001         -1.6374788538087159E-004
  0.11540000000000003         -2.1171788102947176E-004
  0.11650000000000002         -2.5629755691625178E-004
  0.11760000000000001         -2.9712571995332837E-004
  0.11870000000000003         -3.3391205943189561E-004
  0.11980000000000002         -3.6644021747633815E-004
  0.12090000000000001         -3.9456071681343019E-004
  0.12200000000000003         -4.1817166493274271E-004
  0.12310000000000001         -4.3722183909267187E-004
  0.12420000000000003         -4.5172654790803790E-004
  0.12530000000000002         -4.6177514013834298E-004
  0.12640000000000001         -4.6751397894695401E-004
  0.12750000000000003         -4.6912668040022254E-004
  0.12860000000000002         -4.6682838001288474E-004
  0.12970000000000001         -4.6087702503427863E-004
  0.13080000000000003         -4.5156909618526697E-004
  0.13190000000000002         -4.3922694749198854E-004
  0.13300000000000001         -4.2418431257829070E-004
  0.13410000000000000         -4.0678857476450503E-004
  0.13520000000000004         -3.8739916635677218E-004
  0.13630000000000003         -3.6637546145357192E-004
  0.13740000000000002         -3.4406397026032209E-004
  0.13850000000000001         -3.2079947413876653E-004
  0.13960000000000000         -2.9691433883272111E-004
  0.14070000000000005         -2.7273202431388199E-004
  0.14180000000000004         -2.4854805087670684E-004
  0.14290000000000003         -2.2462062770500779E-004
  0.14400000000000002         -2.0118472457397729E-004
  0.14510000000000001         -1.7846611444838345E-004
  0.14620000000000000         -1.5667418483644724E-004
  0.14730000000000004         -1.3597880024462938E-004
  0.14840000000000003         -1.1650637316051871E-004
  0.14950000000000002         -9.8360804258845747E-005
  0.15060000000000001         -8.1641694123391062E-005
  0.15170000000000000         -6.6432010498829186E-005
  0.15280000000000005         -5.2778897952521220E-005
  0.15390000000000004         -4.0696468204259872E-005
  0.15500000000000003         -3.0187620723154396E-005
  0.15610000000000002         -2.1253150407574140E-005
  0.15720000000000001         -1.3879654943593778E-005
  0.15830000000000000         -8.0276968219550326E-006
  0.15940000000000004         -3.6439575978874927E-006
  0.16050000000000003         -6.7899020450568059E-007
  0.16160000000000002          9.1769533128172043E-007
  0.16270000000000001          1.2144379297751584E-006
  0.16380000000000000          2.9765521958324825E-007
  0.16490000000000005         -1.7489176116214367E-006
  0.16600000000000004         -4.8559286369709298E-006
  0.16710000000000003         -8.9505374489817768E-006
  0.16820000000000002         -1.3936311006546021E-005
  0.16930000000000001         -1.9704610167536885E-005
  0.17040000000000000         -2.6159734261455014E-005
  0.17150000000000004         -3.3221385820070282E-005
  0.17260000000000003         -4.0796629036776721E-005
  0.17370000000000002         -4.8765024985186756E-005
  0.17480000000000001         -5.6999200751306489E-005
  0.17590000000000000         -6.5391308453399688E-005
  0.17700000000000005         -7.3844661528710276E-005
  0.17810000000000004         -8.2241720519959927E-005
  0.17920000000000003         -9.0436064056120813E-005
  0.18030000000000002         -9.8279902886133641E-005
  0.18140000000000001         -1.0564622061792761E-004
  0.18250000000000000         -1.1241358151892200E-004
  0.18360000000000004         -1.1843970423797145E-004
  0.18470000000000003         -1.2356553634162992E-004
  0.18580000000000002         -1.2764245911967009E-004
  0.18690000000000001         -1.3054032751824707E-004
  0.18800000000000000         -1.3212629710324109E-004
  0.18910000000000005         -1.3225301518104970E-004
  0.19020000000000004         -1.3078130723442882E-004
  0.19130000000000003         -1.2760642857756466E-004
  0.19240000000000002         -1.2264531687833369E-004
  0.19350000000000001         -1.1580597492866218E-004
  0.19460000000000005         -1.0698998084990308E-004
  0.19570000000000004         -9.6131327154580504E-005
  0.19680000000000003         -8.3219863881822675E-005
  0.19790000000000002         -6.8275832745712250E-005
  0.19900000000000001         -5.1317405450390652E-005
  0.20010000000000000         -3.2369596738135442E-005
  0.20120000000000005         -1.1502807865326758E-005
  0.20230000000000004          1.1153542800457217E-005
  0.20340000000000003          3.5441451473161578E-005
  0.20450000000000002          6.1200749769341201E-005
  0.20560000000000000          8.8245695224031806E-005
  0.20670000000000005          1.1633646499831229E-004
  0.20780000000000004          1.4519112301059067E-004
  0.20890000000000003          1.7452215251978487E-004
