 -0.12000000000000000          0.0000000000000000
 -0.11889999999999999          0.0000000000000000
 -0.11780000000000000          0.0000000000000000
 -0.11670000000000000          0.0000000000000000
 -0.11559999999999999         -1.6396099769230323E-014
 -0.11449999999999999          2.1678969722356035E-014
 -0.11340000000000000          1.2450507476131217E-013
 -0.11230000000000000         -1.4875999195494705E-013
 -0.11119999999999999         -7.5565861077167562E-013
 -0.11009999999999999          1.9396057026124791E-013
 -0.10900000000000000          3.1764738409045812E-012
 -0.10790000000000000          2.0208470313809457E-012
 -0.10679999999999999         -8.5105186786726961E-012
 -0.10569999999999999         -1.4544769902369303E-011
 -0.10460000000000000          8.3655625829348601E-012
 -0.10349999999999999          4.6377138240849547E-011
 -0.10239999999999999          3.1755837542890575E-011
 -0.10130000000000000         -6.6460302539095295E-011
 -0.10020000000000000         -1.4168191619923221E-010
  -9.9099999999999994E-002    -3.8163628507392744E-011
  -9.7999999999999990E-002     2.0275016388016098E-010
  -9.6899999999999986E-002     2.9167251947015416E-010
  -9.5799999999999996E-002     3.1752513812710603E-011
  -9.4699999999999993E-002    -3.4510541646604054E-010
  -9.3599999999999989E-002    -3.9535824614134185E-010
  -9.2499999999999999E-002    -5.2329258981576032E-011
  -9.1399999999999995E-002     2.5030363892675211E-010
  -9.0299999999999991E-002     1.9362099423769763E-010
  -8.9200000000000002E-002     5.4075483674198566E-011
  -8.8099999999999984E-002     2.4755575367407801E-010
  -8.6999999999999994E-002     5.6480004007042339E-010
  -8.5899999999999990E-002     3.5876610016138955E-010
  -8.4799999999999986E-002    -4.5047890417926340E-010
  -8.3699999999999997E-002    -1.0953526974333272E-009
  -8.2599999999999993E-002    -9.6009911132455272E-010
  -8.1499999999999989E-002    -3.4731328923953697E-010
  -8.0399999999999999E-002     2.2506128904975498E-010
  -7.9299999999999995E-002     9.2577351340494829E-010
  -7.8199999999999992E-002     1.8414086921936246E-009
  -7.7100000000000002E-002     1.5221451876712422E-009
  -7.5999999999999984E-002    -2.3158008843893185E-009
  -7.4899999999999994E-002    -1.0041564024731997E-008
  -7.3799999999999991E-002    -1.9254589034289893E-008
  -7.2699999999999987E-002    -2.7822268933164196E-008
  -7.1599999999999997E-002    -3.6855034579730273E-008
  -7.0499999999999993E-002    -4.8887763171023835E-008
  -6.9399999999999989E-002    -6.3468469591043686E-008
  -6.8300000000000000E-002    -7.7072890292129159E-008
  -6.7199999999999996E-002    -8.8545057508326863E-008
  -6.6099999999999992E-002    -1.0255900662059503E-007
  -6.5000000000000002E-002    -1.2546385619316425E-007
  -6.3899999999999985E-002    -1.5878848103056953E-007
  -6.2799999999999995E-002    -1.9951382057570299E-007
  -6.1699999999999991E-002    -2.4643472329444194E-007
  -6.0599999999999994E-002    -3.0301089282147586E-007
  -5.9499999999999990E-002    -3.7302126543181657E-007
  -5.8399999999999994E-002    -4.5698214989897679E-007
  -5.7299999999999990E-002    -5.5577299917786149E-007
  -5.6199999999999986E-002    -6.7517697743824101E-007
  -5.5099999999999996E-002    -8.2239910170756048E-007
  -5.3999999999999992E-002    -9.9919043350382708E-007
  -5.2899999999999989E-002    -1.2042116850352613E-006
  -5.1799999999999985E-002    -1.4437670188272023E-006
  -5.0699999999999995E-002    -1.7342889577776077E-006
  -4.9599999999999991E-002    -2.0892573502351297E-006
  -4.8499999999999988E-002    -2.5079016268136911E-006
  -4.7399999999999998E-002    -2.9845807603123831E-006
  -4.6299999999999994E-002    -3.5290815958433086E-006
  -4.5199999999999990E-002    -4.1695557229104452E-006
  -4.4099999999999986E-002    -4.9321074584440794E-006
  -4.2999999999999997E-002    -5.8245659602107480E-006
  -4.1899999999999993E-002    -6.8469666985038202E-006
  -4.0799999999999989E-002    -8.0130675996770151E-006
  -3.9699999999999985E-002    -9.3523913164972328E-006
  -3.8599999999999995E-002    -1.0892647878790740E-005
  -3.7499999999999992E-002    -1.2651187716983259E-005
  -3.6399999999999988E-002    -1.4646858289779630E-005
  -3.5299999999999984E-002    -1.6909081750782207E-005
  -3.4199999999999994E-002    -1.9466640878817998E-005
  -3.3099999999999991E-002    -2.2335419998853467E-005
  -3.1999999999999987E-002    -2.5531520805088803E-005
  -3.0899999999999997E-002    -2.9093886041664518E-005
  -2.9799999999999993E-002    -3.3076834370149300E-005
  -2.8699999999999989E-002    -3.7513589631998911E-005
  -2.7599999999999986E-002    -4.2401286918902770E-005
  -2.6499999999999996E-002    -4.7735426051076502E-005
  -2.5399999999999992E-002    -5.3548956202575937E-005
  -2.4299999999999988E-002    -5.9899422922171652E-005
  -2.3199999999999985E-002    -6.6816799517255276E-005
  -2.2099999999999995E-002    -7.4284791480749846E-005
  -2.0999999999999991E-002    -8.2278289482928813E-005
  -1.9899999999999987E-002    -9.0801069745793939E-005
  -1.8799999999999983E-002    -9.9867902463302016E-005
  -1.7699999999999994E-002    -1.0946342081297189E-004
  -1.6599999999999990E-002    -1.1954081855947152E-004
  -1.5499999999999986E-002    -1.3005663640797138E-004
  -1.4399999999999996E-002    -1.4097741222940385E-004
  -1.3299999999999992E-002    -1.5224082744680345E-004
  -1.2199999999999989E-002    -1.6373800463043153E-004
  -1.1099999999999985E-002    -1.7534999642521143E-004
  -9.9999999999999950E-003    -1.8699272186495364E-004
  -8.8999999999999913E-003    -1.9859017629642040E-004
  -7.7999999999999875E-003    -2.1000497508794069E-004
  -6.6999999999999837E-003    -2.2102937509771436E-004
  -5.5999999999999939E-003    -2.3145813611336052E-004
  -4.4999999999999901E-003    -2.4113869585562497E-004
  -3.3999999999999864E-003    -2.4993316037580371E-004
  -2.2999999999999826E-003    -2.5763598387129605E-004
  -1.1999999999999927E-003    -2.6398873887956142E-004
  -9.9999999999988987E-005    -2.6875539333559573E-004
   1.0000000000000148E-003    -2.7175084687769413E-004
   2.1000000000000185E-003    -2.7278429479338229E-004
   3.2000000000000084E-003    -2.7161242906004190E-004
   4.3000000000000121E-003    -2.6799179613590240E-004
   5.4000000000000159E-003    -2.6174640515819192E-004
   6.5000000000000058E-003    -2.5275649386458099E-004
   7.6000000000000234E-003    -2.4087307974696159E-004
   8.7000000000000133E-003    -2.2590243315789849E-004
   9.8000000000000032E-003    -2.0769992261193693E-004
   1.0900000000000021E-002    -1.8624075164552778E-004
   1.2000000000000011E-002    -1.6156911442521960E-004
   1.3100000000000001E-002    -1.3369688531383872E-004
   1.4200000000000018E-002    -1.0261254647048190E-004
   1.5300000000000008E-002    -6.8392560933716595E-005
   1.6400000000000026E-002    -3.1238916562870145E-005
   1.7500000000000016E-002     8.5964620666345581E-006
   1.8600000000000005E-002     5.0890281272586435E-005
   1.9700000000000023E-002     9.5391711511183530E-005
   2.0800000000000013E-002     1.4173293311614543E-004
   2.1900000000000003E-002     1.8944212934002280E-004
   2.3000000000000020E-002     2.3806783428881317E-004
   2.4100000000000010E-002     2.8721537091769278E-004
   2.5200000000000000E-002     3.3643728238530457E-004
   2.6300000000000018E-002     3.8513931212946773E-004
   2.7400000000000008E-002     4.3267221190035343E-004
   2.8500000000000025E-002     4.7847992391325533E-004
   2.9600000000000015E-002     5.2210228750482202E-004
   3.0700000000000005E-002     5.6303507881239057E-004
   3.1800000000000023E-002     6.0066755395382643E-004
   3.2900000000000013E-002     6.3440512167289853E-004
   3.4000000000000002E-002     6.6379655618220568E-004
   3.5100000000000020E-002     6.8849057424813509E-004
   3.6200000000000010E-002     7.0810475153848529E-004
   3.7300000000000028E-002     7.2222383460029960E-004
   3.8400000000000017E-002     7.3055218672379851E-004
   3.9500000000000007E-002     7.3297769995406270E-004
   4.0600000000000025E-002     7.2945252759382129E-004
   4.1700000000000015E-002     7.1987276896834373E-004
   4.2800000000000005E-002     7.0416519884020090E-004
   4.3900000000000022E-002     6.8245525471866131E-004
   4.5000000000000012E-002     6.5506441751495004E-004
   4.6100000000000002E-002     6.2231800984591246E-004
   4.7200000000000020E-002     5.8446155162528157E-004
   4.8300000000000010E-002     5.4180313600227237E-004
   4.9400000000000027E-002     4.9486022908240557E-004
   5.0500000000000017E-002     4.4428094406612217E-004
   5.1600000000000007E-002     3.9063661824911833E-004
   5.2700000000000025E-002     3.3441433333791792E-004
   5.3800000000000014E-002     2.7619078173302114E-004
   5.4900000000000004E-002     2.1671198192052543E-004
   5.6000000000000022E-002     1.5673170855734497E-004
   5.7100000000000012E-002     9.6844254585448653E-005
   5.8200000000000002E-002     3.7547797546721995E-005
   5.9300000000000019E-002    -2.0559387849061750E-005
   6.0400000000000009E-002    -7.6762524258811027E-005
   6.1500000000000027E-002    -1.3044054503552616E-004
   6.2600000000000017E-002    -1.8119944434147328E-004
   6.3700000000000007E-002    -2.2872521367389709E-004
   6.4800000000000024E-002    -2.7260486967861652E-004
   6.5900000000000014E-002    -3.1238887459039688E-004
   6.7000000000000004E-002    -3.4779842826537788E-004
   6.8100000000000022E-002    -3.7876827991567552E-004
   6.9200000000000012E-002    -4.0524886571802199E-004
   7.0300000000000029E-002    -4.2708381079137325E-004
   7.1400000000000019E-002    -4.4415902812033892E-004
   7.2500000000000009E-002    -4.5659492025151849E-004
   7.3600000000000027E-002    -4.6466829371638596E-004
   7.4700000000000016E-002    -4.6856814878992736E-004
   7.5800000000000006E-002    -4.6835473040118814E-004
   7.6900000000000024E-002    -4.6417841804213822E-004
   7.8000000000000014E-002    -4.5643179328180850E-004
   7.9100000000000004E-002    -4.4558540685102344E-004
   8.0200000000000021E-002    -4.3194877798669040E-004
   8.1300000000000011E-002    -4.1570843313820660E-004
   8.2400000000000029E-002    -3.9716763421893120E-004
   8.3500000000000019E-002    -3.7681387038901448E-004
   8.4600000000000009E-002    -3.5510389716364443E-004
   8.5700000000000026E-002    -3.3229717519134283E-004
   8.6800000000000016E-002    -3.0858823447488248E-004
   8.7900000000000006E-002    -2.8432402177713811E-004
   8.9000000000000024E-002    -2.5995512260124087E-004
   9.0100000000000013E-002    -2.3578705440741032E-004
   9.1200000000000003E-002    -2.1191260020714253E-004
   9.2300000000000021E-002    -1.8843870202545077E-004
   9.3400000000000011E-002    -1.6565930854994804E-004
   9.4500000000000028E-002    -1.4390617434401065E-004
   9.5600000000000018E-002    -1.2329676246736199E-004
   9.6700000000000008E-002    -1.0376741556683555E-004
   9.7800000000000026E-002    -8.5336789197754115E-005
   9.8900000000000016E-002    -6.8202694819774479E-005
  0.10000000000000001         -5.2526684157783166E-005
  0.10110000000000002         -3.8244776078499854E-005
  0.10220000000000001         -2.5199007723131217E-005
  0.10330000000000003         -1.3386153113970067E-005
  0.10440000000000002         -2.9380751129792770E-006
  0.10550000000000001          6.1347832343017217E-006
  0.10660000000000003          1.4034407286089845E-005
  0.10770000000000002          2.0951321857864968E-005
  0.10880000000000001          2.6866435291594826E-005
  0.10990000000000003          3.1679348467150703E-005
  0.11100000000000002          3.5471221053740010E-005
  0.11210000000000001          3.8497448258567601E-005
  0.11320000000000002          4.0918301237979904E-005
  0.11430000000000001          4.2679537727963179E-005
  0.11540000000000003          4.3716972868423909E-005
  0.11650000000000002          4.4168409658595920E-005
  0.11760000000000001          4.4262626033741981E-005
  0.11870000000000003          4.4068379793316126E-005
  0.11980000000000002          4.3487456423463300E-005
  0.12090000000000001          4.2504889279371127E-005
  0.12200000000000003          4.1301485907752067E-005
  0.12310000000000001          4.0055612771539018E-005
  0.12420000000000003          3.8735801354050636E-005
  0.12530000000000002          3.7207813875284046E-005
  0.12640000000000001          3.5494565963745117E-005
  0.12750000000000003          3.3789936424000189E-005
  0.12860000000000002          3.2207051845034584E-005
  0.12970000000000001          3.0646922823507339E-005
  0.13080000000000003          2.8982889489270747E-005
  0.13190000000000002          2.7277370463707484E-005
  0.13300000000000001          2.5700803234940395E-005
  0.13410000000000000          2.4284603568958119E-005
  0.13520000000000004          2.2890950276632793E-005
  0.13630000000000003          2.1439691408886574E-005
  0.13740000000000002          2.0041465177200735E-005
  0.13850000000000001          1.8829776308848523E-005
  0.13960000000000000          1.7755859516910277E-005
  0.14070000000000005          1.6662565030856058E-005
  0.14180000000000004          1.5524830814683810E-005
  0.14290000000000003          1.4485686733678449E-005
  0.14400000000000002          1.3636056792165618E-005
  0.14510000000000001          1.2875783795607276E-005
  0.14620000000000000          1.2066120689269155E-005
  0.14730000000000004          1.1235043530177791E-005
  0.14840000000000003          1.0523567652853671E-005
  0.14950000000000002          9.9623593996511772E-006
  0.15060000000000001          9.4238721430883743E-006
  0.15170000000000000          8.8189135567517951E-006
  0.15280000000000005          8.2292735896771774E-006
  0.15390000000000004          7.7747199611621909E-006
  0.15500000000000003          7.4226832111889962E-006
  0.15610000000000002          7.0343653533200268E-006
  0.15720000000000001          6.5737572185753379E-006
  0.15830000000000000          6.1578439272125252E-006
  0.15940000000000004          5.8741702559927944E-006
  0.16050000000000003          5.6473854783689603E-006
  0.16160000000000002          5.3546195886156056E-006
  0.16270000000000001          5.0083417590940371E-006
  0.16380000000000000          4.7285766413551755E-006
  0.16490000000000005          4.5550050344900228E-006
  0.16600000000000004          4.3890536289836746E-006
  0.16710000000000003          4.1482844608253799E-006
  0.16820000000000002          3.8896919249964412E-006
  0.16930000000000001          3.7158160921535455E-006
  0.17040000000000000          3.6137373626843328E-006
  0.17150000000000004          3.4762513223540736E-006
  0.17260000000000003          3.2674404337740270E-006
  0.17370000000000002          3.0754401905142004E-006
  0.17480000000000001          2.9749237455689581E-006
  0.17590000000000000          2.9132481813576305E-006
  0.17700000000000005          2.7919938929699128E-006
  0.17810000000000004          2.6150405574298929E-006
  0.17920000000000003          2.4773175937298220E-006
  0.18030000000000002          2.4183802906918572E-006
  0.18140000000000001          2.3656693883822300E-006
  0.18250000000000000          2.2485635327029740E-006
  0.18360000000000004          2.1034536530351033E-006
  0.18470000000000003          2.0129159565840382E-006
  0.18580000000000002          1.9791723389062099E-006
  0.18690000000000001          1.9250480818300275E-006
  0.18800000000000000          1.8136369135390851E-006
  0.18910000000000005          1.7000164689306985E-006
  0.19020000000000004          1.6408365581810358E-006
  0.19130000000000003          1.6070210904217674E-006
  0.19240000000000002          1.5313673884520540E-006
  0.19350000000000001          1.4118193121248623E-006
  0.19460000000000005          1.3106623555358965E-006
  0.19570000000000004          1.2561746416395181E-006
  0.19680000000000003          1.1995506383755128E-006
  0.19790000000000002          1.0897022093558917E-006
  0.19900000000000001          9.4747912271486712E-007
  0.20010000000000000          8.2846906934719300E-007
  0.20120000000000005          7.3604019235062879E-007
  0.20230000000000004          6.1670965578741743E-007
  0.20340000000000003          4.3845645336659800E-007
  0.20450000000000002          2.3060950127273827E-007
  0.20560000000000000          3.0064711609156802E-008
  0.20670000000000005         -1.7863892765035416E-007
  0.20780000000000004         -4.4043218849765253E-007
  0.20890000000000003         -7.6667964776788722E-007
