 -0.12000000000000000          0.0000000000000000
 -0.11889999999999999          0.0000000000000000
 -0.11780000000000000         -2.8803398555155013E-010
 -0.11670000000000000         -3.7413219744486526E-010
 -0.11559999999999999          3.5014199872840379E-010
 -0.11449999999999999          9.4073016043694224E-010
 -0.11340000000000000          9.4344115852962318E-011
 -0.11230000000000000         -1.0913596693029604E-009
 -0.11119999999999999         -5.3994986259908728E-010
 -0.11009999999999999          4.0800493539272509E-010
 -0.10900000000000000         -1.7057470991233004E-009
 -0.10790000000000000         -5.1608428641713999E-009
 -0.10679999999999999         -2.5409692128164352E-009
 -0.10569999999999999          7.8289570382139573E-009
 -0.10460000000000000          1.4875282339232854E-008
 -0.10349999999999999          7.4609003419823239E-009
 -0.10239999999999999         -7.8669248892992982E-009
 -0.10130000000000000         -1.2319265607629859E-008
 -0.10020000000000000         -5.1220550023600708E-010
  -9.9099999999999994E-002     1.0257106275446404E-008
  -9.7999999999999990E-002     3.9317074040923217E-009
  -9.6899999999999986E-002    -1.0295767793877530E-008
  -9.5799999999999996E-002    -1.0654859217140711E-008
  -9.4699999999999993E-002     4.9943840174648813E-009
  -9.3599999999999989E-002     1.5762308791522628E-008
  -9.2499999999999999E-002     8.8267295694777204E-009
  -9.1399999999999995E-002    -2.6693793842014202E-009
  -9.0299999999999991E-002    -2.5358370958628029E-009
  -8.9200000000000002E-002     1.5048964296937584E-009
  -8.8099999999999984E-002    -9.5547330047907053E-009
  -8.6999999999999994E-002    -3.3973734048231563E-008
  -8.5899999999999990E-002    -5.0857028810469274E-008
  -8.4799999999999986E-002    -5.4565401086392740E-008
  -8.3699999999999997E-002    -6.5483426681112178E-008
  -8.2599999999999993E-002    -9.6673907989952568E-008
  -8.1499999999999989E-002    -1.2998593490465282E-007
  -8.0399999999999999E-002    -1.4490673549971689E-007
  -7.9299999999999995E-002    -1.5748329929010652E-007
  -7.8199999999999992E-002    -2.0287106394789589E-007
  -7.7100000000000002E-002    -2.8165894150333770E-007
  -7.5999999999999984E-002    -3.5502839068612957E-007
  -7.4899999999999994E-002    -4.0535437051403278E-007
  -7.3799999999999991E-002    -4.7338815534203604E-007
  -7.2699999999999987E-002    -6.0896365994267398E-007
  -7.1599999999999997E-002    -8.0216415199174662E-007
  -7.0499999999999993E-002    -9.9893975402665092E-007
  -6.9399999999999989E-002    -1.1834146107503329E-006
  -6.8300000000000000E-002    -1.4076381376071367E-006
  -6.7199999999999996E-002    -1.7256301134693786E-006
  -6.6099999999999992E-002    -2.1305777408997528E-006
  -6.5000000000000002E-002    -2.5860899768304080E-006
  -6.3899999999999985E-002    -3.0978669656178681E-006
  -6.2799999999999995E-002    -3.7148813589737983E-006
  -6.1699999999999991E-002    -4.4658031583821867E-006
  -6.0599999999999994E-002    -5.3392168410937302E-006
  -5.9499999999999990E-002    -6.3407492234546226E-006
  -5.8399999999999994E-002    -7.5280295277480036E-006
  -5.7299999999999990E-002    -8.9556378952693194E-006
  -5.6199999999999986E-002    -1.0613653103064280E-005
  -5.5099999999999996E-002    -1.2469113244151231E-005
  -5.3999999999999992E-002    -1.4561912394128740E-005
  -5.2899999999999989E-002    -1.7006786947604269E-005
  -5.1799999999999985E-002    -1.9883862478309311E-005
  -5.0699999999999995E-002    -2.3173888621386141E-005
  -4.9599999999999991E-002    -2.6839263227884658E-005
  -4.8499999999999988E-002    -3.0936844268580899E-005
  -4.7399999999999998E-002    -3.5597324313130230E-005
  -4.6299999999999994E-002    -4.0901817556004971E-005
  -4.5199999999999990E-002    -4.6839446440571919E-005
  -4.4099999999999986E-002    -5.3402603953145444E-005
  -4.2999999999999997E-002    -6.0669695812975988E-005
  -4.1899999999999993E-002    -6.8749170168302953E-005
  -4.0799999999999989E-002    -7.7678771049249917E-005
  -3.9699999999999985E-002    -8.7438995251432061E-005
  -3.8599999999999995E-002    -9.8054748377762735E-005
  -3.7499999999999992E-002    -1.0961816587951034E-004
  -3.6399999999999988E-002    -1.2218939082231373E-004
  -3.5299999999999984E-002    -1.3572994794230908E-004
  -3.4199999999999994E-002    -1.5017815167084336E-004
  -3.3099999999999991E-002    -1.6554999456275254E-004
  -3.1999999999999987E-002    -1.8190126866102219E-004
  -3.0899999999999997E-002    -1.9920030899811536E-004
  -2.9799999999999993E-002    -2.1730408479925245E-004
  -2.8699999999999989E-002    -2.3608269111718982E-004
  -2.7599999999999986E-002    -2.5549551355652511E-004
  -2.6499999999999996E-002    -2.7550020604394376E-004
  -2.5399999999999992E-002    -2.9592114151455462E-004
  -2.4299999999999988E-002    -3.1648436561226845E-004
  -2.3199999999999985E-002    -3.3696260652504861E-004
  -2.2099999999999995E-002    -3.5721409949474037E-004
  -2.0999999999999991E-002    -3.7705575232394040E-004
  -1.9899999999999987E-002    -3.9616279536858201E-004
  -1.8799999999999983E-002    -4.1414322913624346E-004
  -1.7699999999999994E-002    -4.3067467049695551E-004
  -1.6599999999999990E-002    -4.4549602898769081E-004
  -1.5499999999999986E-002    -4.5828209840692580E-004
  -1.4399999999999996E-002    -4.6860115253366530E-004
  -1.3299999999999992E-002    -4.7602527774870396E-004
  -1.2199999999999989E-002    -4.8021960537880659E-004
  -1.1099999999999985E-002    -4.8088069888763130E-004
  -9.9999999999999950E-003    -4.7762310714460909E-004
  -8.8999999999999913E-003    -4.7001699567772448E-004
  -7.7999999999999875E-003    -4.5772257726639509E-004
  -6.6999999999999837E-003    -4.4053606688976288E-004
  -5.5999999999999939E-003    -4.1826991946436465E-004
  -4.4999999999999901E-003    -3.9066310273483396E-004
  -3.3999999999999864E-003    -3.5747786751016974E-004
  -2.2999999999999826E-003    -3.1863368349149823E-004
  -1.1999999999999927E-003    -2.7419894468039274E-004
  -9.9999999999988987E-005    -2.2426793293561786E-004
   1.0000000000000148E-003    -1.6890652477741241E-004
   2.1000000000000185E-003    -1.0826219659065828E-004
   3.2000000000000084E-003    -4.2665316868806258E-005
   4.3000000000000121E-003     2.7421894628787413E-005
   5.4000000000000159E-003     1.0153164475923404E-004
   6.5000000000000058E-003     1.7919547099154443E-004
   7.6000000000000234E-003     2.5981815997511148E-004
   8.7000000000000133E-003     3.4262938424944878E-004
   9.8000000000000032E-003     4.2678753379732370E-004
   1.0900000000000021E-002     5.1149004139006138E-004
   1.2000000000000011E-002     5.9593771584331989E-004
   1.3100000000000001E-002     6.7922548623755574E-004
   1.4200000000000018E-002     7.6034117955714464E-004
   1.5300000000000008E-002     8.3828775677829981E-004
   1.6400000000000026E-002     9.1215327847748995E-004
   1.7500000000000016E-002     9.8105531651526690E-004
   1.8600000000000005E-002     1.0440725600346923E-003
   1.9700000000000023E-002     1.1002945248037577E-003
   2.0800000000000013E-002     1.1489300522953272E-003
   2.1900000000000003E-002     1.1893293121829629E-003
   2.3000000000000020E-002     1.2208916014060378E-003
   2.4100000000000010E-002     1.2430397327989340E-003
   2.5200000000000000E-002     1.2553019914776087E-003
   2.6300000000000018E-002     1.2574205175042152E-003
   2.7400000000000008E-002     1.2493034591898322E-003
   2.8500000000000025E-002     1.2309376616030931E-003
   2.9600000000000015E-002     1.2023735325783491E-003
   3.0700000000000005E-002     1.1638015275821090E-003
   3.1800000000000023E-002     1.1156112886965275E-003
   3.2900000000000013E-002     1.0583371622487903E-003
   3.4000000000000002E-002     9.9259801208972931E-004
   3.5100000000000020E-002     9.1908237664029002E-004
   3.6200000000000010E-002     8.3860702579841018E-004
   3.7300000000000028E-002     7.5210607610642910E-004
   3.8400000000000017E-002     6.6056416835635900E-004
   3.9500000000000007E-002     5.6498101912438869E-004
   4.0600000000000025E-002     4.6639534411951900E-004
   4.1700000000000015E-002     3.6591492244042456E-004
   4.2800000000000005E-002     2.6468277792446315E-004
   4.3900000000000022E-002     1.6379187582060695E-004
   4.5000000000000012E-002     6.4273190218955278E-005
   4.6100000000000002E-002    -3.2904335967032239E-005
   4.7200000000000020E-002    -1.2678277562372386E-004
   4.8300000000000010E-002    -2.1645557717420161E-004
   4.9400000000000027E-002    -3.0110313673503697E-004
   5.0500000000000017E-002    -3.8001890061423182E-004
   5.1600000000000007E-002    -4.5260420301929116E-004
   5.2700000000000025E-002    -5.1836739294230938E-004
   5.3800000000000014E-002    -5.7691318215802312E-004
   5.4900000000000004E-002    -6.2795175472274423E-004
   5.6000000000000022E-002    -6.7130214301869273E-004
   5.7100000000000012E-002    -7.0689356653019786E-004
   5.8200000000000002E-002    -7.3475425597280264E-004
   5.9300000000000019E-002    -7.5500935781747103E-004
   6.0400000000000009E-002    -7.6787790749222040E-004
   6.1500000000000027E-002    -7.7367044286802411E-004
   6.2600000000000017E-002    -7.7277969103306532E-004
   6.3700000000000007E-002    -7.6564733171835542E-004
   6.4800000000000024E-002    -7.5273646507412195E-004
   6.5900000000000014E-002    -7.3454494122415781E-004
   6.7000000000000004E-002    -7.1163760730996728E-004
   6.8100000000000022E-002    -6.8463577190414071E-004
   6.9200000000000012E-002    -6.5415428252890706E-004
   7.0300000000000029E-002    -6.2075821915641427E-004
   7.1400000000000019E-002    -5.8498996077105403E-004
   7.2500000000000009E-002    -5.4741819621995091E-004
   7.3600000000000027E-002    -5.0862220814451575E-004
   7.4700000000000016E-002    -4.6912464313209057E-004
   7.5800000000000006E-002    -4.2936697718687356E-004
   7.6900000000000024E-002    -3.8976408541202545E-004
   7.8000000000000014E-002    -3.5074495826847851E-004
   7.9100000000000004E-002    -3.1270409817807376E-004
   8.0200000000000021E-002    -2.7592756669037044E-004
   8.1300000000000011E-002    -2.4061433214228600E-004
   8.2400000000000029E-002    -2.0696890715043992E-004
   8.3500000000000019E-002    -1.7522639245726168E-004
   8.4600000000000009E-002    -1.4556643145624548E-004
   8.5700000000000026E-002    -1.1804219684563577E-004
   8.6800000000000016E-002    -9.2635360488202423E-005
   8.7900000000000006E-002    -6.9371169956866652E-005
   8.9000000000000024E-002    -4.8311765567632392E-005
   9.0100000000000013E-002    -2.9447994165821001E-005
   9.1200000000000003E-002    -1.2661605069297366E-005
   9.2300000000000021E-002     2.1743810521002160E-006
   9.3400000000000011E-002     1.5106395949260332E-005
   9.4500000000000028E-002     2.6166948373429477E-005
   9.5600000000000018E-002     3.5489607398631051E-005
   9.6700000000000008E-002     4.3289805034874007E-005
   9.7800000000000026E-002     4.9723326810635626E-005
   9.8900000000000016E-002     5.4830677981954068E-005
  0.10000000000000001          5.8660858485382050E-005
  0.10110000000000002          6.1385719163808972E-005
  0.10220000000000001          6.3228952058125287E-005
  0.10330000000000003          6.4312807808164507E-005
  0.10440000000000002          6.4649961132090539E-005
  0.10550000000000001          6.4295265474356711E-005
  0.10660000000000003          6.3417639466933906E-005
  0.10770000000000002          6.2181607063394040E-005
  0.10880000000000001          6.0622434830293059E-005
  0.10990000000000003          5.8713958424050361E-005
  0.11100000000000002          5.6527464039390907E-005
  0.11210000000000001          5.4230906243901700E-005
  0.11320000000000002          5.1919876568717882E-005
  0.11430000000000001          4.9540452891960740E-005
  0.11540000000000003          4.7031371650518849E-005
  0.11650000000000002          4.4475429604062811E-005
  0.11760000000000001          4.2025643779197708E-005
  0.11870000000000003          3.9715705497656018E-005
  0.11980000000000002          3.7444140616571531E-005
  0.12090000000000001          3.5154538636561483E-005
  0.12200000000000003          3.2939322409220040E-005
  0.12310000000000001          3.0908169719623402E-005
  0.12420000000000003          2.9028144126641564E-005
  0.12530000000000002          2.7184816644876264E-005
  0.12640000000000001          2.5368815840920433E-005
  0.12750000000000003          2.3695894924458116E-005
  0.12860000000000002          2.2225338398129679E-005
  0.12970000000000001          2.0859539290540852E-005
  0.13080000000000003          1.9484808944980614E-005
  0.13190000000000002          1.8142136468668468E-005
  0.13300000000000001          1.6962922018137760E-005
  0.13410000000000000          1.5963965779519640E-005
  0.13520000000000004          1.5015407370810863E-005
  0.13630000000000003          1.4030195416125935E-005
  0.13740000000000002          1.3087311344861519E-005
  0.13850000000000001          1.2300875823711976E-005
  0.13960000000000000          1.1638933756330516E-005
  0.14070000000000005          1.0969345566991251E-005
  0.14180000000000004          1.0259324881189968E-005
  0.14290000000000003          9.6181711342069320E-006
  0.14400000000000002          9.1195861386950128E-006
  0.14510000000000001          8.6800282588228583E-006
  0.14620000000000000          8.1834250522661023E-006
  0.14730000000000004          7.6581673056352884E-006
  0.14840000000000003          7.2309981078433339E-006
  0.14950000000000002          6.9278139562811702E-006
  0.15060000000000001          6.6285201683058403E-006
  0.15170000000000000          6.2468511714541819E-006
  0.15280000000000005          5.8582240853866097E-006
  0.15390000000000004          5.5807422540965490E-006
  0.15500000000000003          5.3914973250357434E-006
  0.15610000000000002          5.1612564675451722E-006
  0.15720000000000001          4.8513375077163801E-006
  0.15830000000000000          4.5693132051383145E-006
  0.15940000000000004          4.4010507735947613E-006
  0.16050000000000003          4.2783144635905046E-006
  0.16160000000000002          4.0844524846761487E-006
  0.16270000000000001          3.8317257349262945E-006
  0.16380000000000000          3.6380802157509606E-006
  0.16490000000000005          3.5431664855423151E-006
  0.16600000000000004          3.4483973649912514E-006
  0.16710000000000003          3.2699317671358585E-006
  0.16820000000000002          3.0660505672130967E-006
  0.16930000000000001          2.9439188438118435E-006
  0.17040000000000000          2.8936390208400553E-006
  0.17150000000000004          2.8054012091160985E-006
  0.17260000000000003          2.6395723580208141E-006
  0.17370000000000002          2.4857265543687390E-006
  0.17480000000000001          2.4218902581196744E-006
  0.17590000000000000          2.3943159703776473E-006
  0.17700000000000005          2.3017155399429612E-006
  0.17810000000000004          2.1507084966287948E-006
  0.17920000000000003          2.0436639260879019E-006
  0.18030000000000002          2.0204342945362441E-006
  0.18140000000000001          1.9986869119748008E-006
  0.18250000000000000          1.9011022232007235E-006
  0.18360000000000004          1.7714345403874177E-006
  0.18470000000000003          1.7045467757270671E-006
  0.18580000000000002          1.7020918221533066E-006
  0.18690000000000001          1.6742967545724241E-006
  0.18800000000000000          1.5785226423759013E-006
  0.18910000000000005          1.4800117469349061E-006
  0.19020000000000004          1.4472393559117336E-006
  0.19130000000000003          1.4481398693533265E-006
  0.19240000000000002          1.4045049283595290E-006
  0.19350000000000001          1.3137112091499148E-006
  0.19460000000000005          1.2490828567024437E-006
  0.19570000000000004          1.2435616554284934E-006
  0.19680000000000003          1.2396147894833121E-006
  0.19790000000000002          1.1801362234109547E-006
  0.19900000000000001          1.0964109833366820E-006
  0.20010000000000000          1.0587349379420630E-006
  0.20120000000000005          1.0691005627450068E-006
  0.20230000000000004          1.0603223472571699E-006
  0.20340000000000003          9.9848887202824699E-007
  0.20450000000000002          9.3087248842493864E-007
  0.20560000000000000          9.1088088538526790E-007
  0.20670000000000005          9.1931354972984991E-007
  0.20780000000000004          8.9933968183686375E-007
  0.20890000000000003          8.4423197677097050E-007
