 -0.12000000000000000          0.0000000000000000
 -0.11889999999999999          0.0000000000000000
 -0.11780000000000000          0.0000000000000000
 -0.11670000000000000          1.2546763107634806E-011
 -0.11559999999999999          1.3697711367943732E-011
 -0.11449999999999999         -3.8519888667654101E-011
 -0.11340000000000000         -6.0437016502490337E-011
 -0.11230000000000000          8.1728193657149006E-011
 -0.11119999999999999          2.1664815774702362E-010
 -0.11009999999999999         -3.4040614077524012E-011
 -0.10900000000000000         -4.8208054215237439E-010
 -0.10790000000000000         -2.7206706332272290E-010
 -0.10679999999999999          7.1667355383553399E-010
 -0.10569999999999999          1.0246070658581630E-009
 -0.10460000000000000         -4.2161413249530710E-010
 -0.10349999999999999         -1.8818480107540836E-009
 -0.10239999999999999         -6.0493338116529571E-010
 -0.10130000000000000          2.4258657305153974E-009
 -0.10020000000000000          2.5024646799209904E-009
  -9.9099999999999994E-002    -1.8537392731943214E-009
  -9.7999999999999990E-002    -4.8300972110837392E-009
  -9.6899999999999986E-002    -6.5601130083692283E-010
  -9.5799999999999996E-002     6.4044076708569264E-009
  -9.4699999999999993E-002     5.8165898764173107E-009
  -9.3599999999999989E-002    -3.7803706831596173E-009
  -9.2499999999999999E-002    -9.8755315036669344E-009
  -9.1399999999999995E-002    -2.5646533785561587E-009
  -9.0299999999999991E-002     9.5435064295656957E-009
  -8.9200000000000002E-002     9.3253387234426555E-009
  -8.8099999999999984E-002    -4.2171426350989805E-009
  -8.6999999999999994E-002    -1.2694440165716969E-008
  -8.5899999999999990E-002    -3.9120702233219617E-009
  -8.4799999999999986E-002     9.9854604584947992E-009
  -8.3699999999999997E-002     9.7387156117179074E-009
  -8.2599999999999993E-002    -2.9504683141112764E-009
  -8.1499999999999989E-002    -8.7990539299198645E-009
  -8.0399999999999999E-002    -8.1161039000576807E-010
  -7.9299999999999995E-002     5.8461169238910315E-009
  -7.8199999999999992E-002    -3.1187788462894162E-010
  -7.7100000000000002E-002    -7.3376864584417945E-009
  -7.5999999999999984E-002     2.9691941180048920E-012
  -7.4899999999999994E-002     1.1607462546692204E-008
  -7.3799999999999991E-002     4.7746384623792437E-009
  -7.2699999999999987E-002    -1.6708165517798079E-008
  -7.1599999999999997E-002    -2.0920309040661778E-008
  -7.0499999999999993E-002     5.0183723843133521E-009
  -6.9399999999999989E-002     2.8316698319486022E-008
  -6.8300000000000000E-002     1.2550958494728093E-008
  -6.7199999999999996E-002    -2.6887942539133292E-008
  -6.6099999999999992E-002    -3.8679164759969353E-008
  -6.5000000000000002E-002    -6.8538561492914596E-009
  -6.3899999999999985E-002     2.4600396386631473E-008
  -6.2799999999999995E-002     1.2652751735231504E-008
  -6.1699999999999991E-002    -2.5253452662354903E-008
  -6.0599999999999994E-002    -3.9293038156529292E-008
  -5.9499999999999990E-002    -1.9400914652578649E-008
  -5.8399999999999994E-002    -3.7838399080669660E-009
  -5.7299999999999990E-002    -1.5919523477236908E-008
  -5.6199999999999986E-002    -3.1369257413871310E-008
  -5.5099999999999996E-002    -2.4939522447198215E-008
  -5.3999999999999992E-002    -1.7682884490000106E-008
  -5.2899999999999989E-002    -4.2286462331730945E-008
  -5.1799999999999985E-002    -8.0362298149339040E-008
  -5.0699999999999995E-002    -7.9882468639880244E-008
  -4.9599999999999991E-002    -3.7831284771527862E-008
  -4.8499999999999988E-002    -1.9347170976402595E-008
  -4.7399999999999998E-002    -6.9011790060358180E-008
  -4.6299999999999994E-002    -1.3945387422609201E-007
  -4.5199999999999990E-002    -1.5015395149475808E-007
  -4.4099999999999986E-002    -1.0027047636640418E-007
  -4.2999999999999997E-002    -7.1666931944491807E-008
  -4.1899999999999993E-002    -1.1474452321635908E-007
  -4.0799999999999989E-002    -1.8237510346352792E-007
  -3.9699999999999985E-002    -2.0388004884352995E-007
  -3.8599999999999995E-002    -1.8465661355548946E-007
  -3.7499999999999992E-002    -1.8540903568009526E-007
  -3.6399999999999988E-002    -2.2214078398974380E-007
  -3.5299999999999984E-002    -2.4801934728202468E-007
  -3.4199999999999994E-002    -2.3923982439555402E-007
  -3.3099999999999991E-002    -2.4121229103002406E-007
  -3.1999999999999987E-002    -2.9318422889446083E-007
  -3.0899999999999997E-002    -3.5208702797717706E-007
  -2.9799999999999993E-002    -3.4674403082135541E-007
  -2.8699999999999989E-002    -2.9049104455225461E-007
  -2.7599999999999986E-002    -2.7545084435587341E-007
  -2.6499999999999996E-002    -3.4248205338371918E-007
  -2.5399999999999992E-002    -4.1515204429742880E-007
  -2.4299999999999988E-002    -4.0524611222281237E-007
  -2.3199999999999985E-002    -3.3571558333278517E-007
  -2.2099999999999995E-002    -3.0304008191706089E-007
  -2.0999999999999991E-002    -3.3726442438819504E-007
  -1.9899999999999987E-002    -3.6610245501833560E-007
  -1.8799999999999983E-002    -3.3274599786636827E-007
  -1.7699999999999994E-002    -2.7657031864691817E-007
  -1.6599999999999990E-002    -2.5848984819276666E-007
  -1.5499999999999986E-002    -2.6027734634226363E-007
  -1.4399999999999996E-002    -2.1478064127222751E-007
  -1.3299999999999992E-002    -1.2105300584153156E-007
  -1.2199999999999989E-002    -5.5594554737581348E-008
  -1.1099999999999985E-002    -5.3948753020449658E-008
  -9.9999999999999950E-003    -4.6930264119282583E-008
  -8.8999999999999913E-003     4.4146634792241457E-008
  -7.7999999999999875E-003     1.8381598465566640E-007
  -6.6999999999999837E-003     2.7294689175505482E-007
  -5.5999999999999939E-003     2.9075033580738818E-007
  -4.4999999999999901E-003     3.1965078051143792E-007
  -3.3999999999999864E-003     4.1705570197336783E-007
  -2.2999999999999826E-003     5.4522678283319692E-007
  -1.1999999999999927E-003     6.2394752831096412E-007
  -9.9999999999988987E-005     6.5615904532023706E-007
   1.0000000000000148E-003     7.1364513587468537E-007
   2.1000000000000185E-003     8.1522216532903258E-007
   3.2000000000000084E-003     9.0072484226766392E-007
   4.3000000000000121E-003     9.2176765065232757E-007
   5.4000000000000159E-003     9.2336034640538855E-007
   6.5000000000000058E-003     9.7844326774065848E-007
   7.6000000000000234E-003     1.0644656640579342E-006
   8.7000000000000133E-003     1.0940061656583566E-006
   9.8000000000000032E-003     1.0453634331497597E-006
   1.0900000000000021E-002     9.9553892596304649E-007
   1.2000000000000011E-002     1.0073272278532386E-006
   1.3100000000000001E-002     1.0356523034715792E-006
   1.4200000000000018E-002     9.9743272130581317E-007
   1.5300000000000008E-002     8.9551491555539542E-007
   1.6400000000000026E-002     8.0851344819166115E-007
   1.7500000000000016E-002     7.6812244742541225E-007
   1.8600000000000005E-002     7.1897324005476548E-007
   1.9700000000000023E-002     6.1104839232939412E-007
   2.0800000000000013E-002     4.7763944621692644E-007
   2.1900000000000003E-002     3.8003776126060984E-007
   2.3000000000000020E-002     3.1023466817714507E-007
   2.4100000000000010E-002     2.0638147191220924E-007
   2.5200000000000000E-002     5.6112998692015026E-008
   2.6300000000000018E-002    -8.1358997761071805E-008
   2.7400000000000008E-002    -1.6402618996380625E-007
   2.8500000000000025E-002    -2.3043052976845502E-007
   2.9600000000000015E-002    -3.3981450542341918E-007
   3.0700000000000005E-002    -4.7930313940014457E-007
   3.1800000000000023E-002    -5.8156371096629300E-007
   3.2900000000000013E-002    -6.2363886854654993E-007
   3.4000000000000002E-002    -6.5755165223890799E-007
   3.5100000000000020E-002    -7.3283990786876529E-007
   3.6200000000000010E-002    -8.1704513377189869E-007
   3.7300000000000028E-002    -8.5783284475837718E-007
   3.8400000000000017E-002    -8.5138520944383345E-007
   3.9500000000000007E-002    -8.5075458855499164E-007
   4.0600000000000025E-002    -8.6984556446623174E-007
   4.1700000000000015E-002    -8.7526620973221725E-007
   4.2800000000000005E-002    -8.4140037870383821E-007
   4.3900000000000022E-002    -7.9378105510841124E-007
   4.5000000000000012E-002    -7.6543938121176325E-007
   4.6100000000000002E-002    -7.3768154607023462E-007
   4.7200000000000020E-002    -6.8211460302336491E-007
   4.8300000000000010E-002    -6.0359690223776852E-007
   4.9400000000000027E-002    -5.3539935152002727E-007
   5.0500000000000017E-002    -4.8210984004981583E-007
   5.1600000000000007E-002    -4.2475977579670143E-007
   5.2700000000000025E-002    -3.5138063481099380E-007
   5.3800000000000014E-002    -2.7685919690156879E-007
   5.4900000000000004E-002    -2.1452783016684407E-007
   5.6000000000000022E-002    -1.5428227584379783E-007
   5.7100000000000012E-002    -8.6448956437834568E-008
   5.8200000000000002E-002    -1.8518157673952373E-008
   5.9300000000000019E-002     2.9324848327405562E-008
   6.0400000000000009E-002     5.8878434572307015E-008
   6.1500000000000027E-002     9.6181565822917037E-008
   6.2600000000000017E-002     1.4850678553557373E-007
   6.3700000000000007E-002     1.9292916419999528E-007
   6.4800000000000024E-002     2.0948918688645790E-007
   6.5900000000000014E-002     2.1409222483725898E-007
   6.7000000000000004E-002     2.2736642790732731E-007
   6.8100000000000022E-002     2.4256488018181699E-007
   6.9200000000000012E-002     2.4172103962882829E-007
   7.0300000000000029E-002     2.3296317408494360E-007
   7.1400000000000019E-002     2.4064814851953997E-007
   7.2500000000000009E-002     2.5850297902252350E-007
   7.3600000000000027E-002     2.4828779032759485E-007
   7.4700000000000016E-002     1.9828429742574372E-007
   7.5800000000000006E-002     1.5416408416513150E-007
   7.6900000000000024E-002     1.5862282509715442E-007
   7.8000000000000014E-002     1.8722707295637520E-007
   7.9100000000000004E-002     1.7800097396047931E-007
   8.0200000000000021E-002     1.2162415430339024E-007
   8.1300000000000011E-002     7.3975883196908399E-008
   8.2400000000000029E-002     7.2861318756167748E-008
   8.3500000000000019E-002     8.5130437810221338E-008
   8.4600000000000009E-002     6.5923480008223123E-008
   8.5700000000000026E-002     2.9208742091668682E-008
   8.6800000000000016E-002     2.1184160203802094E-008
   8.7900000000000006E-002     3.8992467921161733E-008
   8.9000000000000024E-002     2.8091289294707167E-008
   9.0100000000000013E-002    -2.6262153340894656E-008
   9.1200000000000003E-002    -6.2564616598592693E-008
   9.2300000000000021E-002    -3.0298647146764779E-008
   9.3400000000000011E-002     2.3023032369451357E-008
   9.4500000000000028E-002     1.2835058349480732E-008
   9.5600000000000018E-002    -5.5248690955522761E-008
   9.6700000000000008E-002    -8.9833505967362726E-008
   9.7800000000000026E-002    -4.6336122494494703E-008
   9.8900000000000016E-002     5.3147588552349134E-009
  0.10000000000000001         -1.1952652201330238E-008
  0.10110000000000002         -6.4822224032923259E-008
  0.10220000000000001         -6.5537015814243205E-008
  0.10330000000000003         -1.1773580332885558E-008
  0.10440000000000002          8.9355989274508829E-009
  0.10550000000000001         -4.0459735117792661E-008
  0.10660000000000003         -8.1756382996900356E-008
  0.10770000000000002         -4.1202635969739276E-008
  0.10880000000000001          3.0206944501287580E-008
  0.10990000000000003          2.8926310235988240E-008
  0.11100000000000002         -4.4069370375154904E-008
  0.11210000000000001         -7.9732572544344293E-008
  0.11320000000000002         -2.4859613034777794E-008
  0.11430000000000001          3.7730686130998947E-008
  0.11540000000000003          1.7776535798930126E-008
  0.11650000000000002         -4.4843023516705216E-008
  0.11760000000000001         -4.4411919475351169E-008
  0.11870000000000003          2.1446957987336646E-008
  0.11980000000000002          4.6851916124523996E-008
  0.12090000000000001         -1.4532078651541269E-008
  0.12200000000000003         -6.9660998747167469E-008
  0.12310000000000001         -2.6588814705519326E-008
  0.12420000000000003          5.8548589976226140E-008
  0.12530000000000002          5.9747669922671776E-008
  0.12640000000000001         -2.7250138145973324E-008
  0.12750000000000003         -7.5202784444172721E-008
  0.12860000000000002         -1.4735257458653450E-008
  0.12970000000000001          6.2519852406239806E-008
  0.13080000000000003          4.4073122040799717E-008
  0.13190000000000002         -3.4447197094777948E-008
  0.13300000000000001         -4.9819611547263776E-008
  0.13410000000000000          1.7245923800146556E-008
  0.13520000000000004          5.5711829816118552E-008
  0.13630000000000003          1.7590875422968111E-009
  0.13740000000000002         -5.8951265202722425E-008
  0.13850000000000001         -2.5779295143024683E-008
  0.13960000000000000          5.5555471334400863E-008
  0.14070000000000005          5.9477894609472060E-008
  0.14180000000000004         -2.4656092278974029E-008
  0.14290000000000003         -7.2044556986838870E-008
  0.14400000000000002         -1.1644722519577044E-008
  0.14510000000000001          6.4760058648971608E-008
  0.14620000000000000          4.2659635823838471E-008
  0.14730000000000004         -4.1342094192486911E-008
  0.14840000000000003         -5.7623722682365042E-008
  0.14950000000000002          1.6188685947327031E-008
  0.15060000000000001          6.2717028015413234E-008
  0.15170000000000000          8.0816713321496536E-009
  0.15280000000000005         -6.2456720684167522E-008
  0.15390000000000004         -3.6932185309979104E-008
  0.15500000000000003          4.9312379957200392E-008
  0.15610000000000002          6.5742206345476006E-008
  0.15720000000000001         -1.4256904101728196E-008
  0.15830000000000000         -7.2617950763742556E-008
  0.15940000000000004         -2.5296053252077400E-008
  0.16050000000000003          5.3363017116225819E-008
  0.16160000000000002          4.7713289319517571E-008
  0.16270000000000001         -2.5268212411333479E-008
  0.16380000000000000         -4.9617110420285826E-008
  0.16490000000000005          7.5093025131423019E-009
  0.16600000000000004          4.9642387978110492E-008
  0.16710000000000003          7.6003168203442328E-009
  0.16820000000000002         -5.0534701756532741E-008
  0.16930000000000001         -2.7791456247427959E-008
  0.17040000000000000          4.5855511388026571E-008
  0.17150000000000004          5.6113567126203634E-008
  0.17260000000000003         -1.8627682507599275E-008
  0.17370000000000002         -6.9579698447341798E-008
  0.17480000000000001         -2.0321037297321709E-008
  0.17590000000000000          5.7708355427621427E-008
  0.17700000000000005          5.1888910945763200E-008
  0.17810000000000004         -2.5105981293904733E-008
  0.17920000000000003         -5.9214784187133773E-008
  0.18030000000000002         -7.0560028930799490E-009
  0.18140000000000001          4.6104283057957218E-008
  0.18250000000000000          2.1999417398887999E-008
  0.18360000000000004         -3.4700871509585340E-008
  0.18470000000000003         -3.3278379163448335E-008
  0.18580000000000002          2.1113001125172559E-008
  0.18690000000000001          4.0414509072661531E-008
  0.18800000000000000         -5.6173887763577568E-009
  0.18910000000000005         -4.3247286640735183E-008
  0.19020000000000004         -1.2020826112291161E-008
  0.19130000000000003          4.0349746655010676E-008
  0.19240000000000002          3.2309049657897049E-008
  0.19350000000000001         -2.4999591730079374E-008
  0.19460000000000005         -4.5200678755463741E-008
  0.19570000000000004          1.1499056151720310E-009
  0.19680000000000003          4.3217522005534192E-008
  0.19790000000000002          1.9273594276114636E-008
  0.19900000000000001         -3.1239920872394578E-008
  0.20010000000000000         -3.1086976548522216E-008
  0.20120000000000005          1.7188487078101389E-008
  0.20230000000000004          3.8528174428620332E-008
  0.20340000000000003          1.2670090532296285E-009
  0.20450000000000002         -3.7444603862013537E-008
  0.20560000000000000         -2.1221522317205199E-008
  0.20670000000000005          2.1800955707362846E-008
  0.20780000000000004          2.6049093548863311E-008
  0.20890000000000003         -1.1676653421943683E-008
