 -0.12000000000000000          0.0000000000000000
 -0.11889999999999999          0.0000000000000000
 -0.11780000000000000          0.0000000000000000
 -0.11670000000000000          0.0000000000000000
 -0.11559999999999999          0.0000000000000000
 -0.11449999999999999          0.0000000000000000
 -0.11340000000000000          0.0000000000000000
 -0.11230000000000000          0.0000000000000000
 -0.11119999999999999          0.0000000000000000
 -0.11009999999999999          0.0000000000000000
 -0.10900000000000000          3.7337474201100635E-029
 -0.10790000000000000         -1.3452789180414976E-029
 -0.10679999999999999         -4.7176852879155723E-028
 -0.10569999999999999          9.6282158069072722E-030
 -0.10460000000000000          2.2791828592287760E-027
 -0.10349999999999999         -2.2450815732614779E-027
 -0.10239999999999999         -5.9567480139661473E-027
 -0.10130000000000000          4.9226106858636879E-026
 -0.10020000000000000          7.7164740560126534E-026
  -9.9099999999999994E-002    -3.5427758044617613E-025
  -9.7999999999999990E-002    -9.8178226301153364E-025
  -9.6899999999999986E-002     6.6351159763468510E-025
  -9.5799999999999996E-002     5.6465507914493876E-024
  -9.4699999999999993E-002     5.2667501587566580E-024
  -9.3599999999999989E-002    -1.2807479440373362E-023
  -9.2499999999999999E-002    -3.4929113741616301E-023
  -9.1399999999999995E-002    -1.6565152886938518E-023
  -9.0299999999999991E-002     5.5165484864212279E-023
  -8.9200000000000002E-002     1.2455054726560608E-022
  -8.8099999999999984E-002     1.5215369910705209E-022
  -8.6999999999999994E-002     1.0031455037934370E-022
  -8.5899999999999990E-002    -3.5796228386457789E-022
  -8.4799999999999986E-002    -1.5967273755367448E-021
  -8.3699999999999997E-002    -2.3731375565620213E-021
  -8.2599999999999993E-002     9.7029992316380320E-022
  -8.1499999999999989E-002     9.7754799230710324E-021
  -8.0399999999999999E-002     1.5159532291106200E-020
  -7.9299999999999995E-002     9.7619025287977987E-022
  -7.8199999999999992E-002    -3.4926208562539877E-020
  -7.7100000000000002E-002    -6.3323364227925066E-020
  -7.5999999999999984E-002    -4.1270703247867206E-020
  -7.4899999999999994E-002     4.8335358822824247E-020
  -7.3799999999999991E-002     1.8226358695874249E-019
  -7.2699999999999987E-002     2.9687592317650004E-019
  -7.1599999999999997E-002     2.4095349898545177E-019
  -7.0499999999999993E-002    -2.3417056626372866E-019
  -6.9399999999999989E-002    -1.1815500602471498E-018
  -6.8300000000000000E-002    -1.9091229276050372E-018
  -6.7199999999999996E-002    -9.8054661896283600E-019
  -6.6099999999999992E-002     2.4318719166219582E-018
  -6.5000000000000002E-002     6.6677159749715191E-018
  -6.3899999999999985E-002     7.5772482077684886E-018
  -6.2799999999999995E-002     1.5040647825518547E-018
  -6.1699999999999991E-002    -1.1101691917108916E-017
  -6.0599999999999994E-002    -2.4575483059391249E-017
  -5.9499999999999990E-002    -2.9130320015189994E-017
  -5.8399999999999994E-002    -1.2619689109513154E-017
  -5.7299999999999990E-002     3.3211185788718304E-017
  -5.6199999999999986E-002     9.6724459104756969E-017
  -5.5099999999999996E-002     1.3118858198475424E-016
  -5.3999999999999992E-002     7.0001879872974077E-017
  -5.2899999999999989E-002    -1.1374945738509888E-016
  -5.1799999999999985E-002    -3.4495149432157404E-016
  -5.0699999999999995E-002    -4.5484271663192959E-016
  -4.9599999999999991E-002    -2.8070600403602589E-016
  -4.8499999999999988E-002     2.1407235729525343E-016
  -4.7399999999999998E-002     8.8235083302301565E-016
  -4.6299999999999994E-002     1.4008283821250822E-015
  -4.5199999999999990E-002     1.3201906337882360E-015
  -4.4099999999999986E-002     2.3408586648452083E-016
  -4.2999999999999997E-002    -1.8395961074840197E-015
  -4.1899999999999993E-002    -4.0546175459818794E-015
  -4.0799999999999989E-002    -4.8309279008216556E-015
  -3.9699999999999985E-002    -2.7573757875918410E-015
  -3.8599999999999995E-002     2.2062741292515646E-015
  -3.7499999999999992E-002     8.2677767898001880E-015
  -3.6399999999999988E-002     1.2530716583445105E-014
  -3.5299999999999984E-002     1.2231601297682353E-014
  -3.4199999999999994E-002     5.6350819227035751E-015
  -3.3099999999999991E-002    -7.2451005495043942E-015
  -3.1999999999999987E-002    -2.3495147274672605E-014
  -3.0899999999999997E-002    -3.6482854226787403E-014
  -2.9799999999999993E-002    -3.7469962706595042E-014
  -2.8699999999999989E-002    -2.0199841826345002E-014
  -2.7599999999999986E-002     1.4547223357017948E-014
  -2.6499999999999996E-002     5.8218905499458906E-014
  -2.5399999999999992E-002     9.7321259937607069E-014
  -2.4299999999999988E-002     1.1583320565743127E-013
  -2.3199999999999985E-002     9.5981768811082696E-014
  -2.2099999999999995E-002     2.2458218010973363E-014
  -2.0999999999999991E-002    -1.0538203203949367E-013
  -1.9899999999999987E-002    -2.5925282428652940E-013
  -1.8799999999999983E-002    -3.7992056874623648E-013
  -1.7699999999999994E-002    -3.9509229763680376E-013
  -1.6599999999999990E-002    -2.4860156793392318E-013
  -1.5499999999999986E-002     7.4176653860023867E-014
  -1.4399999999999996E-002     5.2987968830395249E-013
  -1.3299999999999992E-002     1.0064086066255418E-012
  -1.2199999999999989E-002     1.3242382451011947E-012
  -1.1099999999999985E-002     1.2707100996434129E-012
  -9.9999999999999950E-003     6.7844693621768593E-013
  -8.8999999999999913E-003    -4.7666888882205716E-013
  -7.7999999999999875E-003    -2.0073495816952391E-012
  -6.6999999999999837E-003    -3.5112147564464458E-012
  -5.5999999999999939E-003    -4.4323242992527767E-012
  -4.4999999999999901E-003    -4.1779166931599221E-012
  -3.3999999999999864E-003    -2.2929162908635892E-012
  -2.2999999999999826E-003     1.3153509314731138E-012
  -1.1999999999999927E-003     6.1643966840774223E-012
  -9.9999999999988987E-005     1.1109008678233945E-011
   1.0000000000000148E-003     1.4475190143747874E-011
   2.1000000000000185E-003     1.4431187148056246E-011
   3.2000000000000084E-003     9.5314008421998331E-012
   4.3000000000000121E-003    -6.7370669589936205E-013
   5.4000000000000159E-003    -1.5105281608862597E-011
   6.5000000000000058E-003    -3.0896330632801394E-011
   7.6000000000000234E-003    -4.3611506767016195E-011
   8.7000000000000133E-003    -4.8054081547288519E-011
   9.8000000000000032E-003    -3.9579665933597852E-011
   1.0900000000000021E-002    -1.5664700439566026E-011
   1.2000000000000011E-002     2.2618943176788697E-011
   1.3100000000000001E-002     6.9631383992074802E-011
   1.4200000000000018E-002     1.1514279807389727E-010
   1.5300000000000008E-002     1.4563522610089308E-010
   1.6400000000000026E-002     1.4700279882262635E-010
   1.7500000000000016E-002     1.0827068408492124E-010
   1.8600000000000005E-002     2.5562559013980746E-011
   1.9700000000000023E-002    -9.4652521931415379E-011
   2.0800000000000013E-002    -2.3404919669012259E-010
   2.1900000000000003E-002    -3.6363567712527356E-010
   2.3000000000000020E-002    -4.4830236745063701E-010
   2.4100000000000010E-002    -4.5464154663221734E-010
   2.5200000000000000E-002    -3.6086203469842815E-010
   2.6300000000000018E-002    -1.6667703328643313E-010
   2.7400000000000008E-002     9.9406392839451740E-011
   2.8500000000000025E-002     3.7786374029735725E-010
   2.9600000000000015E-002     5.8292065618914535E-010
   3.0700000000000005E-002     6.1527077876988301E-010
   3.1800000000000023E-002     3.8215342001990393E-010
   3.2900000000000013E-002    -1.7779930305827918E-010
   3.4000000000000002E-002    -1.0693301799591381E-009
   3.5100000000000020E-002    -2.2203332505910112E-009
   3.6200000000000010E-002    -3.4717471120160326E-009
   3.7300000000000028E-002    -4.5813179916365243E-009
   3.8400000000000017E-002    -5.2426387675552633E-009
   3.9500000000000007E-002    -5.1176631821192586E-009
   4.0600000000000025E-002    -3.8776160060649545E-009
   4.1700000000000015E-002    -1.2444542063505537E-009
   4.2800000000000005E-002     2.9761346720391657E-009
   4.3900000000000022E-002     8.8783282947701991E-009
   4.5000000000000012E-002     1.6462410101780733E-008
   4.6100000000000002E-002     2.5666530234502716E-008
   4.7200000000000020E-002     3.6422065363694855E-008
   4.8300000000000010E-002     4.8726523260711474E-008
   4.9400000000000027E-002     6.2723856331103889E-008
   5.0500000000000017E-002     7.8780928447486076E-008
   5.1600000000000007E-002     9.7549090583015641E-008
   5.2700000000000025E-002     1.2000302263004414E-007
   5.3800000000000014E-002     1.4745170062724355E-007
   5.4900000000000004E-002     1.8152691438899637E-007
   5.6000000000000022E-002     2.2415410683152004E-007
   5.7100000000000012E-002     2.7752142273129721E-007
   5.8200000000000002E-002     3.4406127724651014E-007
   5.9300000000000019E-002     4.2645595499379851E-007
   6.0400000000000009E-002     5.2768359637411777E-007
   6.1500000000000027E-002     6.5110396008094540E-007
   6.2600000000000017E-002     8.0058839557750616E-007
   6.3700000000000007E-002     9.8067914677812951E-007
   6.4800000000000024E-002     1.1967581485805567E-006
   6.5900000000000014E-002     1.4552148286384181E-006
   6.7000000000000004E-002     1.7635903759583016E-006
   6.8100000000000022E-002     2.1306962025846587E-006
   6.9200000000000012E-002     2.5666854526207317E-006
   7.0300000000000029E-002     3.0831163257971639E-006
   7.1400000000000019E-002     3.6929982343281154E-006
   7.2500000000000009E-002     4.4108423935540486E-006
   7.3600000000000027E-002     5.2527348088915460E-006
   7.4700000000000016E-002     6.2364620134758297E-006
   7.5800000000000006E-002     7.3816513577185106E-006
   7.6900000000000024E-002     8.7099360825959593E-006
   7.8000000000000014E-002     1.0245122211927082E-005
   7.9100000000000004E-002     1.2013275409117341E-005
   8.0200000000000021E-002     1.4042819202586543E-005
   8.1300000000000011E-002     1.6364432667614892E-005
   8.2400000000000029E-002     1.9011071344721131E-005
   8.3500000000000019E-002     2.2017678929842077E-005
   8.4600000000000009E-002     2.5420906240469776E-005
   8.5700000000000026E-002     2.9258742870297283E-005
   8.6800000000000016E-002     3.3570155210327357E-005
   8.7900000000000006E-002     3.8394675357267261E-005
   8.9000000000000024E-002     4.3771873606601730E-005
   9.0100000000000013E-002     4.9740709073375911E-005
   9.1200000000000003E-002     5.6338794820476323E-005
   9.2300000000000021E-002     6.3601684814784676E-005
   9.3400000000000011E-002     7.1561909862793982E-005
   9.4500000000000028E-002     8.0248042650055140E-005
   9.5600000000000018E-002     8.9683191617950797E-005
   9.6700000000000008E-002     9.9883909570053220E-005
   9.7800000000000026E-002     1.1085879668826237E-004
   9.8900000000000016E-002     1.2260687071830034E-004
  0.10000000000000001          1.3511563884094357E-004
  0.10110000000000002          1.4835988986305892E-004
  0.10220000000000001          1.6230028995778412E-004
  0.10330000000000003          1.7688142543192953E-004
  0.10440000000000002          1.9203039119020104E-004
  0.10550000000000001          2.0765519002452493E-004
  0.10660000000000003          2.2364463075064123E-004
  0.10770000000000002          2.3986712039913982E-004
  0.10880000000000001          2.5616935454308987E-004
  0.10990000000000003          2.7237634640187025E-004
  0.11100000000000002          2.8829119401052594E-004
  0.11210000000000001          3.0369588057510555E-004
  0.11320000000000002          3.1835227855481207E-004
  0.11430000000000001          3.3200290636159480E-004
  0.11540000000000003          3.4437235444784164E-004
  0.11650000000000002          3.5516923526301980E-004
  0.11760000000000001          3.6409046151675284E-004
  0.11870000000000003          3.7082415656186640E-004
  0.11980000000000002          3.7505355430766940E-004
  0.12090000000000001          3.7646165583282709E-004
  0.12200000000000003          3.7473798147402704E-004
  0.12310000000000001          3.6958415876142681E-004
  0.12420000000000003          3.6071785143576562E-004
  0.12530000000000002          3.4787997719831765E-004
  0.12640000000000001          3.3084119786508381E-004
  0.12750000000000003          3.0940907890908420E-004
  0.12860000000000002          2.8343423036858439E-004
  0.12970000000000001          2.5281566195189953E-004
  0.13080000000000003          2.1750538144260645E-004
  0.13190000000000002          1.7751471023075283E-004
  0.13300000000000001          1.3292014773469418E-004
  0.13410000000000000          8.3867940702475607E-005
  0.13520000000000004          3.0575967684853822E-005
  0.13630000000000003         -2.6665193217922933E-005
  0.13740000000000002         -8.7491964222863317E-005
  0.13850000000000001         -1.5146769874263555E-004
  0.13960000000000000         -2.1808537712786347E-004
  0.14070000000000005         -2.8677072259597480E-004
  0.14180000000000004         -3.5688871867023408E-004
  0.14290000000000003         -4.2774790199473500E-004
  0.14400000000000002         -4.9861014122143388E-004
  0.14510000000000001         -5.6870048865675926E-004
  0.14620000000000000         -6.3721614424139261E-004
  0.14730000000000004         -7.0333731127902865E-004
  0.14840000000000003         -7.6623825589194894E-004
  0.14950000000000002         -8.2510273205116391E-004
  0.15060000000000001         -8.7913550669327378E-004
  0.15170000000000000         -9.2757999664172530E-004
  0.15280000000000005         -9.6972699975594878E-004
  0.15390000000000004         -1.0049276752397418E-003
  0.15500000000000003         -1.0326046030968428E-003
  0.15610000000000002         -1.0522659868001938E-003
  0.15720000000000001         -1.0635140351951122E-003
  0.15830000000000000         -1.0660550324246287E-003
  0.15940000000000004         -1.0597036452963948E-003
  0.16050000000000003         -1.0443878127261996E-003
  0.16160000000000002         -1.0201536351814866E-003
  0.16270000000000001         -9.8716502543538809E-004
  0.16380000000000000         -9.4570097280666232E-004
  0.16490000000000005         -8.9615368051454425E-004
  0.16600000000000004         -8.3902420010417700E-004
  0.16710000000000003         -7.7491474803537130E-004
  0.16820000000000002         -7.0451770443469286E-004
  0.16930000000000001         -6.2860379694029689E-004
  0.17040000000000000         -5.4801313672214746E-004
  0.17150000000000004         -4.6364424633793533E-004
  0.17260000000000003         -3.7643930409103632E-004
  0.17370000000000002         -2.8736572130583227E-004
  0.17480000000000001         -1.9739616254810244E-004
  0.17590000000000000         -1.0749603097792715E-004
  0.17700000000000005         -1.8613898646435700E-005
  0.17810000000000004          6.8330271460581571E-005
  0.17920000000000003          1.5246147813741118E-004
  0.18030000000000002          2.3296607832890004E-004
  0.18140000000000001          3.0910340137779713E-004
  0.18250000000000000          3.8021130603738129E-004
  0.18360000000000004          4.4571072794497013E-004
  0.18470000000000003          5.0511298468336463E-004
  0.18580000000000002          5.5802462156862020E-004
  0.18690000000000001          6.0415227198973298E-004
  0.18800000000000000          6.4330478198826313E-004
  0.18910000000000005          6.7539158044382930E-004
  0.19020000000000004          7.0041551953181624E-004
  0.19130000000000003          7.1846519131213427E-004
  0.19240000000000002          7.2970963083207607E-004
  0.19350000000000001          7.3439651168882847E-004
  0.19460000000000005          7.3284690733999014E-004
  0.19570000000000004          7.2544929571449757E-004
  0.19680000000000003          7.1264157304540277E-004
  0.19790000000000002          6.9489568704739213E-004
  0.19900000000000001          6.7271047737449408E-004
  0.20010000000000000          6.4660987118259072E-004
  0.20120000000000005          6.1713921604678035E-004
  0.20230000000000004          5.8485235786065459E-004
  0.20340000000000003          5.5029510986059904E-004
  0.20450000000000002          5.1399378571659327E-004
  0.20560000000000000          4.7645336599089205E-004
  0.20670000000000005          4.3815776007249951E-004
  0.20780000000000004          3.9956549881026149E-004
  0.20890000000000003          3.6110219662077725E-004
