 -0.12000000000000000          0.0000000000000000
 -0.11889999999999999          0.0000000000000000
 -0.11780000000000000          0.0000000000000000
 -0.11670000000000000          0.0000000000000000
 -0.11559999999999999          0.0000000000000000
 -0.11449999999999999          0.0000000000000000
 -0.11340000000000000          0.0000000000000000
 -0.11230000000000000          0.0000000000000000
 -0.11119999999999999          0.0000000000000000
 -0.11009999999999999          2.4000243043723909E-024
 -0.10900000000000000         -1.4065609243422292E-023
 -0.10790000000000000         -2.0158576815566703E-023
 -0.10679999999999999          2.3609294228718596E-022
 -0.10569999999999999          1.4395352155171589E-022
 -0.10460000000000000         -2.2927538167668016E-021
 -0.10349999999999999         -1.7718459136891606E-021
 -0.10239999999999999          1.5905059514325160E-020
 -0.10130000000000000          2.0831327190036181E-020
 -0.10020000000000000         -7.9272498574849951E-020
  -9.9099999999999994E-002    -1.7510789304879060E-019
  -9.7999999999999990E-002     2.4450923824608753E-019
  -9.6899999999999986E-002     1.0396054535427439E-018
  -9.5799999999999996E-002    -4.3666534956899017E-020
  -9.4699999999999993E-002    -4.2844899297883450E-018
  -9.3599999999999989E-002    -4.3870247569785807E-018
  -9.2499999999999999E-002     1.0761625559579178E-017
  -9.1399999999999995E-002     2.7231462398986739E-017
  -9.0299999999999991E-002    -3.8410259956894786E-018
  -8.9200000000000002E-002    -8.9253833650765953E-017
  -8.8099999999999984E-002    -9.5308881761437821E-017
  -8.6999999999999994E-002     1.3636487973476408E-016
  -8.5899999999999990E-002     4.2458908203617013E-016
  -8.4799999999999986E-002     1.7978692527990232E-016
  -8.3699999999999997E-002    -8.1178192414885892E-016
  -8.2599999999999993E-002    -1.4590217690629392E-015
  -8.1499999999999989E-002    -9.5569225278710311E-017
  -8.0399999999999999E-002     2.9471638955777708E-015
  -7.9299999999999995E-002     4.1579682710411129E-015
  -7.8199999999999992E-002     1.5542325339688384E-016
  -7.7100000000000002E-002    -7.2640452884026839E-015
  -7.5999999999999984E-002    -1.1160696695435793E-014
  -7.4899999999999994E-002    -5.5982410716956966E-015
  -7.3799999999999991E-002     9.6390697683292233E-015
  -7.2699999999999987E-002     2.9311121130075335E-014
  -7.1599999999999997E-002     4.0210724154684727E-014
  -7.0499999999999993E-002     1.6085597819557630E-014
  -6.9399999999999989E-002    -6.4578347552281257E-014
  -6.8300000000000000E-002    -1.6458464094631226E-013
  -6.7199999999999996E-002    -1.5898691868229675E-013
  -6.6099999999999992E-002     6.9542136806044486E-014
  -6.5000000000000002E-002     4.3670801566988993E-013
  -6.3899999999999985E-002     5.9355797187021775E-013
  -6.2799999999999995E-002     1.9792639207281970E-013
  -6.1699999999999991E-002    -6.5364716677479562E-013
  -6.0599999999999994E-002    -1.3335563122524041E-012
  -5.9499999999999990E-002    -1.1716846026396666E-012
  -5.8399999999999994E-002    -7.9709215573472991E-014
  -5.7299999999999990E-002     1.3725823862914543E-012
  -5.6199999999999986E-002     2.4587814423382426E-012
  -5.5099999999999996E-002     2.6846112138878553E-012
  -5.3999999999999992E-002     1.6823696298920443E-012
  -5.2899999999999989E-002    -8.1628014894294387E-013
  -5.1799999999999985E-002    -4.3534811172696308E-012
  -5.0699999999999995E-002    -7.1745439450543458E-012
  -4.9599999999999991E-002    -7.0335395493947850E-012
  -4.8499999999999988E-002    -3.1000783537460386E-012
  -4.7399999999999998E-002     3.2307409785631291E-012
  -4.6299999999999994E-002     9.8256411687480671E-012
  -4.5199999999999990E-002     1.5510887713121591E-011
  -4.4099999999999986E-002     1.9168054296581083E-011
  -4.2999999999999997E-002     1.7401243640469133E-011
  -4.1899999999999993E-002     5.4186507711384557E-012
  -4.0799999999999989E-002    -1.7505731239597644E-011
  -3.9699999999999985E-002    -4.3707055336072997E-011
  -3.8599999999999995E-002    -6.0405881685543505E-011
  -3.7499999999999992E-002    -5.8461339935700352E-011
  -3.6399999999999988E-002    -3.7237428418546159E-011
  -3.5299999999999984E-002    -1.0054464856176781E-012
  -3.4199999999999994E-002     4.6556928451346735E-011
  -3.3099999999999991E-002     1.0134643124715126E-010
  -3.1999999999999987E-002     1.5312316692384087E-010
  -3.0899999999999997E-002     1.8410396818158148E-010
  -2.9799999999999993E-002     1.7434159671481098E-010
  -2.8699999999999989E-002     1.0730594884877931E-010
  -2.7599999999999986E-002    -2.7166166885472798E-011
  -2.6499999999999996E-002    -2.2586447989692005E-010
  -2.5399999999999992E-002    -4.5923864711028273E-010
  -2.4299999999999988E-002    -6.6683886190688213E-010
  -2.3199999999999985E-002    -7.7470385662081753E-010
  -2.2099999999999995E-002    -7.2147027241342698E-010
  -2.0999999999999991E-002    -4.6297965461405965E-010
  -1.9899999999999987E-002     4.8685517423097124E-011
  -1.8799999999999983E-002     8.7559443029405770E-010
  -1.7699999999999994E-002     2.0656885091341337E-009
  -1.6599999999999990E-002     3.6150213933439090E-009
  -1.5499999999999986E-002     5.4777875568845502E-009
  -1.4399999999999996E-002     7.6281585492665727E-009
  -1.3299999999999992E-002     1.0106932180065087E-008
  -1.2199999999999989E-002     1.3000409637697885E-008
  -1.1099999999999985E-002     1.6389741119837709E-008
  -9.9999999999999950E-003     2.0351535567897372E-008
  -8.8999999999999913E-003     2.5020865379588031E-008
  -7.7999999999999875E-003     3.0640411097238029E-008
  -6.6999999999999837E-003     3.7540822006576491E-008
  -5.5999999999999939E-003     4.6092317518287018E-008
  -4.4999999999999901E-003     5.6697942341088492E-008
  -3.3999999999999864E-003     6.9819741099763633E-008
  -2.2999999999999826E-003     8.5982541975226923E-008
  -1.1999999999999927E-003     1.0575476494523173E-007
  -9.9999999999988987E-005     1.2977093888366653E-007
   1.0000000000000148E-003     1.5880050341365859E-007
   2.1000000000000185E-003     1.9377682747290237E-007
   3.2000000000000084E-003     2.3574840213314019E-007
   4.3000000000000121E-003     2.8586293865373591E-007
   5.4000000000000159E-003     3.4549216820778383E-007
   6.5000000000000058E-003     4.1640041104074044E-007
   7.6000000000000234E-003     5.0071150781150209E-007
   8.7000000000000133E-003     6.0067389995310805E-007
   9.8000000000000032E-003     7.1852713290354586E-007
   1.0900000000000021E-002     8.5670797034254065E-007
   1.2000000000000011E-002     1.0182355936194654E-006
   1.3100000000000001E-002     1.2068173873558408E-006
   1.4200000000000018E-002     1.4265565368987154E-006
   1.5300000000000008E-002     1.6816551351439557E-006
   1.6400000000000026E-002     1.9764938770094886E-006
   1.7500000000000016E-002     2.3160125692811562E-006
   1.8600000000000005E-002     2.7058749765274115E-006
   1.9700000000000023E-002     3.1522988592769252E-006
   2.0800000000000013E-002     3.6617545902117854E-006
   2.1900000000000003E-002     4.2409201341797598E-006
   2.3000000000000020E-002     4.8967053771775682E-006
   2.4100000000000010E-002     5.6363833209616132E-006
   2.5200000000000000E-002     6.4675559769966640E-006
   2.6300000000000018E-002     7.3983287620649207E-006
   2.7400000000000008E-002     8.4371686170925386E-006
   2.8500000000000025E-002     9.5923678600229323E-006
   2.9600000000000015E-002     1.0871367521758657E-005
   3.0700000000000005E-002     1.2280663213459775E-005
   3.1800000000000023E-002     1.3826747817802243E-005
   3.2900000000000013E-002     1.5516579878749326E-005
   3.4000000000000002E-002     1.7356511307298206E-005
   3.5100000000000020E-002     1.9350691218278371E-005
   3.6200000000000010E-002     2.1500558432308026E-005
   3.7300000000000028E-002     2.3805652745068073E-005
   3.8400000000000017E-002     2.6264537154929712E-005
   3.9500000000000007E-002     2.8874697818537243E-005
   4.0600000000000025E-002     3.1630173907615244E-005
   4.1700000000000015E-002     3.4521108318585902E-005
   4.2800000000000005E-002     3.7533773138420656E-005
   4.3900000000000022E-002     4.0650658775120974E-005
   4.5000000000000012E-002     4.3851821828866377E-005
   4.6100000000000002E-002     4.7113502660067752E-005
   4.7200000000000020E-002     5.0408132665324956E-005
   4.8300000000000010E-002     5.3703461162513122E-005
   4.9400000000000027E-002     5.6961114751175046E-005
   5.0500000000000017E-002     6.0137404943816364E-005
   5.1600000000000007E-002     6.3184401369653642E-005
   5.2700000000000025E-002     6.6053369664587080E-005
   5.3800000000000014E-002     6.8693298089783639E-005
   5.4900000000000004E-002     7.1048649260774255E-005
   5.6000000000000022E-002     7.3057708505075425E-005
   5.7100000000000012E-002     7.4655814387369901E-005
   5.8200000000000002E-002     7.5778392783831805E-005
   5.9300000000000019E-002     7.6362804975360632E-005
   6.0400000000000009E-002     7.6350566814653575E-005
   6.1500000000000027E-002     7.5680218287743628E-005
   6.2600000000000017E-002     7.4291572673246264E-005
   6.3700000000000007E-002     7.2126364102587104E-005
   6.4800000000000024E-002     6.9134526711422950E-005
   6.5900000000000014E-002     6.5275242377538234E-005
   6.7000000000000004E-002     6.0515478253364563E-005
   6.8100000000000022E-002     5.4833388276165351E-005
   6.9200000000000012E-002     4.8213812988251448E-005
   7.0300000000000029E-002     4.0648948925081640E-005
   7.1400000000000019E-002     3.2143932912731543E-005
   7.2500000000000009E-002     2.2719261323800310E-005
   7.3600000000000027E-002     1.2418573533068411E-005
   7.4700000000000016E-002     1.2993680229556048E-006
   7.5800000000000006E-002    -1.0572742212389130E-005
   7.6900000000000024E-002    -2.3125356165110134E-005
   7.8000000000000014E-002    -3.6271430872147903E-005
   7.9100000000000004E-002    -4.9900037993211299E-005
   8.0200000000000021E-002    -6.3879735535010695E-005
   8.1300000000000011E-002    -7.8070072049740702E-005
   8.2400000000000029E-002    -9.2331130872480571E-005
   8.3500000000000019E-002    -1.0652037599356845E-004
   8.4600000000000009E-002    -1.2048285861965269E-004
   8.5700000000000026E-002    -1.3405145728029311E-004
   8.6800000000000016E-002    -1.4705462672282010E-004
   8.7900000000000006E-002    -1.5932371024973691E-004
   8.9000000000000024E-002    -1.7069694877136499E-004
   9.0100000000000013E-002    -1.8102196918334812E-004
   9.1200000000000003E-002    -1.9015865109395236E-004
   9.2300000000000021E-002    -1.9797474669758230E-004
   9.3400000000000011E-002    -2.0434323232620955E-004
   9.4500000000000028E-002    -2.0914612105116248E-004
   9.5600000000000018E-002    -2.1228761761449277E-004
   9.6700000000000008E-002    -2.1370504691731185E-004
   9.7800000000000026E-002    -2.1336411009542644E-004
   9.8900000000000016E-002    -2.1124538034200668E-004
  0.10000000000000001         -2.0733867131639272E-004
  0.10110000000000002         -2.0165077876299620E-004
  0.10220000000000001         -1.9422332115937024E-004
  0.10330000000000003         -1.8513480608817190E-004
  0.10440000000000002         -1.7448441940359771E-004
  0.10550000000000001         -1.6238533135037869E-004
  0.10660000000000003         -1.4896158245392144E-004
  0.10770000000000002         -1.3435566506814212E-004
  0.10880000000000001         -1.1872596223838627E-004
  0.10990000000000003         -1.0224627476418391E-004
  0.11100000000000002         -8.5107101767789572E-005
  0.11210000000000001         -6.7505585320759565E-005
  0.11320000000000002         -4.9639165808912367E-005
  0.11430000000000001         -3.1697130907559767E-005
  0.11540000000000003         -1.3863567801308818E-005
  0.11650000000000002          3.6791880120290443E-006
  0.11760000000000001          2.0749848772538826E-005
  0.11870000000000003          3.7168607377680019E-005
  0.11980000000000002          5.2770967158721760E-005
  0.12090000000000001          6.7426415625959635E-005
  0.12200000000000003          8.1021971709560603E-005
  0.12310000000000001          9.3457158072851598E-005
  0.12420000000000003          1.0463633225299418E-004
  0.12530000000000002          1.1448645818745717E-004
  0.12640000000000001          1.2295723718125373E-004
  0.12750000000000003          1.3002501509618014E-004
  0.12860000000000002          1.3568258145824075E-004
  0.12970000000000001          1.3994000619277358E-004
  0.13080000000000003          1.4282806660048664E-004
  0.13190000000000002          1.4439311053138226E-004
  0.13300000000000001          1.4468896551989019E-004
  0.13410000000000000          1.4377626939676702E-004
  0.13520000000000004          1.4173392264638096E-004
  0.13630000000000003          1.3866364315617830E-004
  0.13740000000000002          1.3467515236698091E-004
  0.13850000000000001          1.2986973160877824E-004
  0.13960000000000000          1.2433774827513844E-004
  0.14070000000000005          1.1817694030469283E-004
  0.14180000000000004          1.1150313366670161E-004
  0.14290000000000003          1.0443721112096682E-004
  0.14400000000000002          9.7084688604809344E-005
  0.14510000000000001          8.9533707068767399E-005
  0.14620000000000000          8.1867721746675670E-005
  0.14730000000000004          7.4174255132675171E-005
  0.14840000000000003          6.6536718804854900E-005
  0.14950000000000002          5.9024390793638304E-005
  0.15060000000000001          5.1696188165806234E-005
  0.15170000000000000          4.4607266318053007E-005
  0.15280000000000005          3.7806512409588322E-005
  0.15390000000000004          3.1327137548942119E-005
  0.15500000000000003          2.5188701329170726E-005
  0.15610000000000002          1.9410079403314739E-005
  0.15720000000000001          1.4015187844051979E-005
  0.15830000000000000          9.0188477770425379E-006
  0.15940000000000004          4.4138996599940583E-006
  0.16050000000000003          1.7931793649950123E-007
  0.16160000000000002         -3.6970297969673993E-006
  0.16270000000000001         -7.2153598011936992E-006
  0.16380000000000000         -1.0380485946370754E-005
  0.16490000000000005         -1.3218529602454510E-005
  0.16600000000000004         -1.5766407159389928E-005
  0.16710000000000003         -1.8051132428809069E-005
  0.16820000000000002         -2.0084546122234315E-005
  0.16930000000000001         -2.1881543943891302E-005
  0.17040000000000000         -2.3469750885851681E-005
  0.17150000000000004         -2.4879964257706888E-005
  0.17260000000000003         -2.6131099730264395E-005
  0.17370000000000002         -2.7234791559749283E-005
  0.17480000000000001         -2.8208100047777407E-005
  0.17590000000000000         -2.9074048143229447E-005
  0.17700000000000005         -2.9845801691408269E-005
  0.17810000000000004         -3.0521354347001761E-005
  0.17920000000000003         -3.1099261832423508E-005
  0.18030000000000002         -3.1591884180670604E-005
  0.18140000000000001         -3.2014188036555424E-005
  0.18250000000000000         -3.2362280762754381E-005
  0.18360000000000004         -3.2613879739074036E-005
  0.18470000000000003         -3.2752777769928798E-005
  0.18580000000000002         -3.2781390473246574E-005
  0.18690000000000001         -3.2704741897759959E-005
  0.18800000000000000         -3.2508254662388936E-005
  0.18910000000000005         -3.2163778087124228E-005
  0.19020000000000004         -3.1651150493416935E-005
  0.19130000000000003         -3.0965256883064285E-005
  0.19240000000000002         -3.0098090064711869E-005
  0.19350000000000001         -2.9025477488175966E-005
  0.19460000000000005         -2.7724379833671264E-005
  0.19570000000000004         -2.6189758500549942E-005
  0.19680000000000003         -2.4426059098914266E-005
  0.19790000000000002         -2.2422145775635727E-005
  0.19900000000000001         -2.0154695448582061E-005
  0.20010000000000000         -1.7613423551665619E-005
  0.20120000000000005         -1.4815240319876466E-005
  0.20230000000000004         -1.1783323316194583E-005
  0.20340000000000003         -8.5217034211382270E-006
  0.20450000000000002         -5.0225348786625545E-006
  0.20560000000000000         -1.2963449762537493E-006
  0.20670000000000005          2.6210605028609280E-006
  0.20780000000000004          6.6904035520565230E-006
  0.20890000000000003          1.0887014468607958E-005
