 -0.12000000000000000          0.0000000000000000
 -0.11889999999999999          0.0000000000000000
 -0.11780000000000000          0.0000000000000000
 -0.11670000000000000          1.2546763107634806E-011
 -0.11559999999999999          1.3697711367943732E-011
 -0.11449999999999999         -3.8519888667654101E-011
 -0.11340000000000000         -6.0437016502490337E-011
 -0.11230000000000000          8.1728214473830718E-011
 -0.11119999999999999          2.1664814386923581E-010
 -0.11009999999999999         -3.4040596730289252E-011
 -0.10900000000000000         -4.8208065317467685E-010
 -0.10790000000000000         -2.7206731312290344E-010
 -0.10679999999999999          7.1667344281323153E-010
 -0.10569999999999999          1.0246072879027679E-009
 -0.10460000000000000         -4.2161374391724848E-010
 -0.10349999999999999         -1.8818482327986885E-009
 -0.10239999999999999         -6.0493343667644695E-010
 -0.10130000000000000          2.4258650643815827E-009
 -0.10020000000000000          2.5024655680994101E-009
  -9.9099999999999994E-002    -1.8537364976367599E-009
  -9.7999999999999990E-002    -4.8300967669945294E-009
  -9.6899999999999986E-002    -6.5601379883872823E-010
  -9.5799999999999996E-002     6.4044045622324575E-009
  -9.4699999999999993E-002     5.8165889882388910E-009
  -9.3599999999999989E-002    -3.7803649099998893E-009
  -9.2499999999999999E-002    -9.8755350563806132E-009
  -9.1399999999999995E-002    -2.5646724743921823E-009
  -9.0299999999999991E-002     9.5435108704577942E-009
  -8.9200000000000002E-002     9.3253875732557390E-009
  -8.8099999999999984E-002    -4.2171026670700940E-009
  -8.6999999999999994E-002    -1.2694454376571684E-008
  -8.5899999999999990E-002    -3.9121625938776106E-009
  -8.4799999999999986E-002     9.9854435831048249E-009
  -8.3699999999999997E-002     9.7388079822735563E-009
  -8.2599999999999993E-002    -2.9504445553385494E-009
  -8.1499999999999989E-002    -8.7991400832265754E-009
  -8.0399999999999999E-002    -8.1161882770075522E-010
  -7.9299999999999995E-002     5.8463021090915390E-009
  -7.8199999999999992E-002    -3.1166291769579857E-010
  -7.7100000000000002E-002    -7.3378534359846981E-009
  -7.5999999999999984E-002     2.6067440307003809E-012
  -7.4899999999999994E-002     1.1607259153834093E-008
  -7.3799999999999991E-002     4.7749653120376934E-009
  -7.2699999999999987E-002    -1.6708000316612015E-008
  -7.1599999999999997E-002    -2.0921376631122257E-008
  -7.0499999999999993E-002     5.0175761323600909E-009
  -6.9399999999999989E-002     2.8317584721548883E-008
  -6.8300000000000000E-002     1.2552283656930285E-008
  -6.7199999999999996E-002    -2.6888463011687236E-008
  -6.6099999999999992E-002    -3.8679257130525002E-008
  -6.5000000000000002E-002    -6.8551542220518513E-009
  -6.3899999999999985E-002     2.4598611148007876E-008
  -6.2799999999999995E-002     1.2654564507386112E-008
  -6.1699999999999991E-002    -2.5248594326399143E-008
  -6.0599999999999994E-002    -3.9291585096634662E-008
  -5.9499999999999990E-002    -1.9410153484500370E-008
  -5.8399999999999994E-002    -3.7977163636071509E-009
  -5.7299999999999990E-002    -1.5915663453824891E-008
  -5.6199999999999986E-002    -3.1356048424413530E-008
  -5.5099999999999996E-002    -2.4918396235307227E-008
  -5.3999999999999992E-002    -1.7667669993670643E-008
  -5.2899999999999989E-002    -4.2300264624373085E-008
  -5.1799999999999985E-002    -8.0383536271710909E-008
  -5.0699999999999995E-002    -7.9860299706524529E-008
  -4.9599999999999991E-002    -3.7813578046552720E-008
  -4.8499999999999988E-002    -1.9334718714958399E-008
  -4.7399999999999998E-002    -6.9043757378040027E-008
  -4.6299999999999994E-002    -1.3947962429483596E-007
  -4.5199999999999990E-002    -1.5016995291716739E-007
  -4.4099999999999986E-002    -1.0024763241744949E-007
  -4.2999999999999997E-002    -7.1607423990371899E-008
  -4.1899999999999993E-002    -1.1483549400281845E-007
  -4.0799999999999989E-002    -1.8238506527268328E-007
  -3.9699999999999985E-002    -2.0372689846226422E-007
  -3.8599999999999995E-002    -1.8455594386068697E-007
  -3.7499999999999992E-002    -1.8541034307872906E-007
  -3.6399999999999988E-002    -2.2232156027257588E-007
  -3.5299999999999984E-002    -2.4812757715153566E-007
  -3.4199999999999994E-002    -2.3917490921121498E-007
  -3.3099999999999991E-002    -2.4114100938277261E-007
  -3.1999999999999987E-002    -2.9350266572691908E-007
  -3.0899999999999997E-002    -3.5240782381151803E-007
  -2.9799999999999993E-002    -3.4678424754019943E-007
  -2.8699999999999989E-002    -2.9020611691521481E-007
  -2.7599999999999986E-002    -2.7517043577063305E-007
  -2.6499999999999996E-002    -3.4213570643260027E-007
  -2.5399999999999992E-002    -4.1482653045932238E-007
  -2.4299999999999988E-002    -4.0529283751311596E-007
  -2.3199999999999985E-002    -3.3612784022807318E-007
  -2.2099999999999995E-002    -3.0349946200658451E-007
  -2.0999999999999991E-002    -3.3654134767857613E-007
  -1.9899999999999987E-002    -3.6625277743951301E-007
  -1.8799999999999983E-002    -3.3378424291186093E-007
  -1.7699999999999994E-002    -2.7622689913187060E-007
  -1.6599999999999990E-002    -2.5727987917889550E-007
  -1.5499999999999986E-002    -2.6014041054622794E-007
  -1.4399999999999996E-002    -2.1584932596852013E-007
  -1.3299999999999992E-002    -1.2202750099277182E-007
  -1.2199999999999989E-002    -5.4935224369501157E-008
  -1.1099999999999985E-002    -5.3011195433327885E-008
  -9.9999999999999950E-003    -4.7279502979336030E-008
  -8.8999999999999913E-003     4.1310045162390452E-008
  -7.7999999999999875E-003     1.8241615862280014E-007
  -6.6999999999999837E-003     2.7584940198721597E-007
  -5.5999999999999939E-003     2.9361589781728981E-007
  -4.4999999999999901E-003     3.1871903161118098E-007
  -3.3999999999999864E-003     4.1583993493077287E-007
  -2.2999999999999826E-003     5.4321833431458799E-007
  -1.1999999999999927E-003     6.2487055174642592E-007
  -9.9999999999988987E-005     6.5861092934937915E-007
   1.0000000000000148E-003     7.1396686962543754E-007
   2.1000000000000185E-003     8.1265869766866672E-007
   3.2000000000000084E-003     8.9799908664645045E-007
   4.3000000000000121E-003     9.2332106760295574E-007
   5.4000000000000159E-003     9.2937261797487736E-007
   6.5000000000000058E-003     9.7949100563710090E-007
   7.6000000000000234E-003     1.0582201639408595E-006
   8.7000000000000133E-003     1.0879938372454490E-006
   9.8000000000000032E-003     1.0471022733327118E-006
   1.0900000000000021E-002     1.0032044883701019E-006
   1.2000000000000011E-002     1.0100571898874477E-006
   1.3100000000000001E-002     1.0312904805687140E-006
   1.4200000000000018E-002     9.9248416063346667E-007
   1.5300000000000008E-002     8.9642207967699505E-007
   1.6400000000000026E-002     8.1179706512557459E-007
   1.7500000000000016E-002     7.7055182146068546E-007
   1.8600000000000005E-002     7.2107098958440474E-007
   1.9700000000000023E-002     6.1395320472001913E-007
   2.0800000000000013E-002     4.7689047733001644E-007
   2.1900000000000003E-002     3.7207254877102969E-007
   2.3000000000000020E-002     3.0039294074413192E-007
   2.4100000000000010E-002     2.0599226502326928E-007
   2.5200000000000000E-002     6.6164695056158962E-008
   2.6300000000000018E-002    -7.0282219155615167E-008
   2.7400000000000008E-002    -1.6405658698204206E-007
   2.8500000000000025E-002    -2.4151088950929989E-007
   2.9600000000000015E-002    -3.4827712624974083E-007
   3.0700000000000005E-002    -4.7536377678625286E-007
   3.1800000000000023E-002    -5.7026960575967678E-007
   3.2900000000000013E-002    -6.1941193507664138E-007
   3.4000000000000002E-002    -6.6383785224388703E-007
   3.5100000000000020E-002    -7.3885939855244942E-007
   3.6200000000000010E-002    -8.1804211049529840E-007
   3.7300000000000028E-002    -8.5526943394143018E-007
   3.8400000000000017E-002    -8.5294152540882351E-007
   3.9500000000000007E-002    -8.5123144799581496E-007
   4.0600000000000025E-002    -8.6363490936491871E-007
   4.1700000000000015E-002    -8.6629933093718137E-007
   4.2800000000000005E-002    -8.4345225559445680E-007
   4.3900000000000022E-002    -8.0879345887296950E-007
   4.5000000000000012E-002    -7.7270794918149477E-007
   4.6100000000000002E-002    -7.3146208023899817E-007
   4.7200000000000020E-002    -6.6805557707994012E-007
   4.8300000000000010E-002    -5.9673692476280848E-007
   4.9400000000000027E-002    -5.3837868563277880E-007
   5.0500000000000017E-002    -4.9047685024561360E-007
   5.1600000000000007E-002    -4.2979098680007155E-007
   5.2700000000000025E-002    -3.5072275750280824E-007
   5.3800000000000014E-002    -2.7192805873710313E-007
   5.4900000000000004E-002    -2.0791287624888355E-007
   5.6000000000000022E-002    -1.5039736922517477E-007
   5.7100000000000012E-002    -8.8019724842069991E-008
   5.8200000000000002E-002    -2.6695188282133131E-008
   5.9300000000000019E-002     1.8822056802036968E-008
   6.0400000000000009E-002     5.4654446302038195E-008
   6.1500000000000027E-002     1.0399934069482697E-007
   6.2600000000000017E-002     1.6280041847949178E-007
   6.3700000000000007E-002     1.9924344485389156E-007
   6.4800000000000024E-002     2.0272921119612874E-007
   6.5900000000000014E-002     2.0283223989281396E-007
   6.7000000000000004E-002     2.2512696773446805E-007
   6.8100000000000022E-002     2.5157399363706645E-007
   6.9200000000000012E-002     2.5012451487782528E-007
   7.0300000000000029E-002     2.3033115326143161E-007
   7.1400000000000019E-002     2.2919471120985691E-007
   7.2500000000000009E-002     2.4882515958779550E-007
   7.3600000000000027E-002     2.4734384851399227E-007
   7.4700000000000016E-002     2.0470797323923762E-007
   7.5800000000000006E-002     1.6358923460302321E-007
   7.6900000000000024E-002     1.6720269968573120E-007
   7.8000000000000014E-002     1.9049036836804589E-007
   7.9100000000000004E-002     1.7255703710361558E-007
   8.0200000000000021E-002     1.1029680280216780E-007
   8.1300000000000011E-002     6.7039927387213538E-008
   8.2400000000000029E-002     7.7344395776890451E-008
   8.3500000000000019E-002     9.6069840083146119E-008
   8.4600000000000009E-002     6.8435376476827514E-008
   8.5700000000000026E-002     1.8577889449034046E-008
   8.6800000000000016E-002     1.1788737097617741E-008
   8.7900000000000006E-002     4.3873786381709579E-008
   8.9000000000000024E-002     4.2086895746251685E-008
   9.0100000000000013E-002    -1.9015031327285215E-008
   9.1200000000000003E-002    -6.9556591597574879E-008
   9.2300000000000021E-002    -4.2411624434635087E-008
   9.3400000000000011E-002     1.8488147901507546E-008
   9.4500000000000028E-002     1.8418827352206790E-008
   9.5600000000000018E-002    -4.8944734487577080E-008
   9.6700000000000008E-002    -9.0267114671860327E-008
   9.7800000000000026E-002    -5.1418442836848044E-008
   9.8900000000000016E-002     2.4918955787711639E-009
  0.10000000000000001         -9.1671648050350996E-009
  0.10110000000000002         -5.9353688186547515E-008
  0.10220000000000001         -6.1066494083661382E-008
  0.10330000000000003         -9.6401073790275404E-009
  0.10440000000000002          7.6187074427025436E-009
  0.10550000000000001         -4.6890516358644163E-008
  0.10660000000000003         -9.0635005278727476E-008
  0.10770000000000002         -4.4637666007929511E-008
  0.10880000000000001          3.6855094975862812E-008
  0.10990000000000003          3.7873064684390556E-008
  0.11100000000000002         -4.4159921941400171E-008
  0.11210000000000001         -8.8444551238353597E-008
  0.11320000000000002         -2.8700531728986789E-008
  0.11430000000000001          4.7029399041775832E-008
  0.11540000000000003          3.0878290147029475E-008
  0.11650000000000002         -4.3398006965844615E-008
  0.11760000000000001         -5.6929959413309916E-008
  0.11870000000000003          8.7654177249874010E-009
  0.11980000000000002          4.6412527154870986E-008
  0.12090000000000001         -6.4915721686986672E-009
  0.12200000000000003         -6.5880506383564352E-008
  0.12310000000000001         -3.1361626184889246E-008
  0.12420000000000003          5.3092882978944544E-008
  0.12530000000000002          6.1989226196601521E-008
  0.12640000000000001         -1.9390729022461528E-008
  0.12750000000000003         -6.9590342377523484E-008
  0.12860000000000002         -1.4527821612375647E-008
  0.12970000000000001          5.9865598700525879E-008
  0.13080000000000003          4.0800919975936267E-008
  0.13190000000000002         -3.8942943092479254E-008
  0.13300000000000001         -5.3860055970744725E-008
  0.13410000000000000          1.7890064540893036E-008
  0.13520000000000004          6.1025936304304196E-008
  0.13630000000000003          4.6122363706047054E-009
  0.13740000000000002         -6.3575633646451024E-008
  0.13850000000000001         -3.1664747268678184E-008
  0.13960000000000000          5.9698194831980800E-008
  0.14070000000000005          7.3447033344109514E-008
  0.14180000000000004         -1.5863518498804297E-008
  0.14290000000000003         -8.0749650521738658E-008
  0.14400000000000002         -3.0062839329048074E-008
  0.14510000000000001          5.6597375674982686E-008
  0.14620000000000000          5.2684210771758444E-008
  0.14730000000000004         -2.6524936913574493E-008
  0.14840000000000003         -5.5437869406205209E-008
  0.14950000000000002          5.3971604963010122E-009
  0.15060000000000001          5.3564047419740746E-008
  0.15170000000000000          1.0342616540981453E-008
  0.15280000000000005         -5.4342372379778681E-008
  0.15390000000000004         -3.2865962396044779E-008
  0.15500000000000003          4.7361158550529581E-008
  0.15610000000000002          6.2300344438881439E-008
  0.15720000000000001         -1.6558695747903585E-008
  0.15830000000000000         -7.4222541002200160E-008
  0.15940000000000004         -2.4602750059443679E-008
  0.16050000000000003          5.8832362981320330E-008
  0.16160000000000002          5.4172854646594715E-008
  0.16270000000000001         -2.6625690097148436E-008
  0.16380000000000000         -6.0499743881337054E-008
  0.16490000000000005         -1.4126809722014855E-009
  0.16600000000000004          5.4815927796880715E-008
  0.16710000000000003          2.2463730431354634E-008
  0.16820000000000002         -4.3677594874225179E-008
  0.16930000000000001         -3.7703621558193845E-008
  0.17040000000000000          3.1323569515961935E-008
  0.17150000000000004          5.4743033217619086E-008
  0.17260000000000003         -6.3314287146454262E-009
  0.17370000000000002         -6.0269144341873471E-008
  0.17480000000000001         -2.5689455895872015E-008
  0.17590000000000000          4.5010580151938484E-008
  0.17700000000000005          4.7053781315753440E-008
  0.17810000000000004         -1.8481776109524617E-008
  0.17920000000000003         -5.0626145053911387E-008
  0.18030000000000002         -4.4713872604518201E-009
  0.18140000000000001          4.4469867788166084E-008
  0.18250000000000000          2.0806050216037875E-008
  0.18360000000000004         -3.5783443763648393E-008
  0.18470000000000003         -3.5931257968968566E-008
  0.18580000000000002          2.0150446644606745E-008
  0.18690000000000001          4.4960057010712262E-008
  0.18800000000000000         -8.0063865259827338E-011
  0.18910000000000005         -4.6061447989131921E-008
  0.19020000000000004         -2.3269784321655607E-008
  0.19130000000000003          3.3295265211563674E-008
  0.19240000000000002          3.9437043852785791E-008
  0.19350000000000001         -1.0891031188009492E-008
  0.19460000000000005         -4.0317715388482611E-008
  0.19570000000000004         -7.5334556370876271E-009
  0.19680000000000003          3.3645498831447185E-008
  0.19790000000000002          2.0675578582540766E-008
  0.19900000000000001         -2.3422705552889056E-008
  0.20010000000000000         -2.9847317506437321E-008
  0.20120000000000005          9.5813570410996363E-009
  0.20230000000000004          3.3362574924922228E-008
  0.20340000000000003          6.8814021148000393E-009
  0.20450000000000002         -2.6626370441817926E-008
  0.20560000000000000         -1.5314064683025208E-008
  0.20670000000000005          2.2448013226039620E-008
  0.20780000000000004          2.9082634966925980E-008
  0.20890000000000003         -4.2511971720671227E-009
