 -0.12000000000000000          0.0000000000000000
 -0.11889999999999999          0.0000000000000000
 -0.11780000000000000          0.0000000000000000
 -0.11670000000000000          0.0000000000000000
 -0.11559999999999999          0.0000000000000000
 -0.11449999999999999          0.0000000000000000
 -0.11340000000000000          0.0000000000000000
 -0.11230000000000000          4.5173367227286533E-021
 -0.11119999999999999         -2.1335585054060316E-021
 -0.11009999999999999         -5.0255070541149363E-020
 -0.10900000000000000          6.3249792005434729E-021
 -0.10790000000000000          3.2296858596705518E-019
 -0.10679999999999999          1.0674466598259625E-019
 -0.10569999999999999         -1.4623058100980340E-018
 -0.10460000000000000         -1.2596277416636066E-018
 -0.10349999999999999          4.7662502582968852E-018
 -0.10239999999999999          7.2483777398296558E-018
 -0.10130000000000000         -1.0592429074003906E-017
 -0.10020000000000000         -2.7792593602401887E-017
  -9.9099999999999994E-002     1.2570456973815223E-017
  -9.7999999999999990E-002     7.9820507126533615E-017
  -9.6899999999999986E-002     1.2145739433938646E-017
  -9.5799999999999996E-002    -1.8955684152154983E-016
  -9.4699999999999993E-002    -1.2844003948025284E-016
  -9.3599999999999989E-002     3.9215216707930351E-016
  -9.2499999999999999E-002     5.3949000130372243E-016
  -9.1399999999999995E-002    -6.0574216558087523E-016
  -9.0299999999999991E-002    -1.6980247147458305E-015
  -8.9200000000000002E-002     1.2997000597612073E-016
  -8.8099999999999984E-002     3.8443729570450478E-015
  -8.6999999999999994E-002     2.7951515512152515E-015
  -8.5899999999999990E-002    -5.4412913722836319E-015
  -8.4799999999999986E-002    -9.5917494256979145E-015
  -8.3699999999999997E-002     2.5228006007616032E-015
  -8.2599999999999993E-002     1.8417230495662226E-014
  -8.1499999999999989E-002     8.2132456556889034E-015
  -8.0399999999999999E-002    -2.5318201040454985E-014
  -7.9299999999999995E-002    -2.8646833847125255E-014
  -7.8199999999999992E-002     2.6885518618802347E-014
  -7.7100000000000002E-002     6.7104518285381748E-014
  -7.5999999999999984E-002    -4.8576949889878387E-015
  -7.4899999999999994E-002    -1.2584735770843070E-013
  -7.3799999999999991E-002    -8.8558927714959407E-014
  -7.2699999999999987E-002     1.4607440962117330E-013
  -7.1599999999999997E-002     2.6607234753124598E-013
  -7.0499999999999993E-002    -1.4645877284384656E-014
  -6.9399999999999989E-002    -4.1285169185244219E-013
  -6.8300000000000000E-002    -2.8991403461936516E-013
  -6.7199999999999996E-002     3.7689518389907861E-013
  -6.6099999999999992E-002     6.6022968342460686E-013
  -6.5000000000000002E-002    -1.0487731559941094E-013
  -6.3899999999999985E-002    -1.0222499929879447E-012
  -6.2799999999999995E-002    -5.2546931649660733E-013
  -6.1699999999999991E-002     1.1612631429375186E-012
  -6.0599999999999994E-002     1.6429054297550927E-012
  -5.9499999999999990E-002    -4.3080518536200985E-013
  -5.8399999999999994E-002    -2.6582687873838440E-012
  -5.7299999999999990E-002    -1.4798661428228055E-012
  -5.6199999999999986E-002     2.3741826647022402E-012
  -5.5099999999999996E-002     3.6570000500057986E-012
  -5.3999999999999992E-002    -3.4670332468671183E-013
  -5.2899999999999989E-002    -4.7691954552231408E-012
  -5.1799999999999985E-002    -2.8353903426536764E-012
  -5.0699999999999995E-002     3.9462998840944508E-012
  -4.9599999999999991E-002     6.1618180176303827E-012
  -4.8499999999999988E-002    -6.3209946174827558E-013
  -4.7399999999999998E-002    -7.9609114439493922E-012
  -4.6299999999999994E-002    -4.8449634061642488E-012
  -4.5199999999999990E-002     5.9953235952148187E-012
  -4.4099999999999986E-002     1.0003479815334781E-011
  -4.2999999999999997E-002     7.0889848895541729E-013
  -4.1899999999999993E-002    -9.9522057261935970E-012
  -4.0799999999999989E-002    -7.5308361977000082E-012
  -3.9699999999999985E-002     4.1720299090441948E-012
  -3.8599999999999995E-002     8.2175282203889033E-012
  -3.7499999999999992E-002    -6.3661126066885676E-013
  -3.6399999999999988E-002    -8.0505428712296379E-012
  -3.5299999999999984E-002    -1.8630891100712699E-012
  -3.4199999999999994E-002     9.1502144403121655E-012
  -3.3099999999999991E-002     8.9026069502451399E-012
  -3.1999999999999987E-002    -8.5962698547978333E-013
  -3.0899999999999997E-002    -4.3739460837965982E-012
  -2.9799999999999993E-002     6.2886008249732339E-013
  -2.8699999999999989E-002    -1.9735153181793530E-012
  -2.7599999999999986E-002    -1.6759421975209854E-011
  -2.6499999999999996E-002    -2.0911496492748149E-011
  -2.5399999999999992E-002     2.9903826810617762E-012
  -2.4299999999999988E-002     3.0760477498503747E-011
  -2.3199999999999985E-002     2.1639436770248821E-011
  -2.2099999999999995E-002    -1.9663180805817859E-011
  -2.0999999999999991E-002    -3.8400966434481987E-011
  -1.9899999999999987E-002    -5.0446994671882184E-012
  -1.8799999999999983E-002     3.2657657828005782E-011
  -1.7699999999999994E-002     9.1450215455868289E-012
  -1.6599999999999990E-002    -5.9821446407593015E-011
  -1.5499999999999986E-002    -8.4302648195588858E-011
  -1.4399999999999996E-002    -1.9537363046828737E-011
  -1.3299999999999992E-002     6.4500807472889221E-011
  -1.2199999999999989E-002     6.8718343515516978E-011
  -1.1099999999999985E-002    -7.2040507240189733E-012
  -9.9999999999999950E-003    -7.1521143174546609E-011
  -8.8999999999999913E-003    -6.8475884684726651E-011
  -7.7999999999999875E-003    -4.3124896015322989E-011
  -6.6999999999999837E-003    -6.1028689046782603E-011
  -5.5999999999999939E-003    -1.0962597496444459E-010
  -4.4999999999999901E-003    -1.3061554615667603E-010
  -3.3999999999999864E-003    -1.1193652948993105E-010
  -2.2999999999999826E-003    -9.1491078602068399E-011
  -1.1999999999999927E-003    -7.9838413657995488E-011
  -9.9999999999988987E-005    -4.8379938943909906E-011
   1.0000000000000148E-003    -2.2730440793483631E-011
   2.1000000000000185E-003    -9.5828150969978765E-011
   3.2000000000000084E-003    -3.0128885497582303E-010
   4.3000000000000121E-003    -4.9969856030784854E-010
   5.4000000000000159E-003    -5.1984150317707645E-010
   6.5000000000000058E-003    -3.9214670399800866E-010
   7.6000000000000234E-003    -3.2989036502506508E-010
   8.7000000000000133E-003    -4.5276046800601932E-010
   9.8000000000000032E-003    -6.1799310113741512E-010
   1.0900000000000021E-002    -6.1028415654362789E-010
   1.2000000000000011E-002    -4.5661885383907475E-010
   1.3100000000000001E-002    -4.4471915039423493E-010
   1.4200000000000018E-002    -7.3541889245021252E-010
   1.5300000000000008E-002    -1.1789549336782557E-009
   1.6400000000000026E-002    -1.4826495586817146E-009
   1.7500000000000016E-002    -1.5707456446634183E-009
   1.8600000000000005E-002    -1.5535908115538177E-009
   1.9700000000000023E-002    -1.5532033437182236E-009
   2.0800000000000013E-002    -1.5655394758340435E-009
   2.1900000000000003E-002    -1.6188367313318963E-009
   2.3000000000000020E-002    -1.7600582102872409E-009
   2.4100000000000010E-002    -1.9691559494106059E-009
   2.5200000000000000E-002    -2.1030155394896610E-009
   2.6300000000000018E-002    -2.2233042074049081E-009
   2.7400000000000008E-002    -2.4854536206930788E-009
   2.8500000000000025E-002    -2.9583082650219694E-009
   2.9600000000000015E-002    -3.4104938873014135E-009
   3.0700000000000005E-002    -3.4692129169400232E-009
   3.1800000000000023E-002    -3.3001286148248710E-009
   3.2900000000000013E-002    -3.0417566243556848E-009
   3.4000000000000002E-002    -2.8639295379662144E-009
   3.5100000000000020E-002    -3.0210820511911152E-009
   3.6200000000000010E-002    -2.9398514733713910E-009
   3.7300000000000028E-002    -2.8215789704688632E-009
   3.8400000000000017E-002    -2.4741499959901603E-009
   3.9500000000000007E-002    -2.5174531348426399E-009
   4.0600000000000025E-002    -3.0869884426465433E-009
   4.1700000000000015E-002    -2.9295339487589445E-009
   4.2800000000000005E-002    -2.2092905282988795E-009
   4.3900000000000022E-002    -1.6855229434398211E-009
   4.5000000000000012E-002    -1.0390492910516969E-009
   4.6100000000000002E-002    -3.7114875062194130E-010
   4.7200000000000020E-002    -2.4884920513112974E-012
   4.8300000000000010E-002     6.6854594082954577E-010
   4.9400000000000027E-002     1.7357820736307872E-009
   5.0500000000000017E-002     3.5492686567550891E-009
   5.1600000000000007E-002     4.7057544527717710E-009
   5.2700000000000025E-002     4.2190326787761023E-009
   5.3800000000000014E-002     4.2963450574973194E-009
   5.4900000000000004E-002     5.0962687403455220E-009
   5.6000000000000022E-002     7.2537442719067258E-009
   5.7100000000000012E-002     9.8379215884847326E-009
   5.8200000000000002E-002     9.9315098367469545E-009
   5.9300000000000019E-002     9.9214556570359491E-009
   6.0400000000000009E-002     9.3340002393915711E-009
   6.1500000000000027E-002     1.0895437441149625E-008
   6.2600000000000017E-002     1.3211346683306147E-008
   6.3700000000000007E-002     1.5410826392781019E-008
   6.4800000000000024E-002     1.5153268861922697E-008
   6.5900000000000014E-002     1.3662391218360881E-008
   6.7000000000000004E-002     1.2703458729390604E-008
   6.8100000000000022E-002     1.3236306273256560E-008
   6.9200000000000012E-002     1.4978450479929961E-008
   7.0300000000000029E-002     1.6144234393777879E-008
   7.1400000000000019E-002     1.5167767486445882E-008
   7.2500000000000009E-002     1.2270152005555701E-008
   7.3600000000000027E-002     9.1044363159653585E-009
   7.4700000000000016E-002     7.8528579194880876E-009
   7.5800000000000006E-002     9.1923366696278208E-009
   7.6900000000000024E-002     1.1593929372111234E-008
   7.8000000000000014E-002     1.1262042853843468E-008
   7.9100000000000004E-002     5.1058268724091249E-009
   8.0200000000000021E-002    -2.4667814457757231E-009
   8.1300000000000011E-002    -4.9888337905201752E-009
   8.2400000000000029E-002    -5.7179588841549389E-010
   8.3500000000000019E-002     3.7012906073385921E-009
   8.4600000000000009E-002     4.2709752401393075E-010
   8.5700000000000026E-002    -9.6040899677518610E-009
   8.6800000000000016E-002    -1.7846167210677777E-008
   8.7900000000000006E-002    -1.8510945665184408E-008
   8.9000000000000024E-002    -1.3867852644011691E-008
   9.0100000000000013E-002    -1.0036078634811929E-008
   9.1200000000000003E-002    -1.0433812036581003E-008
   9.2300000000000021E-002    -1.5325728242032710E-008
   9.3400000000000011E-002    -2.3303339702351877E-008
   9.4500000000000028E-002    -2.8296263110405562E-008
   9.5600000000000018E-002    -2.5029306627288861E-008
   9.6700000000000008E-002    -1.6516358058993319E-008
   9.7800000000000026E-002    -1.0186232302089593E-008
   9.8900000000000016E-002    -1.4389693880900722E-008
  0.10000000000000001         -2.6365933436522937E-008
  0.10110000000000002         -3.2570902419593040E-008
  0.10220000000000001         -2.6621322035680350E-008
  0.10330000000000003         -1.0835851327328783E-008
  0.10440000000000002         -2.0604535855284212E-009
  0.10550000000000001         -5.5756044226029644E-009
  0.10660000000000003         -1.7119312190061464E-008
  0.10770000000000002         -2.2578493741320926E-008
  0.10880000000000001         -1.7503957394637837E-008
  0.10990000000000003         -5.4932716153643923E-009
  0.11100000000000002          4.4392094444845043E-009
  0.11210000000000001          7.3391919208631862E-009
  0.11320000000000002          1.7197857582473830E-009
  0.11430000000000001         -6.2492451213813638E-009
  0.11540000000000003         -8.6800033827216794E-009
  0.11650000000000002         -5.6159843442316060E-010
  0.11760000000000001          1.3291566958173462E-008
  0.11870000000000003          2.1210320610975941E-008
  0.11980000000000002          1.5214261850360344E-008
  0.12090000000000001          3.6658305280212744E-009
  0.12200000000000003         -1.0084774126895013E-009
  0.12310000000000001          5.8370615008129789E-009
  0.12420000000000003          1.7113615413677508E-008
  0.12530000000000002          2.3211057964545034E-008
  0.12640000000000001          1.9925959549027539E-008
  0.12750000000000003          1.1947427047687142E-008
  0.12860000000000002          5.1944382128965572E-009
  0.12970000000000001          3.5695606470653729E-009
  0.13080000000000003          8.5292830576122469E-009
  0.13190000000000002          1.7206092550736685E-008
  0.13300000000000001          2.1006213657415174E-008
  0.13410000000000000          1.4789633517864331E-008
  0.13520000000000004          2.6636244321309732E-009
  0.13630000000000003         -5.0773443227569715E-009
  0.13740000000000002         -9.9512298401549515E-010
  0.13850000000000001          1.0290335694662645E-008
  0.13960000000000000          1.6708474603888135E-008
  0.14070000000000005          1.1615770567630079E-008
  0.14180000000000004          2.5369702866262500E-011
  0.14290000000000003         -7.4044947950824280E-009
  0.14400000000000002         -6.2728000571610210E-009
  0.14510000000000001          1.1066945276860807E-010
  0.14620000000000000          5.8659690438389589E-009
  0.14730000000000004          7.8095467870298307E-009
  0.14840000000000003          4.6648747087374431E-009
  0.14950000000000002         -3.8268508362193643E-009
  0.15060000000000001         -1.2150313644099242E-008
  0.15170000000000000         -1.1847624215022279E-008
  0.15280000000000005         -7.6327566489453602E-010
  0.15390000000000004          1.0691837637466506E-008
  0.15500000000000003          9.5771195418592470E-009
  0.15610000000000002         -5.2334852007618338E-009
  0.15720000000000001         -1.8197091833371815E-008
  0.15830000000000000         -1.5786747908919097E-008
  0.15940000000000004         -6.4571270552704618E-010
  0.16050000000000003          1.0820190077254210E-008
  0.16160000000000002          8.2900646347638940E-009
  0.16270000000000001         -2.6844202416498320E-009
  0.16380000000000000         -1.0351500989713713E-008
  0.16490000000000005         -9.9709769330047493E-009
  0.16600000000000004         -4.9247677047503657E-009
  0.16710000000000003          8.9003260317355171E-010
  0.16820000000000002          5.7912186157693668E-009
  0.16930000000000001          6.3294693930515677E-009
  0.17040000000000000         -1.1710368230666290E-009
  0.17150000000000004         -1.2027997264851820E-008
  0.17260000000000003         -1.4032196737900904E-008
  0.17370000000000002         -1.2847849450992044E-009
  0.17480000000000001          1.4259685876538697E-008
  0.17590000000000000          1.4705929807234952E-008
  0.17700000000000005         -1.2905506663329902E-009
  0.17810000000000004         -1.5322330071398937E-008
  0.17920000000000003         -1.1934321086926047E-008
  0.18030000000000002          2.8226696535682549E-009
  0.18140000000000001          1.0910502723504578E-008
  0.18250000000000000          5.6352176258656073E-009
  0.18360000000000004         -3.2108586900392311E-009
  0.18470000000000003         -5.1660840050260504E-009
  0.18580000000000002         -2.7983604322656674E-009
  0.18690000000000001         -3.0556297492267959E-009
  0.18800000000000000         -3.3222544715272306E-009
  0.18910000000000005          2.2935948695845809E-009
  0.19020000000000004          9.3050527283367046E-009
  0.19130000000000003          6.9963341786660749E-009
  0.19240000000000002         -5.7126734454016059E-009
  0.19350000000000001         -1.3833858503176089E-008
  0.19460000000000005         -5.1293258529483410E-009
  0.19570000000000004          9.4376719772526485E-009
  0.19680000000000003          1.1334273963825581E-008
  0.19790000000000002         -1.1311315217810147E-009
  0.19900000000000001         -1.0291057783717861E-008
  0.20010000000000000         -5.5859241676614602E-009
  0.20120000000000005          3.5956002619741412E-009
  0.20230000000000004          3.4101288459709167E-009
  0.20340000000000003         -3.5429106315376657E-009
  0.20450000000000002         -4.5334447307254777E-009
  0.20560000000000000          2.4234225737274073E-009
  0.20670000000000005          4.8328092638882936E-009
  0.20780000000000004         -3.3183162884142803E-009
  0.20890000000000003         -9.2348608760062234E-009
