-4.000000000000000083e-02 0.000000000000000000e+00
-3.984999999999999654e-02 0.000000000000000000e+00
-3.969999999999999918e-02 0.000000000000000000e+00
-3.955000000000000182e-02 0.000000000000000000e+00
-3.939999999999999752e-02 0.000000000000000000e+00
-3.925000000000000017e-02 0.000000000000000000e+00
-3.910000000000000281e-02 0.000000000000000000e+00
-3.894999999999999851e-02 0.000000000000000000e+00
-3.880000000000000115e-02 0.000000000000000000e+00
-3.864999999999999686e-02 0.000000000000000000e+00
-3.849999999999999950e-02 0.000000000000000000e+00
-3.835000000000000214e-02 0.000000000000000000e+00
-3.819999999999999785e-02 0.000000000000000000e+00
-3.805000000000000049e-02 -0.000000000000000000e+00
-3.790000000000000313e-02 0.000000000000000000e+00
-3.774999999999999883e-02 4.203895392974451213e-45
-3.760000000000000148e-02 -4.287973300833940237e-43
-3.744999999999999718e-02 2.406029463245710911e-41
-3.729999999999999982e-02 -9.225784751513871143e-40
-3.715000000000000246e-02 3.012012015832806374e-38
-3.699999999999999817e-02 -9.747095806211989589e-37
-3.685000000000000081e-02 3.105460063485371384e-35
-3.670000000000000345e-02 -8.623135439109480326e-34
-3.654999999999999916e-02 1.849556313172785600e-32
-3.640000000000000180e-02 -2.693684331321719124e-31
-3.624999999999999750e-02 1.826408831064698361e-30
-3.610000000000000014e-02 1.789168756256636804e-29
-3.595000000000000279e-02 -5.824979931624055806e-28
-3.579999999999999849e-02 5.415672247972141822e-27
-3.565000000000000113e-02 2.299083685937123768e-27
-3.549999999999999684e-02 -4.768319538453047934e-25
-3.534999999999999948e-02 3.041766989504662673e-24
-3.520000000000000212e-02 1.242424765717337364e-23
-3.504999999999999782e-02 -2.042527743475871913e-22
-3.490000000000000047e-02 6.790774680696830466e-23
-3.475000000000000311e-02 7.487730993296638393e-21
-3.459999999999999881e-02 -1.183324113860657381e-20
-3.445000000000000145e-02 -2.019679080291564452e-19
-3.429999999999999716e-02 2.891969987550171491e-19
-3.414999999999999980e-02 4.398077130733207943e-18
-3.400000000000000244e-02 -9.863907533880997088e-19
-3.384999999999999815e-02 -7.102389791573029531e-17
-3.370000000000000079e-02 -1.115799942489438057e-16
-3.355000000000000343e-02 6.045618781084355613e-16
-3.339999999999999913e-02 2.582204291901968145e-15
-3.325000000000000178e-02 1.713536323229780060e-15
-3.309999999999999748e-02 -1.386112328161017565e-14
-3.295000000000000012e-02 -5.531624556196282350e-14
-3.280000000000000276e-02 -1.203363309606325648e-13
-3.264999999999999847e-02 -1.998578033754125349e-13
-3.250000000000000111e-02 -2.956877093434479020e-13
-3.234999999999999681e-02 -4.143380788208111953e-13
-3.219999999999999946e-02 -5.530803679626439262e-13
-3.205000000000000210e-02 -7.111207239382522083e-13
-3.189999999999999780e-02 -8.949273613834130003e-13
-3.175000000000000044e-02 -1.104688389375052537e-12
-3.160000000000000309e-02 -1.340171029706738182e-12
-3.144999999999999879e-02 -1.607587327145942879e-12
-3.130000000000000143e-02 -1.908101714825916062e-12
-3.115000000000000061e-02 -2.243069879143133605e-12
-3.099999999999999978e-02 -2.618890564479170457e-12
-3.084999999999999895e-02 -3.037113529419377400e-12
-3.070000000000000159e-02 -3.501323796867295002e-12
-3.055000000000000077e-02 -4.017998173760917169e-12
-3.039999999999999994e-02 -4.589543155242292727e-12
-3.024999999999999911e-02 -5.221872413641026611e-12
-3.009999999999999828e-02 -5.921672874276140419e-12
-2.995000000000000093e-02 -6.692668121088818367e-12
-2.980000000000000010e-02 -7.543627181250123215e-12
-2.964999999999999927e-02 -8.480741282845816187e-12
-2.949999999999999845e-02 -9.511121924765664204e-12
-2.935000000000000109e-02 -1.064504387415787789e-11
-2.920000000000000026e-02 -1.188931331858045226e-11
-2.904999999999999943e-02 -1.325606898555653501e-11
-2.889999999999999861e-02 -1.475389775629221134e-11
-2.875000000000000125e-02 -1.639702262856701509e-11
-2.860000000000000042e-02 -1.819404522873657726e-11
-2.844999999999999959e-02 -2.016467028076451840e-11
-2.829999999999999877e-02 -2.231505952243750812e-11
-2.815000000000000141e-02 -2.467169177289285642e-11
-2.800000000000000058e-02 -2.724006090137898184e-11
-2.784999999999999976e-02 -3.005011170453819602e-11
-2.769999999999999893e-02 -3.311195068134153985e-11
-2.755000000000000157e-02 -3.645454771383782600e-11
-2.740000000000000074e-02 -4.009654760994685319e-11
-2.724999999999999992e-02 -4.406503634202252329e-11
-2.709999999999999909e-02 -4.838665926265584005e-11
-2.695000000000000173e-02 -5.309012604537421964e-11
-2.680000000000000090e-02 -5.820640497367080002e-11
-2.665000000000000008e-02 -6.377082195641037288e-11
-2.649999999999999925e-02 -6.981560468632963534e-11
-2.634999999999999842e-02 -7.638548821242707731e-11
-2.620000000000000107e-02 -8.351432045916595825e-11
-2.605000000000000024e-02 -9.125548233734903647e-11
-2.589999999999999941e-02 -9.964801206407969403e-11
-2.574999999999999858e-02 -1.087513343267509924e-10
-2.560000000000000123e-02 -1.186135495379048166e-10
-2.545000000000000040e-02 -1.292990853274389451e-10
-2.529999999999999957e-02 -1.408664157542816042e-10
-2.514999999999999875e-02 -1.533871363257333087e-10
-2.500000000000000139e-02 -1.669289012573571540e-10
-2.485000000000000056e-02 -1.815737282750973236e-10
-2.469999999999999973e-02 -1.973983199121676080e-10
-2.454999999999999891e-02 -2.144959765359999437e-10
-2.440000000000000155e-02 -2.329557657887448840e-10
-2.425000000000000072e-02 -2.528803277890290246e-10
-2.409999999999999989e-02 -2.743760219026114555e-10
-2.394999999999999907e-02 -2.975542590100133111e-10
-2.380000000000000171e-02 -3.225409939133783155e-10
-2.365000000000000088e-02 -3.494600442355277892e-10
-2.350000000000000006e-02 -3.784555724362093088e-10
-2.334999999999999923e-02 -4.096694650179699693e-10
-2.319999999999999840e-02 -4.432626210526535715e-10
-2.305000000000000104e-02 -4.793972441241578508e-10
-2.290000000000000022e-02 -5.182521078950230731e-10
-2.274999999999999939e-02 -5.600081509626875231e-10
-2.259999999999999856e-02 -6.048643808043152603e-10
-2.245000000000000120e-02 -6.530209706312462004e-10
-2.230000000000000038e-02 -7.046977446023561242e-10
-2.214999999999999955e-02 -7.601208551477611763e-10
-2.199999999999999872e-02 -8.195329970206444159e-10
-2.185000000000000137e-02 -8.831962938771198424e-10
-2.170000000000000054e-02 -9.513823062690107690e-10
-2.154999999999999971e-02 -1.024393014859015238e-09
-2.139999999999999888e-02 -1.102535063246534719e-09
-2.125000000000000153e-02 -1.186143960829610933e-09
-2.110000000000000070e-02 -1.275560101987593953e-09
-2.094999999999999987e-02 -1.371144309203486955e-09
-2.079999999999999905e-02 -1.473267507989817204e-09
-2.065000000000000169e-02 -1.582320718895857681e-09
-2.050000000000000086e-02 -1.698715390574534467e-09
-2.035000000000000003e-02 -1.822889394986759726e-09
-2.019999999999999921e-02 -1.955310580115110497e-09
-2.004999999999999838e-02 -2.096471884982520351e-09
-1.990000000000000102e-02 -2.246896890767402510e-09
-1.975000000000000019e-02 -2.407120947012231227e-09
-1.959999999999999937e-02 -2.577708047013516079e-09
-1.944999999999999854e-02 -2.759230843807358724e-09
-1.930000000000000118e-02 -2.952295963254414346e-09
-1.915000000000000036e-02 -3.157536898612534060e-09
-1.899999999999999953e-02 -3.375626445034640710e-09
-1.884999999999999870e-02 -3.607277809791753498e-09
-1.870000000000000134e-02 -3.853234176176556502e-09
-1.855000000000000052e-02 -4.114271145994052858e-09
-1.839999999999999969e-02 -4.391182972796059403e-09
-1.824999999999999886e-02 -4.684793886156057852e-09
-1.810000000000000150e-02 -4.995952096464861825e-09
-1.795000000000000068e-02 -5.325554663926368448e-09
-1.779999999999999985e-02 -5.674536396327312104e-09
-1.764999999999999902e-02 -6.043885392159609182e-09
-1.750000000000000167e-02 -6.434623944784334526e-09
-1.735000000000000084e-02 -6.847806321985672184e-09
-1.720000000000000001e-02 -7.284521430506174511e-09
-1.704999999999999918e-02 -7.745878605192046962e-09
-1.689999999999999836e-02 -8.233039139327047451e-09
-1.675000000000000100e-02 -8.747202961956190848e-09
-1.660000000000000017e-02 -9.289628621900192229e-09
-1.644999999999999934e-02 -9.861619965079171379e-09
-1.629999999999999852e-02 -1.046451991726371489e-08
-1.615000000000000116e-02 -1.109970604318277765e-08
-1.600000000000000033e-02 -1.176858610563158436e-08
-1.584999999999999951e-02 -1.247260872361266593e-08
-1.569999999999999868e-02 -1.321326958958479736e-08
-1.554999999999999959e-02 -1.399212035124719478e-08
-1.540000000000000049e-02 -1.481075440068480020e-08
-1.524999999999999967e-02 -1.567082108522299677e-08
-1.510000000000000057e-02 -1.657399018029082072e-08
-1.494999999999999975e-02 -1.752197320570303418e-08
-1.480000000000000066e-02 -1.851651276751908881e-08
-1.464999999999999983e-02 -1.955939410436258186e-08
-1.450000000000000074e-02 -2.065246285098965018e-08
-1.434999999999999991e-02 -2.179759484022270044e-08
-1.420000000000000082e-02 -2.299671386651880312e-08
-1.404999999999999999e-02 -2.425176859333078028e-08
-1.389999999999999916e-02 -2.556473965853456320e-08
-1.375000000000000007e-02 -2.693763256900183478e-08
-1.359999999999999924e-02 -2.837249368781158410e-08
-1.345000000000000015e-02 -2.987139779975223064e-08
-1.329999999999999932e-02 -3.143645699310582131e-08
-1.315000000000000023e-02 -3.306982065964803041e-08
-1.299999999999999940e-02 -3.477363463844085345e-08
-1.285000000000000031e-02 -3.655007319025571633e-08
-1.269999999999999948e-02 -3.840132123400508135e-08
-1.255000000000000039e-02 -4.032958855759716243e-08
-1.239999999999999956e-02 -4.233709915979488869e-08
-1.225000000000000047e-02 -4.442609125021590444e-08
-1.209999999999999964e-02 -4.659880659119153279e-08
-1.195000000000000055e-02 -4.885747628691206046e-08
-1.179999999999999973e-02 -5.120433144156777416e-08
-1.165000000000000063e-02 -5.364159960663528182e-08
-1.149999999999999981e-02 -5.617149767545015493e-08
-1.135000000000000071e-02 -5.879623188320692861e-08
-1.119999999999999989e-02 -6.151799425424542278e-08
-1.105000000000000079e-02 -6.433894839119602693e-08
-1.089999999999999997e-02 -6.726123302769337897e-08
-1.074999999999999914e-02 -7.028693715938061359e-08
-1.060000000000000005e-02 -7.341810004390936228e-08
-1.044999999999999922e-02 -7.665674672807654133e-08
-1.030000000000000013e-02 -8.000484541526020621e-08
-1.014999999999999930e-02 -8.346431457084690919e-08
-1.000000000000000021e-02 -8.703698739509491134e-08
-9.850001000000000589e-03 -9.072465445569832809e-08
-9.700001999999999236e-03 -9.452901394979562610e-08
-9.550001000000000670e-03 -9.845168591482433840e-08
-9.400000999999999843e-03 -1.024942193339484220e-07
-9.250002000000000224e-03 -1.066580423980667547e-07
-9.100000999999999923e-03 -1.109445122438046383e-07
-8.950001000000000831e-03 -1.153548510046675801e-07
-8.800001999999999477e-03 -1.198902026544601540e-07
-8.650000999999999177e-03 -1.245515619530124241e-07
-8.500001999999999558e-03 -1.293398241841714480e-07
-8.349999999999999784e-03 -1.342557283123824163e-07
-8.200001000000000165e-03 -1.392998711935433676e-07
-8.050002000000000546e-03 -1.444727075750051881e-07
-7.900000000000000772e-03 -1.497745358847168973e-07
-7.750001000000000285e-03 -1.552054982312256470e-07
-7.600001999999999799e-03 -1.607655519819672918e-07
-7.449998999999999684e-03 -1.664545408175399643e-07
-7.300001000000000406e-03 -1.722720952557210694e-07
-7.150001999999999920e-03 -1.782176468623219989e-07
-7.000003000000000301e-03 -1.842904424620428472e-07
-6.850000000000000186e-03 -1.904895015059082652e-07
-6.700002000000000041e-03 -1.968136587038316065e-07
-6.550003000000000422e-03 -2.032615640246149269e-07
-6.400000000000000307e-03 -2.098316542742395541e-07
-6.250000999999999821e-03 -2.165221530958660878e-07
-6.100002999999999675e-03 -2.233310425481249695e-07
-5.950000000000000427e-03 -2.302560915268259123e-07
-5.800000999999999941e-03 -2.372947847106843255e-07
-5.650002999999999796e-03 -2.444444078264496056e-07
-5.499999999999999681e-03 -2.517020334380504210e-07
-5.350001000000000062e-03 -2.590644498923211358e-07
-5.200001999999999576e-03 -2.665281897407112410e-07
-5.049999999999999802e-03 -2.740896150044136448e-07
-4.900001000000000183e-03 -2.817448319092363818e-07
-4.750001999999999697e-03 -2.894896624638931826e-07
-4.599999999999999922e-03 -2.973197297251317650e-07
-4.450001000000000304e-03 -3.052302872674772516e-07
-4.300001999999999817e-03 -3.132164181351981824e-07
-4.149998999999999702e-03 -3.212729495771782240e-07
-4.000001000000000424e-03 -3.293944814686255995e-07
-3.850001999999999938e-03 -3.375753578893636586e-07
-3.699998999999999823e-03 -3.458096955455403076e-07
-3.550000000000000204e-03 -3.540913837696280098e-07
-3.400002000000000059e-03 -3.624140845204237849e-07
-3.250003000000000006e-03 -3.707711471179209184e-07
-3.099999999999999891e-03 -3.791557503518561134e-07
-2.950002000000000180e-03 -3.875608456382906297e-07
-2.800003000000000127e-03 -3.959792138630291447e-07
-2.650000000000000012e-03 -4.044033801164914621e-07
-2.500000999999999959e-03 -4.128256989588408032e-07
-2.350002999999999814e-03 -4.212383259982743766e-07
-2.200000000000000133e-03 -4.296332178910233779e-07
-2.050001000000000080e-03 -4.380021891847718507e-07
-1.900002000000000028e-03 -4.463368270535283955e-07
-1.750000000000000036e-03 -4.546286334061733214e-07
-1.600000999999999984e-03 -4.628689396213303553e-07
-1.450001999999999932e-03 -4.710489349690760719e-07
-1.299999999999999940e-03 -4.791596666109398939e-07
-1.150001000000000105e-03 -4.871921532867418136e-07
-1.000002000000000052e-03 -4.951372147843358107e-07
-8.499994999999999990e-04 -5.029856993132852949e-07
-7.000007000000000148e-04 -5.107282845528970938e-07
-5.500019000000000305e-04 -5.183555913390591741e-07
-3.999992999999999973e-04 -5.258582405076595023e-07
-2.500005000000000131e-04 -5.332268528945860453e-07
-1.000017000000000017e-04 -5.404519924923079088e-07
5.000085000000000087e-05 -5.475241664498753380e-07
1.999996999999999886e-04 -5.544339387597574387e-07
3.499985000000000270e-04 -5.611719302578421775e-07
4.999972999999999571e-04 -5.677288186234363820e-07
6.499998000000000104e-04 -5.740952246924280189e-07
7.999985999999999946e-04 -5.802620535177993588e-07
9.499975000000000129e-04 -5.862200396222760901e-07
1.100000000000000066e-03 -5.919603154325159267e-07
1.249998999999999902e-03 -5.974737291580822784e-07
1.399997999999999954e-03 -6.027516405993083026e-07
1.549999999999999946e-03 -6.077854095565271564e-07
1.699998999999999998e-03 -6.125665663603285793e-07
1.849998000000000050e-03 -6.170868118715588935e-07
2.000000000000000042e-03 -6.213381311681587249e-07
2.149999000000000094e-03 -6.253125661714875605e-07
2.299998000000000146e-03 -6.290023861765803304e-07
2.449999999999999921e-03 -6.324002015389851294e-07
2.599998999999999973e-03 -6.354988499879254960e-07
2.749998000000000026e-03 -6.382912829394626897e-07
2.900001000000000141e-03 -6.407709065570088569e-07
3.049998999999999853e-03 -6.429312975342327263e-07
3.199997999999999905e-03 -6.447663736253161915e-07
3.350001000000000020e-03 -6.462703368015354499e-07
3.500000000000000073e-03 -6.474376164078421425e-07
3.649997999999999784e-03 -6.482630965365387965e-07
3.800000999999999900e-03 -6.487418318101845216e-07
3.950000000000000386e-03 -6.488693884421081748e-07
4.099999000000000005e-03 -6.486415600193140563e-07
4.249997000000000150e-03 -6.480544243459007703e-07
4.400000000000000265e-03 -6.471045708167366683e-07
4.549998999999999884e-03 -6.457888162003655452e-07
4.699998000000000370e-03 -6.441043751692632213e-07
4.850000000000000144e-03 -6.420488602998375427e-07
4.999998999999999763e-03 -6.396202252290095203e-07
5.149998000000000249e-03 -6.368167078107944690e-07
5.300000000000000024e-03 -6.336369438031397294e-07
5.449998999999999642e-03 -6.300800237113435287e-07
5.599998000000000128e-03 -6.261453222577983979e-07
5.749999999999999903e-03 -6.218324415385723114e-07
5.899999000000000389e-03 -6.171416089273407124e-07
6.049998000000000008e-03 -6.120732791714544874e-07
6.200001000000000123e-03 -6.066282480787776876e-07
6.349999000000000268e-03 -6.008075388308498077e-07
6.499997999999999887e-03 -5.946126861999800894e-07
6.650001000000000002e-03 -5.880455091755720787e-07
6.799999999999999621e-03 -5.811080541207047645e-07
6.949997999999999766e-03 -5.738028221458080225e-07
7.100000999999999882e-03 -5.661325417349871714e-07
7.250000000000000368e-03 -5.581002255894418340e-07
7.399998999999999987e-03 -5.497092274708847981e-07
7.550000999999999761e-03 -5.409631285147042945e-07
7.700000000000000247e-03 -5.318657940733828582e-07
7.849998999999999866e-03 -5.224213168730784673e-07
7.999997999999999485e-03 -5.126340738570434041e-07
8.149999999999999259e-03 -5.025087261856242549e-07
8.299999000000000612e-03 -4.920501055494241882e-07
8.449998000000000231e-03 -4.812632141693029553e-07
8.600000000000000006e-03 -4.701533100615051808e-07
8.749998999999999624e-03 -4.587257365074037807e-07
8.899997999999999243e-03 -4.469861210054659750e-07
9.050000000000000752e-03 -4.349402615844155662e-07
9.199999000000000371e-03 -4.225940415381046478e-07
9.349997999999999990e-03 -4.099535146906418959e-07
9.500000999999999238e-03 -3.970248769746831385e-07
9.649998999999999383e-03 -3.838143811663030647e-07
9.799998000000000736e-03 -3.703284221501235152e-07
9.950000999999999984e-03 -3.565734516541851917e-07
1.009999999999999960e-02 -3.425560350933665177e-07
1.025000000000000043e-02 -3.282827947259647772e-07
1.039999999999999952e-02 -3.137604096536961151e-07
1.055000000000000035e-02 -2.989955873999861069e-07
1.069999999999999944e-02 -2.839952060185169103e-07
1.085000000000000027e-02 -2.687659446110046702e-07
1.099999999999999936e-02 -2.533147096528409747e-07
1.115000000000000019e-02 -2.376483365651438362e-07
1.129999999999999928e-02 -2.217736323473218363e-07
1.145000000000000011e-02 -2.056974750530571328e-07
1.159999999999999920e-02 -1.894266574709035922e-07
1.175000000000000003e-02 -1.729680434436886571e-07
1.190000000000000085e-02 -1.563284541816756246e-07
1.204999999999999995e-02 -1.395146824734183610e-07
1.220000000000000077e-02 -1.225335637400348787e-07
1.234999999999999987e-02 -1.053918126103781105e-07
1.250000000000000069e-02 -8.809615081872834708e-08
1.264999999999999979e-02 -7.065325746680173324e-08
1.280000000000000061e-02 -5.306980810360073519e-08
1.294999999999999971e-02 -3.535248893626885547e-08
1.310000000000000053e-02 -1.750788847232342960e-08
1.324999999999999963e-02 4.573206535685159224e-10
1.340000000000000045e-02 1.853663356143897545e-08
1.354999999999999954e-02 3.672339232707599876e-08
1.370000000000000037e-02 5.501111033368033532e-08
1.384999999999999946e-02 7.339320262644832837e-08
1.400000000000000029e-02 9.186310023778787581e-08
1.414999999999999938e-02 1.104143194652351667e-07
1.430000000000000021e-02 1.290402309450655594e-07
1.444999999999999930e-02 1.477343118949647760e-07
1.460000000000000013e-02 1.664898974240713869e-07
1.474999999999999922e-02 1.853004647500711144e-07
1.490000000000000005e-02 2.041592921386836679e-07
1.504999999999999914e-02 2.230595583796457504e-07
1.519999999999999997e-02 2.419946270038053626e-07
1.535000000000000080e-02 2.609575346923520556e-07
1.549999999999999989e-02 2.799414460241678171e-07
1.565000000000000072e-02 2.989393692587327678e-07
1.580000000000000154e-02 3.179442273903987370e-07
1.594999999999999890e-02 3.369488581483892631e-07
1.609999999999999973e-02 3.559459287316713016e-07
1.625000000000000056e-02 3.749281916043400997e-07
1.640000000000000138e-02 3.938879160614305874e-07
1.654999999999999874e-02 4.128175135065248469e-07
1.669999999999999957e-02 4.317092248129483778e-07
1.685000000000000039e-02 4.505550350586418062e-07
1.700000000000000122e-02 4.693469008998363279e-07
1.714999999999999858e-02 4.880765800407971255e-07
1.729999999999999941e-02 5.067355459686950780e-07
1.745000000000000023e-02 5.253152153272822034e-07
1.760000000000000106e-02 5.438068342300539371e-07
1.774999999999999842e-02 5.622014214168302715e-07
1.789999999999999925e-02 5.804898250971746165e-07
1.805000000000000007e-02 5.986627229503937997e-07
1.820000000000000090e-02 6.167106221255380660e-07
1.835000000000000173e-02 6.346236318677256349e-07
1.849999999999999908e-02 6.523919751089124475e-07
1.864999999999999991e-02 6.700056474073790014e-07
1.880000000000000074e-02 6.874541327306360472e-07
1.895000000000000157e-02 7.047272561067075003e-07
1.909999999999999892e-02 7.218141604425909463e-07
1.924999999999999975e-02 7.387041023321216926e-07
1.940000000000000058e-02 7.553859973086218815e-07
1.955000000000000140e-02 7.718488177488325164e-07
1.969999999999999876e-02 7.880811949689814355e-07
1.984999999999999959e-02 8.040717602852964774e-07
2.000000000000000042e-02 8.198089176403300371e-07
2.015000000000000124e-02 8.352809572897967882e-07
2.029999999999999860e-02 8.504761694894114044e-07
2.044999999999999943e-02 8.653825034343753941e-07
2.060000000000000026e-02 8.799881925369845703e-07
2.075000000000000108e-02 8.942810723056027200e-07
2.089999999999999844e-02 9.082492056222690735e-07
2.104999999999999927e-02 9.218803711519285571e-07
2.120000000000000009e-02 9.351625180897826795e-07
2.135000000000000092e-02 9.480836524744518101e-07
2.149999999999999828e-02 9.606316098142997362e-07
2.164999999999999911e-02 9.727945098347845487e-07
2.179999999999999993e-02 9.845603017311077565e-07
2.195000000000000076e-02 9.959173894458217546e-07
2.210000000000000159e-02 1.006853835860965773e-06
2.224999999999999895e-02 1.017358385979605373e-06
2.239999999999999977e-02 1.027419443744292948e-06
2.255000000000000060e-02 1.037025981531769503e-06
2.270000000000000143e-02 1.046166858031938318e-06
2.284999999999999878e-02 1.054831727742566727e-06
2.299999999999999961e-02 1.063009904100908898e-06
2.315000000000000044e-02 1.070691268978407606e-06
2.330000000000000127e-02 1.077866158993856516e-06
2.344999999999999862e-02 1.084525138139724731e-06
2.359999999999999945e-02 1.090659111468994524e-06
2.375000000000000028e-02 1.096259666155674495e-06
2.390000000000000110e-02 1.101318275686935522e-06
2.404999999999999846e-02 1.105827209357812535e-06
2.419999999999999929e-02 1.109779304897529073e-06
2.435000000000000012e-02 1.113167854782659560e-06
2.450000000000000094e-02 1.115986492550291587e-06
2.464999999999999830e-02 1.118229761232214514e-06
2.479999999999999913e-02 1.119892431233893149e-06
2.494999999999999996e-02 1.120969955081818625e-06
2.510000000000000078e-02 1.121458467423508409e-06
2.525000000000000161e-02 1.121354671340668574e-06
2.539999999999999897e-02 1.120655952036031522e-06
2.554999999999999979e-02 1.119360263146518264e-06
2.570000000000000062e-02 1.117466695177427027e-06
2.585000000000000145e-02 1.114974224947218318e-06
2.599999999999999881e-02 1.111883307203243021e-06
2.614999999999999963e-02 1.108194737753365189e-06
2.630000000000000046e-02 1.103910108213312924e-06
2.645000000000000129e-02 1.099031806006678380e-06
2.659999999999999865e-02 1.093563014364917763e-06
2.674999999999999947e-02 1.087507484953675885e-06
2.690000000000000030e-02 1.080869878933299333e-06
2.705000000000000113e-02 1.073655425898323301e-06
2.719999999999999848e-02 1.065870378624822479e-06
2.734999999999999931e-02 1.057521558323060162e-06
2.750000000000000014e-02 1.048616809384839144e-06
2.765000000000000097e-02 1.039164317262475379e-06
2.779999999999999832e-02 1.029173290589824319e-06
2.794999999999999915e-02 1.018653620121767744e-06
2.809999999999999998e-02 1.007615765047376044e-06
2.825000000000000080e-02 9.960710940504213795e-07
2.840000000000000163e-02 9.840316579357022420e-07
2.854999999999999899e-02 9.715101896290434524e-07
2.869999999999999982e-02 9.585201041772961617e-07
2.885000000000000064e-02 9.450752145312435459e-07
2.900000000000000147e-02 9.311902999797894154e-07
2.914999999999999883e-02 9.168806514026073273e-07
2.929999999999999966e-02 9.021620144267217256e-07
2.945000000000000048e-02 8.870507599567645229e-07
2.960000000000000131e-02 8.715638841749751009e-07
2.974999999999999867e-02 8.557188948543625884e-07
2.989999999999999949e-02 8.395334702981926966e-07
3.005000000000000032e-02 8.230260846175951883e-07
3.020000000000000115e-02 8.062156098276318517e-07
3.034999999999999851e-02 7.891209747867833357e-07
3.049999999999999933e-02 7.717618473179754801e-07
3.065000000000000016e-02 7.541580089309718460e-07
3.080000000000000099e-02 7.363295253526302986e-07
3.094999999999999835e-02 7.182968602137407288e-07
3.109999999999999917e-02 7.000804203016741667e-07
3.125000000000000000e-02 6.817011239945713896e-07
3.139999999999999736e-02 6.631797191403165925e-07
3.155000000000000165e-02 6.445372946473071352e-07
3.169999999999999901e-02 6.257947688936837949e-07
3.185000000000000331e-02 6.069734013181005139e-07
3.200000000000000067e-02 5.880940534552792087e-07
3.214999999999999802e-02 5.691778710570361000e-07
3.230000000000000232e-02 5.502456588146742433e-07
3.244999999999999968e-02 5.313182782629155554e-07
3.259999999999999704e-02 5.124163635628065094e-07
3.275000000000000133e-02 4.935603783451369964e-07
3.289999999999999869e-02 4.747704167584743118e-07
3.305000000000000299e-02 4.560664592645480298e-07
3.320000000000000034e-02 4.374680315777368378e-07
3.334999999999999770e-02 4.189944888821628410e-07
3.350000000000000200e-02 4.006646463494689669e-07
3.364999999999999936e-02 3.824970917776226997e-07
3.379999999999999671e-02 3.645097024218557635e-07
3.395000000000000101e-02 3.467202134288527304e-07
3.409999999999999837e-02 3.291454220288869692e-07
3.425000000000000266e-02 3.118021538739412790e-07
3.440000000000000002e-02 2.947062114344589645e-07
3.454999999999999738e-02 2.778729708552418742e-07
3.470000000000000168e-02 2.613172114251938183e-07
3.484999999999999903e-02 2.450531439990299987e-07
3.500000000000000333e-02 2.290941694127468509e-07
3.515000000000000069e-02 2.134531200681522023e-07
3.529999999999999805e-02 1.981420041374803986e-07
3.545000000000000234e-02 1.831723750456148991e-07
3.559999999999999970e-02 1.685546919816260925e-07
3.574999999999999706e-02 1.542990304415070568e-07
3.590000000000000135e-02 1.404144285288566607e-07
3.604999999999999871e-02 1.269093701239398797e-07
3.620000000000000301e-02 1.137913372417642677e-07
3.635000000000000037e-02 1.010671581980204792e-07
3.649999999999999772e-02 8.874287260596247506e-08
3.665000000000000202e-02 7.682365321670658886e-08
3.679999999999999938e-02 6.531395513320603641e-08
3.694999999999999674e-02 5.421739501798583660e-08
3.710000000000000103e-02 4.353672622414705984e-08
3.724999999999999839e-02 3.327400932562341040e-08
3.740000000000000269e-02 2.343039895436049846e-08
3.755000000000000004e-02 1.400632942960555738e-08
3.769999999999999740e-02 5.001353553524268136e-09
3.785000000000000170e-02 -3.585559626984036186e-09
3.799999999999999906e-02 -1.175647934559265195e-08
3.815000000000000335e-02 -1.951404371425269346e-08
3.830000000000000071e-02 -2.686155120557032205e-08
3.844999999999999807e-02 -3.380339563818779425e-08
3.860000000000000236e-02 -4.034423994880853570e-08
3.874999999999999972e-02 -4.648983420452168502e-08
3.889999999999999708e-02 -5.224627841471374268e-08
3.905000000000000138e-02 -5.762055010904987284e-08
3.919999999999999873e-02 -6.262030183279421180e-08
3.935000000000000303e-02 -6.725353074443773949e-08
3.950000000000000039e-02 -7.152921455144678475e-08
3.964999999999999775e-02 -7.545660452024094411e-08
3.980000000000000204e-02 -7.904548482429163414e-08
3.994999999999999940e-02 -8.230647097207111074e-08
4.009999999999999676e-02 -8.525028505346199381e-08
4.025000000000000105e-02 -8.788836680651002098e-08
4.039999999999999841e-02 -9.023254676776559791e-08
4.055000000000000271e-02 -9.229501074514701031e-08
4.070000000000000007e-02 -9.408838508306871518e-08
4.084999999999999742e-02 -9.562561587017626152e-08
4.100000000000000172e-02 -9.691986946336328401e-08
4.114999999999999908e-02 -9.798485223200259497e-08
4.130000000000000338e-02 -9.883423501833021874e-08
4.145000000000000073e-02 -9.948209367394156288e-08
4.159999999999999809e-02 -9.994260352641504142e-08
4.175000000000000239e-02 -1.002301743824318692e-07
4.189999999999999974e-02 -1.003593581572204130e-07
4.204999999999999710e-02 -1.003446570280175365e-07
4.220000000000000140e-02 -1.002008431782996922e-07
4.234999999999999876e-02 -9.994249694500467740e-08
4.250000000000000305e-02 -9.958435498447215650e-08
4.265000000000000041e-02 -9.914105447705878760e-08
4.279999999999999777e-02 -9.862714733799293754e-08
4.295000000000000207e-02 -9.805714995536618517e-08
4.309999999999999942e-02 -9.744537976530409651e-08
4.324999999999999678e-02 -9.680601920081244316e-08
4.340000000000000108e-02 -9.615304463750362629e-08
4.354999999999999843e-02 -9.550034718586175586e-08
4.370000000000000273e-02 -9.486128504931912175e-08
4.385000000000000009e-02 -9.424920932588065625e-08
4.399999999999999745e-02 -9.367701636620040517e-08
4.415000000000000174e-02 -9.315731830383811030e-08
4.429999999999999910e-02 -9.270237910641299095e-08
4.445000000000000340e-02 -9.232408615389431361e-08
4.460000000000000075e-02 -9.203377970834480948e-08
4.474999999999999811e-02 -9.184267213413477293e-08
4.490000000000000241e-02 -9.176113735520630144e-08
4.504999999999999977e-02 -9.179945692494584364e-08
4.519999999999999712e-02 -9.196715922143994248e-08
4.535000000000000142e-02 -9.227331787542425445e-08
4.549999999999999878e-02 -9.272658019199297996e-08
4.565000000000000308e-02 -9.333491846064134734e-08
4.580000000000000043e-02 -9.410582180180426803e-08
4.594999999999999779e-02 -9.504616116373654222e-08
4.610000000000000209e-02 -9.616235274734208360e-08
4.624999999999999944e-02 -9.745998141852396657e-08
4.639999999999999680e-02 -9.894426966639002785e-08
4.655000000000000110e-02 -1.006196441721840529e-07
4.669999999999999846e-02 -1.024900413426621526e-07
4.685000000000000275e-02 -1.045587509906908963e-07
4.700000000000000011e-02 -1.068283665972558083e-07
4.714999999999999747e-02 -1.093009061037264473e-07
4.730000000000000177e-02 -1.119778190172837640e-07
4.744999999999999912e-02 -1.148597803535267303e-07
4.760000000000000342e-02 -1.179470032752760744e-07
4.775000000000000078e-02 -1.212389406646252610e-07