-4.000000000000000083e-02 0.000000000000000000e+00
-3.984999999999999654e-02 0.000000000000000000e+00
-3.969999999999999918e-02 0.000000000000000000e+00
-3.955000000000000182e-02 0.000000000000000000e+00
-3.939999999999999752e-02 0.000000000000000000e+00
-3.925000000000000017e-02 0.000000000000000000e+00
-3.910000000000000281e-02 0.000000000000000000e+00
-3.894999999999999851e-02 -0.000000000000000000e+00
-3.880000000000000115e-02 2.101947696487225606e-44
-3.864999999999999686e-02 -1.189702396211769693e-42
-3.849999999999999950e-02 -2.195425514445405504e-39
-3.835000000000000214e-02 1.258338891825416401e-37
-3.819999999999999785e-02 3.162014155681496707e-36
-3.805000000000000049e-02 -5.494021364275880245e-34
-3.790000000000000313e-02 2.759902337866957765e-32
-3.774999999999999883e-02 -8.498786540625912369e-31
-3.760000000000000148e-02 1.706610458998386023e-29
-3.744999999999999718e-02 -1.717507611364972052e-28
-3.729999999999999982e-02 -1.557554049843383793e-27
-3.715000000000000246e-02 8.838692172340509739e-26
-3.699999999999999817e-02 -1.406389504867524667e-24
-3.685000000000000081e-02 8.466941125628461892e-24
-3.670000000000000345e-02 3.985366313943623134e-23
-3.654999999999999916e-02 -7.560794810710778132e-22
-3.640000000000000180e-02 7.523788272796029368e-22
-3.624999999999999750e-02 2.208557533673665469e-20
-3.610000000000000014e-02 7.218269638615387111e-21
-3.595000000000000279e-02 -3.226143717191234833e-19
-3.579999999999999849e-02 -1.321946598435162591e-18
-3.565000000000000113e-02 -3.233821452540587182e-18
-3.549999999999999684e-02 -6.345695803275544259e-18
-3.534999999999999948e-02 -1.099032114661538880e-17
-3.520000000000000212e-02 -1.747432113471949301e-17
-3.504999999999999782e-02 -2.618884755897795102e-17
-3.490000000000000047e-02 -3.753347911327124093e-17
-3.475000000000000311e-02 -5.193765488441239259e-17
-3.459999999999999881e-02 -6.985804970806335683e-17
-3.445000000000000145e-02 -9.185151164642748126e-17
-3.429999999999999716e-02 -1.193382734153113620e-16
-3.414999999999999980e-02 -1.555352602692684251e-16
-3.400000000000000244e-02 -2.006075774585642547e-16
-3.384999999999999815e-02 -2.246597662101197570e-16
-3.370000000000000079e-02 -1.264261657085965422e-16
-3.355000000000000343e-02 1.467626062090046407e-16
-3.339999999999999913e-02 -1.738738412146792478e-16
-3.325000000000000178e-02 -4.232798549733346807e-15
-3.309999999999999748e-02 -1.652092870873308333e-14
-3.295000000000000012e-02 -2.779624336149248698e-14
-3.280000000000000276e-02 2.685408692019563420e-14
-3.264999999999999847e-02 3.030930541270127065e-13
-3.250000000000000111e-02 8.957936931293375427e-13
-3.234999999999999681e-02 1.148150151342175462e-12
-3.219999999999999946e-02 -1.680398333502031161e-12
-3.205000000000000210e-02 -1.294084197439593353e-11
-3.189999999999999780e-02 -3.565356690438115095e-11
-3.175000000000000044e-02 -5.306102085489428077e-11
-3.160000000000000309e-02 2.313136661380443826e-12
-3.144999999999999879e-02 2.697879974977723805e-10
-3.130000000000000143e-02 9.067476769430982131e-10
-3.115000000000000061e-02 1.865305909731773681e-09
-3.099999999999999978e-02 2.448093283646812779e-09
-3.084999999999999895e-02 7.576996807756586350e-10
-3.070000000000000159e-02 -6.601666324712596179e-09
-3.055000000000000077e-02 -2.408053489943995373e-08
-3.039999999999999994e-02 -5.574205275138410798e-08
-3.024999999999999911e-02 -1.032258296618238091e-07
-3.009999999999999828e-02 -1.642546862967719790e-07
-2.995000000000000093e-02 -2.329512653886922635e-07
-2.980000000000000010e-02 -3.023206147645396413e-07
-2.964999999999999927e-02 -3.677129711832094472e-07
-2.949999999999999845e-02 -4.291219113383704098e-07
-2.935000000000000109e-02 -4.908208097731403541e-07
-2.920000000000000026e-02 -5.587686473518260755e-07
-2.904999999999999943e-02 -6.377550221259298269e-07
-2.889999999999999861e-02 -7.299839808183605783e-07
-2.875000000000000125e-02 -8.351624956048908643e-07
-2.860000000000000042e-02 -9.511427947472839151e-07
-2.844999999999999959e-02 -1.074840724868408870e-06
-2.829999999999999877e-02 -1.204137333843391389e-06
-2.815000000000000141e-02 -1.340582684861146845e-06
-2.800000000000000058e-02 -1.490451268182368949e-06
-2.784999999999999976e-02 -1.661530745877826121e-06
-2.769999999999999893e-02 -1.857033794294693507e-06
-2.755000000000000157e-02 -2.072579263767693192e-06
-2.740000000000000074e-02 -2.300881305927759968e-06
-2.724999999999999992e-02 -2.540810328355291858e-06
-2.709999999999999909e-02 -2.801182517941924743e-06
-2.695000000000000173e-02 -3.093893610639497638e-06
-2.680000000000000090e-02 -3.423033376748207957e-06
-2.665000000000000008e-02 -3.782516614592168480e-06
-2.649999999999999925e-02 -4.165750397078227252e-06
-2.634999999999999842e-02 -4.576286755764158443e-06
-2.620000000000000107e-02 -5.026441613154020160e-06
-2.605000000000000024e-02 -5.525422238861210644e-06
-2.589999999999999941e-02 -6.071977622923441231e-06
-2.574999999999999858e-02 -6.661058705503819510e-06
-2.560000000000000123e-02 -7.295656814676476642e-06
-2.545000000000000040e-02 -7.987928256625309587e-06
-2.529999999999999957e-02 -8.748077561904210597e-06
-2.514999999999999875e-02 -9.576405318512115628e-06
-2.500000000000000139e-02 -1.046989473252324387e-05
-2.485000000000000056e-02 -1.143448480434017256e-05
-2.469999999999999973e-02 -1.248563148692483082e-05
-2.454999999999999891e-02 -1.363560932077234611e-05
-2.440000000000000155e-02 -1.488475663791177794e-05
-2.425000000000000072e-02 -1.622891431907191873e-05
-2.409999999999999989e-02 -1.767297908372711390e-05
-2.394999999999999907e-02 -1.923195668496191502e-05
-2.380000000000000171e-02 -2.091829264827538282e-05
-2.365000000000000088e-02 -2.273316749779041857e-05
-2.350000000000000006e-02 -2.467352533130906522e-05
-2.334999999999999923e-02 -2.674498136912006885e-05
-2.319999999999999840e-02 -2.896415026043541729e-05
-2.305000000000000104e-02 -3.135005317744798958e-05
-2.290000000000000022e-02 -3.391829159227199852e-05
-2.274999999999999939e-02 -3.668465797090902925e-05
-2.259999999999999856e-02 -3.966974327340722084e-05
-2.245000000000000120e-02 -4.289646312827244401e-05
-2.230000000000000038e-02 -4.638496102415956557e-05
-2.214999999999999955e-02 -5.015284841647371650e-05
-2.199999999999999872e-02 -5.421821333584375679e-05
-2.185000000000000137e-02 -5.859770317329093814e-05
-2.170000000000000054e-02 -6.330190808512270451e-05
-2.154999999999999971e-02 -6.833830411778762937e-05
-2.139999999999999888e-02 -7.372251275228336453e-05
-2.125000000000000153e-02 -7.948451820993795991e-05
-2.110000000000000070e-02 -8.566125325160101056e-05
-2.094999999999999987e-02 -9.228550334228202701e-05
-2.079999999999999905e-02 -9.938562288880348206e-05
-2.065000000000000169e-02 -1.069940262823365629e-04
-2.050000000000000086e-02 -1.151492615463212132e-04
-2.035000000000000003e-02 -1.238871627720072865e-04
-2.019999999999999921e-02 -1.332339306827634573e-04
-2.004999999999999838e-02 -1.432118442608043551e-04
-1.990000000000000102e-02 -1.538503711344674230e-04
-1.975000000000000019e-02 -1.651900092838332057e-04
-1.959999999999999937e-02 -1.772783725755289197e-04
-1.944999999999999854e-02 -1.901675714179873466e-04
-1.930000000000000118e-02 -2.039144019363448024e-04
-1.915000000000000036e-02 -2.185769408242776990e-04
-1.899999999999999953e-02 -2.342071384191513062e-04
-1.884999999999999870e-02 -2.508492325432598591e-04
-1.870000000000000134e-02 -2.685475337784737349e-04
-1.855000000000000052e-02 -2.873540797736495733e-04
-1.839999999999999969e-02 -3.073275438509881496e-04
-1.824999999999999886e-02 -3.285291895736008883e-04
-1.810000000000000150e-02 -3.510254900902509689e-04
-1.795000000000000068e-02 -3.748940362129360437e-04
-1.779999999999999985e-02 -4.002204805146902800e-04
-1.764999999999999902e-02 -4.270868375897407532e-04
-1.750000000000000167e-02 -4.555642371997237206e-04
-1.735000000000000084e-02 -4.857188614550977945e-04
-1.720000000000000001e-02 -5.176218692213296890e-04
-1.704999999999999918e-02 -5.513528012670576572e-04
-1.689999999999999836e-02 -5.869984161108732224e-04
-1.675000000000000100e-02 -6.246538250707089901e-04
-1.660000000000000017e-02 -6.644235691055655479e-04
-1.644999999999999934e-02 -7.064161472953855991e-04
-1.629999999999999852e-02 -7.507346454076468945e-04
-1.615000000000000116e-02 -7.974744075909256935e-04
-1.600000000000000033e-02 -8.467300212942063808e-04
-1.584999999999999951e-02 -8.986017201095819473e-04
-1.569999999999999868e-02 -9.531948599033057690e-04
-1.554999999999999959e-02 -1.010619685985147953e-03
-1.540000000000000049e-02 -1.070995465852320194e-03
-1.524999999999999967e-02 -1.134451711550354958e-03
-1.510000000000000057e-02 -1.201120670884847641e-03
-1.494999999999999975e-02 -1.271126559004187584e-03
-1.480000000000000066e-02 -1.344583812169730663e-03
-1.464999999999999983e-02 -1.421606168150901794e-03
-1.450000000000000074e-02 -1.502313883975148201e-03
-1.434999999999999991e-02 -1.586833852343261242e-03
-1.420000000000000082e-02 -1.675298903137445450e-03
-1.404999999999999999e-02 -1.767848967574536800e-03
-1.389999999999999916e-02 -1.864628517068922520e-03
-1.375000000000000007e-02 -1.965777017176151276e-03
-1.359999999999999924e-02 -2.071422990411520004e-03
-1.345000000000000015e-02 -2.181687159463763237e-03
-1.329999999999999932e-02 -2.296691760420799255e-03
-1.315000000000000023e-02 -2.416564850136637688e-03
-1.299999999999999940e-02 -2.541438443586230278e-03
-1.285000000000000031e-02 -2.671446884050965309e-03
-1.269999999999999948e-02 -2.806728240102529526e-03
-1.255000000000000039e-02 -2.947417087852954865e-03
-1.239999999999999956e-02 -3.093637060374021530e-03
-1.225000000000000047e-02 -3.245496656745672226e-03
-1.209999999999999964e-02 -3.403096925467252731e-03
-1.195000000000000055e-02 -3.566541476175189018e-03
-1.179999999999999973e-02 -3.735937410965561867e-03
-1.165000000000000063e-02 -3.911389969289302826e-03
-1.149999999999999981e-02 -4.093001596629619598e-03
-1.135000000000000071e-02 -4.280867986381053925e-03
-1.119999999999999989e-02 -4.475072491914033890e-03
-1.105000000000000079e-02 -4.675680771470069885e-03
-1.089999999999999997e-02 -4.882743116468191147e-03
-1.074999999999999914e-02 -5.096304696053266525e-03
-1.060000000000000005e-02 -5.316409282386302948e-03
-1.044999999999999922e-02 -5.543095525354146957e-03
-1.030000000000000013e-02 -5.776392761617898941e-03
-1.014999999999999930e-02 -6.016315426677465439e-03
-1.000000000000000021e-02 -6.262862589210271835e-03
-9.850001000000000589e-03 -6.516012363135814667e-03
-9.700001999999999236e-03 -6.775720510631799698e-03
-9.550001000000000670e-03 -7.041927892714738846e-03
-9.400000999999999843e-03 -7.314570248126983643e-03
-9.250002000000000224e-03 -7.593574002385139465e-03
-9.100000999999999923e-03 -7.878849282860755920e-03
-8.950001000000000831e-03 -8.170283399522304535e-03
-8.800001999999999477e-03 -8.467739447951316833e-03
-8.650000999999999177e-03 -8.771053515374660492e-03
-8.500001999999999558e-03 -9.080038405954837799e-03
-8.349999999999999784e-03 -9.394485503435134888e-03
-8.200001000000000165e-03 -9.714170359075069427e-03
-8.050002000000000546e-03 -1.003885641694068909e-02
-7.900000000000000772e-03 -1.036828570067882538e-02
-7.750001000000000285e-03 -1.070217136293649673e-02
-7.600001999999999799e-03 -1.104019209742546082e-02
-7.449998999999999684e-03 -1.138199772685766220e-02
-7.300001000000000406e-03 -1.172721106559038162e-02
-7.150001999999999920e-03 -1.207542978227138519e-02
-7.000003000000000301e-03 -1.242622733116149902e-02
-6.850000000000000186e-03 -1.277916040271520615e-02
-6.700002000000000041e-03 -1.313376333564519882e-02
-6.550003000000000422e-03 -1.348953880369663239e-02
-6.400000000000000307e-03 -1.384594757109880447e-02
-6.250000999999999821e-03 -1.420242059975862503e-02
-6.100002999999999675e-03 -1.455835998058319092e-02
-5.950000000000000427e-03 -1.491314172744750977e-02
-5.800000999999999941e-03 -1.526612322777509689e-02
-5.650002999999999796e-03 -1.561663486063480377e-02
-5.499999999999999681e-03 -1.596398651599884033e-02
-5.350001000000000062e-03 -1.630745641887187958e-02
-5.200001999999999576e-03 -1.664628461003303528e-02
-5.049999999999999802e-03 -1.697967946529388428e-02
-4.900001000000000183e-03 -1.730682514607906342e-02
-4.750001999999999697e-03 -1.762689277529716492e-02
-4.599999999999999922e-03 -1.793902926146984100e-02
-4.450001000000000304e-03 -1.824236474931240082e-02
-4.300001999999999817e-03 -1.853600516915321350e-02
-4.149998999999999702e-03 -1.881903409957885742e-02
-4.000001000000000424e-03 -1.909051090478897095e-02
-3.850001999999999938e-03 -1.934946887195110321e-02
-3.699998999999999823e-03 -1.959492638707160950e-02
-3.550000000000000204e-03 -1.982589624822139740e-02
-3.400002000000000059e-03 -2.004138566553592682e-02
-3.250003000000000006e-03 -2.024038881063461304e-02
-3.099999999999999891e-03 -2.042189612984657288e-02
-2.950002000000000180e-03 -2.058487944304943085e-02
-2.800003000000000127e-03 -2.072830125689506531e-02
-2.650000000000000012e-03 -2.085112035274505615e-02
-2.500000999999999959e-03 -2.095229737460613251e-02
-2.350002999999999814e-03 -2.103080041706562042e-02
-2.200000000000000133e-03 -2.108561433851718903e-02
-2.050001000000000080e-03 -2.111573517322540283e-02
-1.900002000000000028e-03 -2.112015709280967712e-02
-1.750000000000000036e-03 -2.109787985682487488e-02
-1.600000999999999984e-03 -2.104792557656764984e-02
-1.450001999999999932e-03 -2.096932753920555115e-02
-1.299999999999999940e-03 -2.086115069687366486e-02
-1.150001000000000105e-03 -2.072248607873916626e-02
-1.000002000000000052e-03 -2.055246569216251373e-02
-8.499994999999999990e-04 -2.035024762153625488e-02
-7.000007000000000148e-04 -2.011502161622047424e-02
-5.500019000000000305e-04 -1.984600536525249481e-02
-3.999992999999999973e-04 -1.954245939850807190e-02
-2.500005000000000131e-04 -1.920369453728199005e-02
-1.000017000000000017e-04 -1.882907375693321228e-02
5.000085000000000087e-05 -1.841800659894943237e-02
1.999996999999999886e-04 -1.796996966004371643e-02
3.499985000000000270e-04 -1.748449169099330902e-02
4.999972999999999571e-04 -1.696115732192993164e-02
6.499998000000000104e-04 -1.639960892498493195e-02
7.999985999999999946e-04 -1.579955406486988068e-02
9.499975000000000129e-04 -1.516077201813459396e-02
1.100000000000000066e-03 -1.448312308639287949e-02
1.249998999999999902e-03 -1.376654393970966339e-02
1.399997999999999954e-03 -1.301104761660099030e-02
1.549999999999999946e-03 -1.221672631800174713e-02
1.699998999999999998e-03 -1.138374768197536469e-02
1.849998000000000050e-03 -1.051235478371381760e-02
2.000000000000000042e-03 -9.602878242731094360e-03
2.149999000000000094e-03 -8.655745536088943481e-03
2.299998000000000146e-03 -7.671478204429149628e-03
2.449999999999999921e-03 -6.650685798376798630e-03
2.599998999999999973e-03 -5.594066809862852097e-03
2.749998000000000026e-03 -4.502406343817710876e-03
2.900001000000000141e-03 -3.376580076292157173e-03
3.049998999999999853e-03 -2.217555185779929161e-03
3.199997999999999905e-03 -1.026392681524157524e-03
3.350001000000000020e-03 1.957482309080660343e-04
3.500000000000000073e-03 1.447610673494637012e-03
3.649997999999999784e-03 2.727847080677747726e-03
3.800000999999999900e-03 4.035023972392082214e-03
3.950000000000000386e-03 5.367623176425695419e-03
4.099999000000000005e-03 6.724040489643812180e-03
4.249997000000000150e-03 8.102582767605781555e-03
4.400000000000000265e-03 9.501473978161811829e-03
4.549998999999999884e-03 1.091885007917881012e-02
4.699998000000000370e-03 1.235276367515325546e-02
4.850000000000000144e-03 1.380119286477565765e-02
4.999998999999999763e-03 1.526204682886600494e-02
5.149998000000000249e-03 1.673317514359951019e-02
5.300000000000000024e-03 1.821235567331314087e-02
5.449998999999999642e-03 1.969730854034423828e-02
5.599998000000000128e-03 2.118568494915962219e-02
5.749999999999999903e-03 2.267508581280708313e-02
5.899999000000000389e-03 2.416305989027023315e-02
6.049998000000000008e-03 2.564711309969425201e-02
6.200001000000000123e-03 2.712472341954708099e-02
6.349999000000000268e-03 2.859333902597427368e-02
6.499997999999999887e-03 3.005037643015384674e-02
6.650001000000000002e-03 3.149322792887687683e-02
6.799999999999999621e-03 3.291926160454750061e-02
6.949997999999999766e-03 3.432584553956985474e-02
7.100000999999999882e-03 3.571033850312232971e-02
7.250000000000000368e-03 3.707010671496391296e-02
7.399998999999999987e-03 3.840253502130508423e-02
7.550000999999999761e-03 3.970500826835632324e-02
7.700000000000000247e-03 4.097495228052139282e-02
7.849998999999999866e-03 4.220980405807495117e-02
7.999997999999999485e-03 4.340703785419464111e-02
8.149999999999999259e-03 4.456416517496109009e-02
8.299999000000000612e-03 4.567876085638999939e-02
8.449998000000000231e-03 4.674844816327095032e-02
8.600000000000000006e-03 4.777090996503829956e-02
8.749998999999999624e-03 4.874390363693237305e-02
8.899997999999999243e-03 4.966526105999946594e-02
9.050000000000000752e-03 5.053288117051124573e-02
9.199999000000000371e-03 5.134475231170654297e-02
9.349997999999999990e-03 5.209895595908164978e-02
9.500000999999999238e-03 5.279367417097091675e-02
9.649998999999999383e-03 5.342719703912734985e-02
9.799998000000000736e-03 5.399791896343231201e-02
9.950000999999999984e-03 5.450434237718582153e-02
1.009999999999999960e-02 5.494508519768714905e-02
1.025000000000000043e-02 5.531889200210571289e-02
1.039999999999999952e-02 5.562462657690048218e-02
1.055000000000000035e-02 5.586128681898117065e-02
1.069999999999999944e-02 5.602800473570823669e-02
1.085000000000000027e-02 5.612405762076377869e-02
1.099999999999999936e-02 5.614885315299034119e-02
1.115000000000000019e-02 5.610192567110061646e-02
1.129999999999999928e-02 5.598297342658042908e-02
1.145000000000000011e-02 5.579182505607604980e-02
1.159999999999999920e-02 5.552845820784568787e-02
1.175000000000000003e-02 5.519299954175949097e-02
1.190000000000000085e-02 5.478572472929954529e-02
1.204999999999999995e-02 5.430705845355987549e-02
1.220000000000000077e-02 5.375756695866584778e-02
1.234999999999999987e-02 5.313796177506446838e-02
1.250000000000000069e-02 5.244909599423408508e-02
1.264999999999999979e-02 5.169196426868438721e-02
1.280000000000000061e-02 5.086771398782730103e-02
1.294999999999999971e-02 4.997761547565460205e-02
1.310000000000000053e-02 4.902308806777000427e-02
1.324999999999999963e-02 4.800568148493766785e-02
1.340000000000000045e-02 4.692706838250160217e-02
1.354999999999999954e-02 4.578904807567596436e-02
1.370000000000000037e-02 4.459352791309356689e-02
1.384999999999999946e-02 4.334254935383796692e-02
1.400000000000000029e-02 4.203826189041137695e-02
1.414999999999999938e-02 4.068291932344436646e-02
1.430000000000000021e-02 3.927887231111526489e-02
1.444999999999999930e-02 3.782857209444046021e-02
1.460000000000000013e-02 3.633454069495201111e-02
1.474999999999999922e-02 3.479940071702003479e-02
1.490000000000000005e-02 3.322584182024002075e-02
1.504999999999999914e-02 3.161662444472312927e-02
1.519999999999999997e-02 2.997457422316074371e-02
1.535000000000000080e-02 2.830257080495357513e-02
1.549999999999999989e-02 2.660354040563106537e-02
1.565000000000000072e-02 2.488044276833534241e-02
1.580000000000000154e-02 2.313627675175666809e-02
1.594999999999999890e-02 2.137406915426254272e-02
1.609999999999999973e-02 1.959686540067195892e-02
1.625000000000000056e-02 1.780771836638450623e-02
1.640000000000000138e-02 1.600968837738037109e-02
1.654999999999999874e-02 1.420582830905914307e-02
1.669999999999999957e-02 1.239918265491724014e-02
1.685000000000000039e-02 1.059277541935443878e-02
1.700000000000000122e-02 8.789605461061000824e-03
1.714999999999999858e-02 6.992639042437076569e-03
1.729999999999999941e-02 5.204807501286268234e-03
1.745000000000000023e-02 3.428992116823792458e-03
1.760000000000000106e-02 1.668022712692618370e-03
1.774999999999999842e-02 -7.532889867434278131e-05
1.789999999999999925e-02 -1.798356068320572376e-03
1.805000000000000007e-02 -3.498424310237169266e-03
1.820000000000000090e-02 -5.172973964363336563e-03
1.835000000000000173e-02 -6.819525733590126038e-03
1.849999999999999908e-02 -8.435686118900775909e-03
1.864999999999999991e-02 -1.001915428787469864e-02
1.880000000000000074e-02 -1.156772766262292862e-02
1.895000000000000157e-02 -1.307930052280426025e-02
1.909999999999999892e-02 -1.455186959356069565e-02
1.924999999999999975e-02 -1.598354056477546692e-02
1.940000000000000058e-02 -1.737252809107303619e-02
1.955000000000000140e-02 -1.871715486049652100e-02
1.969999999999999876e-02 -2.001586556434631348e-02
1.984999999999999959e-02 -2.126722037792205811e-02
2.000000000000000042e-02 -2.246990241110324860e-02
2.015000000000000124e-02 -2.362270839512348175e-02
2.029999999999999860e-02 -2.472455613315105438e-02
2.044999999999999943e-02 -2.577448636293411255e-02
2.060000000000000026e-02 -2.677165903151035309e-02
2.075000000000000108e-02 -2.771536074578762054e-02
2.089999999999999844e-02 -2.860499918460845947e-02
2.104999999999999927e-02 -2.944010496139526367e-02
2.120000000000000009e-02 -3.022032789885997772e-02
2.135000000000000092e-02 -3.094543144106864929e-02
2.149999999999999828e-02 -3.161529451608657837e-02
2.164999999999999911e-02 -3.222991526126861572e-02
2.179999999999999993e-02 -3.278939798474311829e-02
2.195000000000000076e-02 -3.329396992921829224e-02
2.210000000000000159e-02 -3.374395892024040222e-02
2.224999999999999895e-02 -3.413979709148406982e-02
2.239999999999999977e-02 -3.448201715946197510e-02
2.255000000000000060e-02 -3.477124497294425964e-02
2.270000000000000143e-02 -3.500820696353912354e-02
2.284999999999999878e-02 -3.519371524453163147e-02
2.299999999999999961e-02 -3.532866761088371277e-02
2.315000000000000044e-02 -3.541405498981475830e-02
2.330000000000000127e-02 -3.545093163847923279e-02
2.344999999999999862e-02 -3.544043377041816711e-02
2.359999999999999945e-02 -3.538376465439796448e-02
2.375000000000000028e-02 -3.528218343853950500e-02
2.390000000000000110e-02 -3.513702377676963806e-02
2.404999999999999846e-02 -3.494966030120849609e-02
2.419999999999999929e-02 -3.472153097391128540e-02
2.435000000000000012e-02 -3.445411473512649536e-02
2.450000000000000094e-02 -3.414892405271530151e-02
2.464999999999999830e-02 -3.380751982331275940e-02
2.479999999999999913e-02 -3.343147784471511841e-02
2.494999999999999996e-02 -3.302241116762161255e-02
2.510000000000000078e-02 -3.258195519447326660e-02
2.525000000000000161e-02 -3.211176767945289612e-02
2.539999999999999897e-02 -3.161351010203361511e-02
2.554999999999999979e-02 -3.108885698020458221e-02
2.570000000000000062e-02 -3.053949028253555298e-02
2.585000000000000145e-02 -2.996707893908023834e-02
2.599999999999999881e-02 -2.937329746782779694e-02
2.614999999999999963e-02 -2.875981107354164124e-02
2.630000000000000046e-02 -2.812827751040458679e-02
2.645000000000000129e-02 -2.748034149408340454e-02
2.659999999999999865e-02 -2.681762538850307465e-02
2.674999999999999947e-02 -2.614172548055648804e-02
2.690000000000000030e-02 -2.545421384274959564e-02
2.705000000000000113e-02 -2.475663274526596069e-02
2.719999999999999848e-02 -2.405049838125705719e-02
2.734999999999999931e-02 -2.333729341626167297e-02
2.750000000000000014e-02 -2.261846885085105896e-02
2.765000000000000097e-02 -2.189543470740318298e-02
2.779999999999999832e-02 -2.116955630481243134e-02
2.794999999999999915e-02 -2.044215798377990723e-02
2.809999999999999998e-02 -1.971451938152313232e-02
2.825000000000000080e-02 -1.898787170648574829e-02
2.840000000000000163e-02 -1.826340705156326294e-02
2.854999999999999899e-02 -1.754226908087730408e-02
2.869999999999999982e-02 -1.682555489242076874e-02
2.885000000000000064e-02 -1.611430384218692780e-02
2.900000000000000147e-02 -1.540951058268547058e-02
2.914999999999999883e-02 -1.471210923045873642e-02
2.929999999999999966e-02 -1.402298640459775925e-02
2.945000000000000048e-02 -1.334298308938741684e-02
2.960000000000000131e-02 -1.267288811504840851e-02
2.974999999999999867e-02 -1.201344188302755356e-02
2.989999999999999949e-02 -1.136532984673976898e-02
3.005000000000000032e-02 -1.072918158024549484e-02
3.020000000000000115e-02 -1.010557822883129120e-02
3.034999999999999851e-02 -9.495049715042114258e-03
3.049999999999999933e-02 -8.898080326616764069e-03
3.065000000000000016e-02 -8.315111510455608368e-03
3.080000000000000099e-02 -7.746535353362560272e-03
3.094999999999999835e-02 -7.192699238657951355e-03
3.109999999999999917e-02 -6.653898395597934723e-03
3.125000000000000000e-02 -6.130384746938943863e-03
3.139999999999999736e-02 -5.622366443276405334e-03
3.155000000000000165e-02 -5.130014382302761078e-03
3.169999999999999901e-02 -4.653460346162319183e-03
3.185000000000000331e-02 -4.192801658064126968e-03
3.200000000000000067e-02 -3.748099086806178093e-03
3.214999999999999802e-02 -3.319374285638332367e-03
3.230000000000000232e-02 -2.906610257923603058e-03
3.244999999999999968e-02 -2.509756479412317276e-03
3.259999999999999704e-02 -2.128735417500138283e-03
3.275000000000000133e-02 -1.763443928211927414e-03
3.289999999999999869e-02 -1.413753256201744080e-03
3.305000000000000299e-02 -1.079508685506880283e-03
3.320000000000000034e-02 -7.605298305861651897e-04
3.334999999999999770e-02 -4.566102288663387299e-04
3.350000000000000200e-02 -1.675190869718790054e-04
3.364999999999999936e-02 1.069931095116771758e-04
3.379999999999999671e-02 3.671889426186680794e-04
3.395000000000000101e-02 6.133432616479694843e-04
3.409999999999999837e-02 8.457461954094469547e-04
3.425000000000000266e-02 1.064704847522079945e-03
3.440000000000000002e-02 1.270541804842650890e-03
3.454999999999999738e-02 1.463591586798429489e-03
3.470000000000000168e-02 1.644197735004127026e-03
3.484999999999999903e-02 1.812708913348615170e-03
3.500000000000000333e-02 1.969476463273167610e-03
3.515000000000000069e-02 2.114854985848069191e-03
3.529999999999999805e-02 2.249206183478236198e-03
3.545000000000000234e-02 2.372900024056434631e-03
3.559999999999999970e-02 2.486311364918947220e-03
3.574999999999999706e-02 2.589815296232700348e-03
3.590000000000000135e-02 2.683784579858183861e-03
3.604999999999999871e-02 2.768588252365589142e-03
3.620000000000000301e-02 2.844591159373521805e-03
3.635000000000000037e-02 2.912155352532863617e-03
3.649999999999999772e-02 2.971644047647714615e-03
3.665000000000000202e-02 3.023420460522174835e-03
3.679999999999999938e-02 3.067845711484551430e-03
3.694999999999999674e-02 3.105273004621267319e-03
3.710000000000000103e-02 3.136045066639780998e-03
3.724999999999999839e-02 3.160496940836310387e-03
3.740000000000000269e-02 3.178956918418407440e-03
3.755000000000000004e-02 3.191747236996889114e-03
3.769999999999999740e-02 3.199186641722917557e-03
3.785000000000000170e-02 3.201589221134781837e-03
3.799999999999999906e-02 3.199262777343392372e-03
3.815000000000000335e-02 3.192501375451683998e-03
3.830000000000000071e-02 3.181584877893328667e-03
3.844999999999999807e-02 3.166783833876252174e-03
3.860000000000000236e-02 3.148362739011645317e-03
3.874999999999999972e-02 3.126581897959113121e-03
3.889999999999999708e-02 3.101693931967020035e-03
3.905000000000000138e-02 3.073943080380558968e-03
3.919999999999999873e-02 3.043563105165958405e-03
3.935000000000000303e-02 3.010774264112114906e-03
3.950000000000000039e-02 2.975784242153167725e-03
3.964999999999999775e-02 2.938792342320084572e-03
3.980000000000000204e-02 2.899994142353534698e-03
3.994999999999999940e-02 2.859580563381314278e-03
4.009999999999999676e-02 2.817733213305473328e-03
4.025000000000000105e-02 2.774622058495879173e-03
4.039999999999999841e-02 2.730406122282147408e-03
4.055000000000000271e-02 2.685234649106860161e-03
4.070000000000000007e-02 2.639248035848140717e-03
4.084999999999999742e-02 2.592580392956733704e-03
4.100000000000000172e-02 2.545361639931797981e-03
4.114999999999999908e-02 2.497718203812837601e-03
4.130000000000000338e-02 2.449767664074897766e-03
4.145000000000000073e-02 2.401615260168910027e-03
4.159999999999999809e-02 2.353356918320059776e-03
4.175000000000000239e-02 2.305081579834222794e-03
4.189999999999999974e-02 2.256874693557620049e-03
4.204999999999999710e-02 2.208817284554243088e-03
4.220000000000000140e-02 2.160987816751003265e-03
4.234999999999999876e-02 2.113458700478076935e-03
4.250000000000000305e-02 2.066294429823756218e-03
4.265000000000000041e-02 2.019549952819943428e-03
4.279999999999999777e-02 1.973272766917943954e-03
4.295000000000000207e-02 1.927508506923913956e-03
4.309999999999999942e-02 1.882302341982722282e-03
4.324999999999999678e-02 1.837697229348123074e-03
4.340000000000000108e-02 1.793731586076319218e-03
4.354999999999999843e-02 1.750438241288065910e-03
4.370000000000000273e-02 1.707843272015452385e-03
4.385000000000000009e-02 1.665966701693832874e-03
4.399999999999999745e-02 1.624825061298906803e-03
4.415000000000000174e-02 1.584435580298304558e-03
4.429999999999999910e-02 1.544816768728196621e-03
4.445000000000000340e-02 1.505984575487673283e-03
4.460000000000000075e-02 1.467949477955698967e-03
4.474999999999999811e-02 1.430716947652399540e-03
4.490000000000000241e-02 1.394289429299533367e-03
4.504999999999999977e-02 1.358666922897100449e-03
4.519999999999999712e-02 1.323848147876560688e-03
4.535000000000000142e-02 1.289833337068557739e-03
4.549999999999999878e-02 1.256623887456953526e-03
4.565000000000000308e-02 1.224219566211104393e-03
4.580000000000000043e-02 1.192614436149597168e-03
4.594999999999999779e-02 1.161797903478145599e-03
4.610000000000000209e-02 1.131758675910532475e-03
4.624999999999999944e-02 1.102487323805689812e-03
4.639999999999999680e-02 1.073975232429802418e-03
4.655000000000000110e-02 1.046213554218411446e-03
4.669999999999999846e-02 1.019193441607058048e-03
4.685000000000000275e-02 9.929045336320996284e-04
4.700000000000000011e-02 9.673329768702387810e-04
4.714999999999999747e-02 9.424618328921496868e-04
4.730000000000000177e-02 9.182749199680984020e-04
4.744999999999999912e-02 8.947590831667184830e-04
4.760000000000000342e-02 8.719033794477581978e-04
4.775000000000000078e-02 8.496957016177475452e-04
4.789999999999999813e-02 8.281222544610500336e-04