-4.000000000000000083e-02 0.000000000000000000e+00
-3.984999999999999654e-02 0.000000000000000000e+00
-3.969999999999999918e-02 0.000000000000000000e+00
-3.955000000000000182e-02 0.000000000000000000e+00
-3.939999999999999752e-02 0.000000000000000000e+00
-3.925000000000000017e-02 0.000000000000000000e+00
-3.910000000000000281e-02 0.000000000000000000e+00
-3.894999999999999851e-02 0.000000000000000000e+00
-3.880000000000000115e-02 0.000000000000000000e+00
-3.864999999999999686e-02 0.000000000000000000e+00
-3.849999999999999950e-02 0.000000000000000000e+00
-3.835000000000000214e-02 0.000000000000000000e+00
-3.819999999999999785e-02 0.000000000000000000e+00
-3.805000000000000049e-02 0.000000000000000000e+00
-3.790000000000000313e-02 0.000000000000000000e+00
-3.774999999999999883e-02 0.000000000000000000e+00
-3.760000000000000148e-02 0.000000000000000000e+00
-3.744999999999999718e-02 0.000000000000000000e+00
-3.729999999999999982e-02 0.000000000000000000e+00
-3.715000000000000246e-02 0.000000000000000000e+00
-3.699999999999999817e-02 0.000000000000000000e+00
-3.685000000000000081e-02 0.000000000000000000e+00
-3.670000000000000345e-02 0.000000000000000000e+00
-3.654999999999999916e-02 0.000000000000000000e+00
-3.640000000000000180e-02 0.000000000000000000e+00
-3.624999999999999750e-02 0.000000000000000000e+00
-3.610000000000000014e-02 0.000000000000000000e+00
-3.595000000000000279e-02 0.000000000000000000e+00
-3.579999999999999849e-02 0.000000000000000000e+00
-3.565000000000000113e-02 0.000000000000000000e+00
-3.549999999999999684e-02 0.000000000000000000e+00
-3.534999999999999948e-02 0.000000000000000000e+00
-3.520000000000000212e-02 0.000000000000000000e+00
-3.504999999999999782e-02 0.000000000000000000e+00
-3.490000000000000047e-02 0.000000000000000000e+00
-3.475000000000000311e-02 0.000000000000000000e+00
-3.459999999999999881e-02 0.000000000000000000e+00
-3.445000000000000145e-02 0.000000000000000000e+00
-3.429999999999999716e-02 0.000000000000000000e+00
-3.414999999999999980e-02 0.000000000000000000e+00
-3.400000000000000244e-02 0.000000000000000000e+00
-3.384999999999999815e-02 0.000000000000000000e+00
-3.370000000000000079e-02 0.000000000000000000e+00
-3.355000000000000343e-02 0.000000000000000000e+00
-3.339999999999999913e-02 0.000000000000000000e+00
-3.325000000000000178e-02 -0.000000000000000000e+00
-3.309999999999999748e-02 0.000000000000000000e+00
-3.295000000000000012e-02 -0.000000000000000000e+00
-3.280000000000000276e-02 -1.401298464324817071e-45
-3.264999999999999847e-02 5.465064010866786577e-44
-3.250000000000000111e-02 -3.993700623325728652e-43
-3.234999999999999681e-02 -2.731130706969068471e-42
-3.219999999999999946e-02 8.180500175035417097e-41
-3.205000000000000210e-02 -5.045052822154709156e-40
-3.189999999999999780e-02 -4.123030662493658994e-39
-3.175000000000000044e-02 8.239140031612324852e-38
-3.160000000000000309e-02 -2.335990772336722218e-37
-3.144999999999999879e-02 -5.184709612646410234e-36
-3.130000000000000143e-02 4.745490783284359230e-35
-3.115000000000000061e-02 1.133978278074144421e-34
-3.099999999999999978e-02 -3.523391869666184540e-33
-3.084999999999999895e-02 7.314963959264842807e-33
-3.070000000000000159e-02 1.656743031092717918e-31
-3.055000000000000077e-02 -8.574907793203241077e-31
-3.039999999999999994e-02 -5.544181301754996587e-30
-3.024999999999999911e-02 4.861003545283080770e-29
-3.009999999999999828e-02 1.387849673532233093e-28
-2.995000000000000093e-02 -1.995702727005491072e-27
-2.980000000000000010e-02 -2.780131489645484532e-27
-2.964999999999999927e-02 6.614620876991143329e-26
-2.949999999999999845e-02 5.671612853104452594e-26
-2.935000000000000109e-02 -1.850298891175302872e-24
-2.920000000000000026e-02 -1.723135499329807296e-24
-2.904999999999999943e-02 4.402315589954568039e-23
-2.889999999999999861e-02 6.557093885731193112e-23
-2.875000000000000125e-02 -8.663375979171834010e-22
-2.860000000000000042e-02 -2.166557680409355573e-21
-2.844999999999999959e-02 1.301049201809285871e-20
-2.829999999999999877e-02 5.458731590829647346e-20
-2.815000000000000141e-02 -1.166853413056949402e-19
-2.800000000000000058e-02 -9.892497997778126798e-19
-2.784999999999999976e-02 -3.091143446825576528e-19
-2.769999999999999893e-02 1.155007013122695986e-17
-2.755000000000000157e-02 2.852154155413056693e-17
-2.740000000000000074e-02 -5.482566334891268277e-17
-2.724999999999999992e-02 -4.046389944388283999e-16
-2.709999999999999909e-02 -5.492361741530672227e-16
-2.695000000000000173e-02 1.743959523233667985e-15
-2.680000000000000090e-02 8.737693728277928784e-15
-2.665000000000000008e-02 1.383904536783999231e-14
-2.649999999999999925e-02 -9.058272828924105596e-15
-2.634999999999999842e-02 -9.883213632254708725e-14
-2.620000000000000107e-02 -2.764986048280071440e-13
-2.605000000000000024e-02 -5.259924982549402106e-13
-2.589999999999999941e-02 -8.230991300865742044e-13
-2.574999999999999858e-02 -1.175363409031127127e-12
-2.560000000000000123e-02 -1.605826908078478166e-12
-2.545000000000000040e-02 -2.112108231366871536e-12
-2.529999999999999957e-02 -2.683028712396895443e-12
-2.514999999999999875e-02 -3.334763671800078377e-12
-2.500000000000000139e-02 -4.085235188328040223e-12
-2.485000000000000056e-02 -4.928249214969371295e-12
-2.469999999999999973e-02 -5.868982383416820880e-12
-2.454999999999999891e-02 -6.931245074420777641e-12
-2.440000000000000155e-02 -8.119588335020466729e-12
-2.425000000000000072e-02 -9.435775077948349576e-12
-2.409999999999999989e-02 -1.090421936772445477e-11
-2.394999999999999907e-02 -1.253820224728086075e-11
-2.380000000000000171e-02 -1.434142214706835006e-11
-2.365000000000000088e-02 -1.633935695077859407e-11
-2.350000000000000006e-02 -1.855168449416133569e-11
-2.334999999999999923e-02 -2.098667767347350832e-11
-2.319999999999999840e-02 -2.367309473449985546e-11
-2.305000000000000104e-02 -2.663587059248406774e-11
-2.290000000000000022e-02 -2.988949365789750345e-11
-2.274999999999999939e-02 -3.346840166118525417e-11
-2.259999999999999856e-02 -3.740261225737562256e-11
-2.245000000000000120e-02 -4.171457970714165242e-11
-2.230000000000000038e-02 -4.644656881325204267e-11
-2.214999999999999955e-02 -5.163420732645640499e-11
-2.199999999999999872e-02 -5.731030927602631664e-11
-2.185000000000000137e-02 -6.352667003550749314e-11
-2.170000000000000054e-02 -7.032584931065954947e-11
-2.154999999999999971e-02 -7.775410176824593123e-11
-2.139999999999999888e-02 -8.587400929238597769e-11
-2.125000000000000153e-02 -9.473755113731385791e-11
-2.110000000000000070e-02 -1.044078573597673198e-10
-2.094999999999999987e-02 -1.149592573912450177e-10
-2.079999999999999905e-02 -1.264572335735181241e-10
-2.065000000000000169e-02 -1.389849763056005827e-10
-2.050000000000000086e-02 -1.526299642229389519e-10
-2.035000000000000003e-02 -1.674768934645243235e-10
-2.019999999999999921e-02 -1.836313462399985497e-10
-2.004999999999999838e-02 -2.011968369686201186e-10
-1.990000000000000102e-02 -2.202840271303685427e-10
-1.975000000000000019e-02 -2.410222577076126527e-10
-1.959999999999999937e-02 -2.635367757353179741e-10
-1.944999999999999854e-02 -2.879704252833903411e-10
-1.930000000000000118e-02 -3.144780824637649630e-10
-1.915000000000000036e-02 -3.432152617666162087e-10
-1.899999999999999953e-02 -3.743616527884796596e-10
-1.884999999999999870e-02 -4.081014970402918607e-10
-1.870000000000000134e-02 -4.446308876637772300e-10
-1.855000000000000052e-02 -4.841691492174504674e-10
-1.839999999999999969e-02 -5.269382707950853728e-10
-1.824999999999999886e-02 -5.731843888412413435e-10
-1.810000000000000150e-02 -6.231693494562762226e-10
-1.795000000000000068e-02 -6.771659344373404110e-10
-1.779999999999999985e-02 -7.354756803579221014e-10
-1.764999999999999902e-02 -7.984120586890242066e-10
-1.750000000000000167e-02 -8.663100237171761364e-10
-1.735000000000000084e-02 -9.395341171725135609e-10
-1.720000000000000001e-02 -1.018459316881603627e-09
-1.704999999999999918e-02 -1.103497737631187192e-09
-1.689999999999999836e-02 -1.195080034932516355e-09
-1.675000000000000100e-02 -1.293663398627131755e-09
-1.660000000000000017e-02 -1.399741877960991587e-09
-1.644999999999999934e-02 -1.513827951882262823e-09
-1.629999999999999852e-02 -1.636476620880955579e-09
-1.615000000000000116e-02 -1.768269752844275899e-09
-1.600000000000000033e-02 -1.909826519153057234e-09
-1.584999999999999951e-02 -2.061803172637155512e-09
-1.569999999999999868e-02 -2.224895156999195933e-09
-1.554999999999999959e-02 -2.399833665123196624e-09
-1.540000000000000049e-02 -2.587403180598357721e-09
-1.524999999999999967e-02 -2.788417496901729464e-09
-1.510000000000000057e-02 -3.003753246133555876e-09
-1.494999999999999975e-02 -3.234322143441659136e-09
-1.480000000000000066e-02 -3.481093635571141931e-09
-1.464999999999999983e-02 -3.745090904061498804e-09
-1.450000000000000074e-02 -4.027385980265307808e-09
-1.434999999999999991e-02 -4.329116620738204801e-09
-1.420000000000000082e-02 -4.651475649097847054e-09
-1.404999999999999999e-02 -4.995717617362060992e-09
-1.389999999999999916e-02 -5.363169020000668752e-09
-1.375000000000000007e-02 -5.755211418545513880e-09
-1.359999999999999924e-02 -6.173311195567521281e-09
-1.345000000000000015e-02 -6.618993797502525922e-09
-1.329999999999999932e-02 -7.093868159557814579e-09
-1.315000000000000023e-02 -7.599620488463187939e-09
-1.299999999999999940e-02 -8.138012930203331052e-09
-1.285000000000000031e-02 -8.710897780872528529e-09
-1.269999999999999948e-02 -9.320205940355208440e-09
-1.255000000000000039e-02 -9.967960679091447673e-09
-1.239999999999999956e-02 -1.065628119079065073e-08
-1.225000000000000047e-02 -1.138737015793367391e-08
-1.209999999999999964e-02 -1.216353950894699665e-08
-1.195000000000000055e-02 -1.298718910192064868e-08
-1.179999999999999973e-02 -1.386082892906870256e-08
-1.165000000000000063e-02 -1.478707201130191606e-08
-1.149999999999999981e-02 -1.576863617458457156e-08
-1.135000000000000071e-02 -1.680835204354025336e-08
-1.119999999999999989e-02 -1.790915860055974917e-08
-1.105000000000000079e-02 -1.907411295576366683e-08
-1.089999999999999997e-02 -2.030638590611033578e-08
-1.074999999999999914e-02 -2.160926904082316469e-08
-1.060000000000000005e-02 -2.298617651774748083e-08
-1.044999999999999922e-02 -2.444064151063685131e-08
-1.030000000000000013e-02 -2.597631976186676184e-08
-1.014999999999999930e-02 -2.759700024057565315e-08
-1.000000000000000021e-02 -2.930658915545336640e-08
-9.850001000000000589e-03 -3.110913127102321596e-08
-9.700001999999999236e-03 -3.300879214407359541e-08
-9.550001000000000670e-03 -3.500987588722637156e-08
-9.400000999999999843e-03 -3.711680562901165104e-08
-9.250002000000000224e-03 -3.933413950107933488e-08
-9.100000999999999923e-03 -4.166657774362647615e-08
-8.950001000000000831e-03 -4.411893428368784953e-08
-8.800001999999999477e-03 -4.669615805141802412e-08
-8.650000999999999177e-03 -4.940332942737768462e-08
-8.500001999999999558e-03 -5.224565668981995259e-08
-8.349999999999999784e-03 -5.522846535654934996e-08
-8.200001000000000165e-03 -5.835721239577651431e-08
-8.050002000000000546e-03 -6.163747201526348363e-08
-7.900000000000000772e-03 -6.507493566232369631e-08
-7.750001000000000285e-03 -6.867541912924934877e-08
-7.600001999999999799e-03 -7.244482702617460745e-08
-7.449998999999999684e-03 -7.638919186092607561e-08
-7.300001000000000406e-03 -8.051464561731336289e-08
-7.150001999999999920e-03 -8.482740554427437019e-08
-7.000003000000000301e-03 -8.933377415587528958e-08
-6.850000000000000186e-03 -9.404016054759267718e-08
-6.700002000000000041e-03 -9.895303776374930749e-08
-6.550003000000000422e-03 -1.040789570083688886e-07
-6.400000000000000307e-03 -1.094245192234666320e-07
-6.250000999999999821e-03 -1.149963892999039672e-07
-6.100002999999999675e-03 -1.208012747611064697e-07
-5.950000000000000427e-03 -1.268459328684912180e-07
-5.800000999999999941e-03 -1.331370924617658602e-07
-5.650002999999999796e-03 -1.396815463294842630e-07
-5.499999999999999681e-03 -1.464860872602002928e-07
-5.350001000000000062e-03 -1.535574938316131011e-07
-5.200001999999999576e-03 -1.609025019888576935e-07
-5.049999999999999802e-03 -1.685278334662143607e-07
-4.900001000000000183e-03 -1.764401389436898171e-07
-4.750001999999999697e-03 -1.846460406795813469e-07
-4.599999999999999922e-03 -1.931520330344937975e-07
-4.450001000000000304e-03 -2.019645819473225856e-07
-4.300001999999999817e-03 -2.110899828267065459e-07
-4.149998999999999702e-03 -2.205344173944467911e-07
-4.000001000000000424e-03 -2.303039394746519974e-07
-3.850001999999999938e-03 -2.404044323611742584e-07
-3.699998999999999823e-03 -2.508415946067543700e-07
-3.550000000000000204e-03 -2.616209258121671155e-07
-3.400002000000000059e-03 -2.727477124153665500e-07
-3.250003000000000006e-03 -2.842269850589218549e-07
-3.099999999999999891e-03 -2.960635470117267687e-07
-2.950002000000000180e-03 -3.082619173255807254e-07
-2.800003000000000127e-03 -3.208263024134794250e-07
-2.650000000000000012e-03 -3.337605676279054023e-07
-2.500000999999999959e-03 -3.470682656825374579e-07
-2.350002999999999814e-03 -3.607525798088317970e-07
-2.200000000000000133e-03 -3.748163805994408904e-07
-2.050001000000000080e-03 -3.892619702128286008e-07
-1.900002000000000028e-03 -4.040913950120739173e-07
-1.750000000000000036e-03 -4.193061613477766514e-07
-1.600000999999999984e-03 -4.349073492448951583e-07
-1.450001999999999932e-03 -4.508954987159086158e-07
-1.299999999999999940e-03 -4.672706381825264543e-07
-1.150001000000000105e-03 -4.840323981625260785e-07
-1.000002000000000052e-03 -5.011796702092397027e-07
-8.499994999999999990e-04 -5.187109195503580850e-07
-7.000007000000000148e-04 -5.366239292925456539e-07
-5.500019000000000305e-04 -5.549159141082782298e-07
-3.999992999999999973e-04 -5.735835202358430251e-07
-2.500005000000000131e-04 -5.926225981056632008e-07
-1.000017000000000017e-04 -6.120284297139733098e-07
5.000085000000000087e-05 -6.317956717794004362e-07
1.999996999999999886e-04 -6.519181852127076127e-07
3.499985000000000270e-04 -6.723891488036315423e-07
4.999972999999999571e-04 -6.932010592208825983e-07
6.499998000000000104e-04 -7.143457878555636853e-07
7.999985999999999946e-04 -7.358141829172382131e-07
9.499975000000000129e-04 -7.575966378681187052e-07
1.100000000000000066e-03 -7.796826366757159121e-07
1.249998999999999902e-03 -8.020608674996765330e-07
1.399997999999999954e-03 -8.247193363786209375e-07
1.549999999999999946e-03 -8.476452535433054436e-07
1.699998999999999998e-03 -8.708250902600411791e-07
1.849998000000000050e-03 -8.942444651438563596e-07
2.000000000000000042e-03 -9.178882010019151494e-07
2.149999000000000094e-03 -9.417404953637742437e-07
2.299998000000000146e-03 -9.657845794208697043e-07
2.449999999999999921e-03 -9.900032864607055672e-07
2.599998999999999973e-03 -1.014378199215570930e-06
2.749998000000000026e-03 -1.038890559357241727e-06
2.900001000000000141e-03 -1.063520585375954397e-06
3.049998999999999853e-03 -1.088248154701432213e-06
3.199997999999999905e-03 -1.113052007895021234e-06
3.350001000000000020e-03 -1.137910544457554352e-06
3.500000000000000073e-03 -1.162801368082000408e-06
3.649997999999999784e-03 -1.187701514027139638e-06
3.800000999999999900e-03 -1.212587335430725943e-06
3.950000000000000386e-03 -1.237434616996324621e-06
4.099999000000000005e-03 -1.262218574993312359e-06
4.249997000000000150e-03 -1.286913857256877236e-06
4.400000000000000265e-03 -1.311494770561694168e-06
4.549998999999999884e-03 -1.335935166935087182e-06
4.699998000000000370e-03 -1.360208443657029420e-06
4.850000000000000144e-03 -1.384287315886467695e-06
4.999998999999999763e-03 -1.408144498782348819e-06
5.149998000000000249e-03 -1.431752366443106439e-06
5.300000000000000024e-03 -1.455082838219823316e-06
5.449998999999999642e-03 -1.478107833463582210e-06
5.599998000000000128e-03 -1.500798816778114997e-06
5.749999999999999903e-03 -1.523127480140828993e-06
5.899999000000000389e-03 -1.545065174468618352e-06
6.049998000000000008e-03 -1.566583250678377226e-06
6.200001000000000123e-03 -1.587653400747512933e-06
6.349999000000000268e-03 -1.608246975592919625e-06
6.499997999999999887e-03 -1.628335439818329178e-06
6.650001000000000002e-03 -1.647890826461662073e-06
6.799999999999999621e-03 -1.666885054874001071e-06
6.949997999999999766e-03 -1.685290612840617541e-06
7.100000999999999882e-03 -1.703079988146782853e-06
7.250000000000000368e-03 -1.720226350698794704e-06
7.399998999999999987e-03 -1.736703097776626237e-06
7.550000999999999761e-03 -1.752484308781276923e-06
7.700000000000000247e-03 -1.767544631547934841e-06
7.849998999999999866e-03 -1.781859054972301237e-06
7.999997999999999485e-03 -1.795403363757941406e-06
8.149999999999999259e-03 -1.808154138416284695e-06
8.299999000000000612e-03 -1.820088755266624503e-06
8.449998000000000231e-03 -1.831185386436118279e-06
8.600000000000000006e-03 -1.841422886172949802e-06
8.749998999999999624e-03 -1.850781245593680069e-06
8.899997999999999243e-03 -1.859241251622734126e-06
9.050000000000000752e-03 -1.866784828052914236e-06
9.199999000000000371e-03 -1.873394694484886713e-06
9.349997999999999990e-03 -1.879055048448208254e-06
9.500000999999999238e-03 -1.883750883280299604e-06
9.649998999999999383e-03 -1.887468670247471891e-06
9.799998000000000736e-03 -1.890195676423900295e-06
9.950000999999999984e-03 -1.891920760499488097e-06
1.009999999999999960e-02 -1.892633918032515794e-06
1.025000000000000043e-02 -1.892326281449641101e-06
1.039999999999999952e-02 -1.890990461106412113e-06
1.055000000000000035e-02 -1.888620545287267305e-06
1.069999999999999944e-02 -1.885211759145022370e-06
1.085000000000000027e-02 -1.880760578387707938e-06
1.099999999999999936e-02 -1.875265411399595905e-06
1.115000000000000019e-02 -1.868725234999146778e-06
1.129999999999999928e-02 -1.861141186054737773e-06
1.145000000000000011e-02 -1.852515538303123321e-06
1.159999999999999920e-02 -1.842852043409948237e-06
1.175000000000000003e-02 -1.832155589909234550e-06
1.190000000000000085e-02 -1.820432657950732391e-06
1.204999999999999995e-02 -1.807691319299919996e-06
1.220000000000000077e-02 -1.793940782590652816e-06
1.234999999999999987e-02 -1.779191620698838960e-06
1.250000000000000069e-02 -1.763455884429276921e-06
1.264999999999999979e-02 -1.746746875141980127e-06
1.280000000000000061e-02 -1.729079144752176944e-06
1.294999999999999971e-02 -1.710468723103986122e-06
1.310000000000000053e-02 -1.690932776909903623e-06
1.324999999999999963e-02 -1.670489609750802629e-06
1.340000000000000045e-02 -1.649158775762771256e-06
1.354999999999999954e-02 -1.626961079637112562e-06
1.370000000000000037e-02 -1.603918235559831373e-06
1.384999999999999946e-02 -1.580053321958985180e-06
1.400000000000000029e-02 -1.555390099383657798e-06
1.414999999999999938e-02 -1.529953465251310263e-06
1.430000000000000021e-02 -1.503769112787267659e-06
1.444999999999999930e-02 -1.476863758398394566e-06
1.460000000000000013e-02 -1.449264800612581894e-06
1.474999999999999922e-02 -1.421000433765584603e-06
1.490000000000000005e-02 -1.392099648001021706e-06
1.504999999999999914e-02 -1.362592001896700822e-06
1.519999999999999997e-02 -1.332507508777780458e-06
1.535000000000000080e-02 -1.301876977777283173e-06
1.549999999999999989e-02 -1.270731445401906967e-06
1.565000000000000072e-02 -1.239102289218863007e-06
1.580000000000000154e-02 -1.207021568916388787e-06
1.594999999999999890e-02 -1.174521116809046362e-06
1.609999999999999973e-02 -1.141633447332424112e-06
1.625000000000000056e-02 -1.108390733861597255e-06
1.640000000000000138e-02 -1.074825718205829617e-06
1.654999999999999874e-02 -1.040970914800709579e-06
1.669999999999999957e-02 -1.006858610708150081e-06
1.685000000000000039e-02 -9.725214340505772270e-07
1.700000000000000122e-02 -9.379912739859719295e-07
1.714999999999999858e-02 -9.033003038894094061e-07
1.729999999999999941e-02 -8.684800150149385445e-07
1.745000000000000023e-02 -8.335618417731893715e-07
1.760000000000000106e-02 -7.985765932971844450e-07
1.774999999999999842e-02 -7.635546808160142973e-07
1.789999999999999925e-02 -7.285259471245808527e-07
1.805000000000000007e-02 -6.935198371138540097e-07
1.820000000000000090e-02 -6.585649430235207547e-07
1.835000000000000173e-02 -6.236893455024983268e-07
1.849999999999999908e-02 -5.889203862352587748e-07
1.864999999999999991e-02 -5.542846110984100960e-07
1.880000000000000074e-02 -5.198077701606962364e-07
1.895000000000000157e-02 -4.855147039961593691e-07
1.909999999999999892e-02 -4.514295710578153376e-07
1.924999999999999975e-02 -4.175754497737216298e-07
1.940000000000000058e-02 -3.839746796074905433e-07
1.955000000000000140e-02 -3.506482926241005771e-07
1.969999999999999876e-02 -3.176166671892133309e-07
1.984999999999999959e-02 -2.848990448001131881e-07
2.000000000000000042e-02 -2.525135869291261770e-07
2.015000000000000124e-02 -2.204775029213124071e-07
2.029999999999999860e-02 -1.888068936750642024e-07
2.044999999999999943e-02 -1.575167658529608161e-07
2.060000000000000026e-02 -1.266211171468967223e-07
2.075000000000000108e-02 -9.613282969667125144e-08
2.089999999999999844e-02 -6.606364877370651811e-08
2.104999999999999927e-02 -3.642421830818420858e-08
2.120000000000000009e-02 -7.224264741978458915e-09
2.135000000000000092e-02 2.152774314367889019e-08
2.149999999999999828e-02 4.982434731459761679e-08
2.164999999999999911e-02 7.765908094370388426e-08
2.179999999999999993e-02 1.050265510116332734e-07
2.195000000000000076e-02 1.319225191309669754e-07
2.210000000000000159e-02 1.583435391694365535e-07
2.224999999999999895e-02 1.842872450197319267e-07
2.239999999999999977e-02 2.097522298072362901e-07
2.255000000000000060e-02 2.347380672063081875e-07
2.270000000000000143e-02 2.592450982774607837e-07
2.284999999999999878e-02 2.832746304193278775e-07
2.299999999999999961e-02 3.068287810492620338e-07
2.315000000000000044e-02 3.299104776033345843e-07
2.330000000000000127e-02 3.525234717471903423e-07
2.344999999999999862e-02 3.746721972675004508e-07
2.359999999999999945e-02 3.963617416502529522e-07
2.375000000000000028e-02 4.175979313458810793e-07
2.390000000000000110e-02 4.383871328172972426e-07
2.404999999999999846e-02 4.587364230701496126e-07
2.419999999999999929e-02 4.786532485923089553e-07
2.435000000000000012e-02 4.981456527275440749e-07
2.450000000000000094e-02 5.172221335669746622e-07
2.464999999999999830e-02 5.358916155273618642e-07
2.479999999999999913e-02 5.541631935557234101e-07
2.494999999999999996e-02 5.720464173464279156e-07
2.510000000000000078e-02 5.895511776543571614e-07
2.525000000000000161e-02 6.066875926080683712e-07
2.539999999999999897e-02 6.234657234926999081e-07
2.554999999999999979e-02 6.398960294973221608e-07
2.570000000000000062e-02 6.559889698110055178e-07
2.585000000000000145e-02 6.717550604662392288e-07
2.599999999999999881e-02 6.872047606520936824e-07
2.614999999999999963e-02 7.023487000878958497e-07
2.630000000000000046e-02 7.171972811192972586e-07
2.645000000000000129e-02 7.317608492485305760e-07
2.659999999999999865e-02 7.460496362909907475e-07
2.674999999999999947e-02 7.600736466883972753e-07
2.690000000000000030e-02 7.738426006653753575e-07
2.705000000000000113e-02 7.873662752899690531e-07
2.719999999999999848e-02 8.006538223526149523e-07
2.734999999999999931e-02 8.137143936437496450e-07
2.750000000000000014e-02 8.265566293630399741e-07
2.765000000000000097e-02 8.391887149628018960e-07
2.779999999999999832e-02 8.516186085216759238e-07
2.794999999999999915e-02 8.638539270577894058e-07
2.809999999999999998e-02 8.759017759984999429e-07
2.825000000000000080e-02 8.877687491803953890e-07
2.840000000000000163e-02 8.994611562229692936e-07
2.854999999999999899e-02 9.109846246246888768e-07
2.869999999999999982e-02 9.223445545103459153e-07
2.885000000000000064e-02 9.335456070402869955e-07
2.900000000000000147e-02 9.445921591577643994e-07
2.914999999999999883e-02 9.554879625284229405e-07
2.929999999999999966e-02 9.662362572271376848e-07
2.945000000000000048e-02 9.768399422682705335e-07
2.960000000000000131e-02 9.873010640149004757e-07
2.974999999999999867e-02 9.976216688301065005e-07
2.989999999999999949e-02 1.007802893582265824e-06
3.005000000000000032e-02 1.017845420392404776e-06
3.020000000000000115e-02 1.027749817694711965e-06
3.034999999999999851e-02 1.037515858115511946e-06
3.049999999999999933e-02 1.047142973220616113e-06
3.065000000000000016e-02 1.056630253515322693e-06
3.080000000000000099e-02 1.065976221070741303e-06
3.094999999999999835e-02 1.075179170584306121e-06
3.109999999999999917e-02 1.084237055692938156e-06
3.125000000000000000e-02 1.093147147912532091e-06
3.139999999999999736e-02 1.101907059819495771e-06
3.155000000000000165e-02 1.110513380808697548e-06
3.169999999999999901e-02 1.118963041335518938e-06
3.185000000000000331e-02 1.127252403421152849e-06
3.200000000000000067e-02 1.135377942773629911e-06
3.214999999999999802e-02 1.143335680353629868e-06
3.230000000000000232e-02 1.151121637121832464e-06
3.244999999999999968e-02 1.158731834038917441e-06
3.259999999999999704e-02 1.166162178378726821e-06
3.275000000000000133e-02 1.173408577415102627e-06
3.289999999999999869e-02 1.180466938421886880e-06
3.305000000000000299e-02 1.187333396046597045e-06
3.320000000000000034e-02 1.194003971249912865e-06
3.334999999999999770e-02 1.200474912366189528e-06
3.350000000000000200e-02 1.206742808790295385e-06
3.364999999999999936e-02 1.212804363603936508e-06
3.379999999999999671e-02 1.218656393575656693e-06
3.395000000000000101e-02 1.224296397595026065e-06
3.409999999999999837e-02 1.229721874551614746e-06
3.425000000000000266e-02 1.234930891769181471e-06
3.440000000000000002e-02 1.239921971318835858e-06
3.454999999999999738e-02 1.244693976332200691e-06
3.470000000000000168e-02 1.249246338375087362e-06
3.484999999999999903e-02 1.253578943760658149e-06
3.500000000000000333e-02 1.257692474609939381e-06
3.515000000000000069e-02 1.261587840417632833e-06
3.529999999999999805e-02 1.265266973859979771e-06
3.545000000000000234e-02 1.268732034986896906e-06
3.559999999999999970e-02 1.271986320716678165e-06
3.574999999999999706e-02 1.275033582714968361e-06
3.590000000000000135e-02 1.277878368455276359e-06
3.604999999999999871e-02 1.280525907532137353e-06
3.620000000000000301e-02 1.282982339034788311e-06
3.635000000000000037e-02 1.285254597860330250e-06
3.649999999999999772e-02 1.287350301026890520e-06
3.665000000000000202e-02 1.289277975047298241e-06
3.679999999999999938e-02 1.291046828555408865e-06
3.694999999999999674e-02 1.292666979679779615e-06
3.710000000000000103e-02 1.294149569730507210e-06
3.724999999999999839e-02 1.295506422138714697e-06
3.740000000000000269e-02 1.296750042456551455e-06
3.755000000000000004e-02 1.297893845730868634e-06
3.769999999999999740e-02 1.298952270190056879e-06
3.785000000000000170e-02 1.299940322496695444e-06
3.799999999999999906e-02 1.300873918808065355e-06
3.815000000000000335e-02 1.301769771089311689e-06
3.830000000000000071e-02 1.302645273426605854e-06
3.844999999999999807e-02 1.303518388340307865e-06
3.860000000000000236e-02 1.304408215219154954e-06
3.874999999999999972e-02 1.305334080825559795e-06
3.889999999999999708e-02 1.306316221416636836e-06
3.905000000000000138e-02 1.307375327996851411e-06
3.919999999999999873e-02 1.308532660004857462e-06
3.935000000000000303e-02 1.309809931626659818e-06
3.950000000000000039e-02 1.311229652856127359e-06
3.964999999999999775e-02 1.312814106313453522e-06
3.980000000000000204e-02 1.314586484113533515e-06
3.994999999999999940e-02 1.316570319431775715e-06
4.009999999999999676e-02 1.318788918069913052e-06
4.025000000000000105e-02 1.321266154263867065e-06
4.039999999999999841e-02 1.324025902249559294e-06
4.055000000000000271e-02 1.327092149949749000e-06
4.070000000000000007e-02 1.330488885287195444e-06
4.084999999999999742e-02 1.334239755124144722e-06
4.100000000000000172e-02 1.338368633696518373e-06
4.114999999999999908e-02 1.342899054179724772e-06
4.130000000000000338e-02 1.347854095001821406e-06
4.145000000000000073e-02 1.353256720904028043e-06
4.159999999999999809e-02 1.359129328193375841e-06
4.175000000000000239e-02 1.365493517369031906e-06
4.189999999999999974e-02 1.372370775243325625e-06
4.204999999999999710e-02 1.379781451760209166e-06
4.220000000000000140e-02 1.387745555803121533e-06
4.234999999999999876e-02 1.396281732013449073e-06
4.250000000000000305e-02 1.405408170285227243e-06
4.265000000000000041e-02 1.415141923644114286e-06
4.279999999999999777e-02 1.425498794560553506e-06
4.295000000000000207e-02 1.436493448636610992e-06
4.309999999999999942e-02 1.448139528292813338e-06
4.324999999999999678e-02 1.460449198020796757e-06
4.340000000000000108e-02 1.473433371756982524e-06
4.354999999999999843e-02 1.487101258135226090e-06
4.370000000000000273e-02 1.501460701547330245e-06
4.385000000000000009e-02 1.516517954769369680e-06
4.399999999999999745e-02 1.532277337901177816e-06
4.415000000000000174e-02 1.548741693113697693e-06
4.429999999999999910e-02 1.565912384648981970e-06
4.445000000000000340e-02 1.583788048264977988e-06
4.460000000000000075e-02 1.602366182851255871e-06
4.474999999999999811e-02 1.621642013560631312e-06
4.490000000000000241e-02 1.641609060243354179e-06
4.504999999999999977e-02 1.662258227952406742e-06
4.519999999999999712e-02 1.683578830125043169e-06
4.535000000000000142e-02 1.705557906461763196e-06
4.549999999999999878e-02 1.728180222926312126e-06
4.565000000000000308e-02 1.751428612806193996e-06
4.580000000000000043e-02 1.775283635652158409e-06
4.594999999999999779e-02 1.799723577278200537e-06
4.610000000000000209e-02 1.824724449761561118e-06
4.624999999999999944e-02 1.850260332503239624e-06
4.639999999999999680e-02 1.876302803793805651e-06
4.655000000000000110e-02 1.902821395560749806e-06
4.669999999999999846e-02 1.929783365994808264e-06
4.685000000000000275e-02 1.957153926923638210e-06
4.700000000000000011e-02 1.984895789064466953e-06
4.714999999999999747e-02 2.012970298892469145e-06
4.730000000000000177e-02 2.041335847025038674e-06
4.744999999999999912e-02 2.069949232463841327e-06
4.760000000000000342e-02 2.098765207847463898e-06
4.775000000000000078e-02 2.127736706825089641e-06
4.789999999999999813e-02 2.156814844056498259e-06