-4.000000000000000083e-02 0.000000000000000000e+00
-3.984999999999999654e-02 0.000000000000000000e+00
-3.969999999999999918e-02 0.000000000000000000e+00
-3.955000000000000182e-02 0.000000000000000000e+00
-3.939999999999999752e-02 0.000000000000000000e+00
-3.925000000000000017e-02 0.000000000000000000e+00
-3.910000000000000281e-02 0.000000000000000000e+00
-3.894999999999999851e-02 0.000000000000000000e+00
-3.880000000000000115e-02 0.000000000000000000e+00
-3.864999999999999686e-02 0.000000000000000000e+00
-3.849999999999999950e-02 0.000000000000000000e+00
-3.835000000000000214e-02 0.000000000000000000e+00
-3.819999999999999785e-02 0.000000000000000000e+00
-3.805000000000000049e-02 0.000000000000000000e+00
-3.790000000000000313e-02 0.000000000000000000e+00
-3.774999999999999883e-02 0.000000000000000000e+00
-3.760000000000000148e-02 0.000000000000000000e+00
-3.744999999999999718e-02 0.000000000000000000e+00
-3.729999999999999982e-02 0.000000000000000000e+00
-3.715000000000000246e-02 0.000000000000000000e+00
-3.699999999999999817e-02 0.000000000000000000e+00
-3.685000000000000081e-02 0.000000000000000000e+00
-3.670000000000000345e-02 0.000000000000000000e+00
-3.654999999999999916e-02 0.000000000000000000e+00
-3.640000000000000180e-02 0.000000000000000000e+00
-3.624999999999999750e-02 0.000000000000000000e+00
-3.610000000000000014e-02 0.000000000000000000e+00
-3.595000000000000279e-02 0.000000000000000000e+00
-3.579999999999999849e-02 0.000000000000000000e+00
-3.565000000000000113e-02 0.000000000000000000e+00
-3.549999999999999684e-02 0.000000000000000000e+00
-3.534999999999999948e-02 0.000000000000000000e+00
-3.520000000000000212e-02 0.000000000000000000e+00
-3.504999999999999782e-02 0.000000000000000000e+00
-3.490000000000000047e-02 0.000000000000000000e+00
-3.475000000000000311e-02 0.000000000000000000e+00
-3.459999999999999881e-02 0.000000000000000000e+00
-3.445000000000000145e-02 0.000000000000000000e+00
-3.429999999999999716e-02 0.000000000000000000e+00
-3.414999999999999980e-02 0.000000000000000000e+00
-3.400000000000000244e-02 0.000000000000000000e+00
-3.384999999999999815e-02 0.000000000000000000e+00
-3.370000000000000079e-02 0.000000000000000000e+00
-3.355000000000000343e-02 0.000000000000000000e+00
-3.339999999999999913e-02 0.000000000000000000e+00
-3.325000000000000178e-02 0.000000000000000000e+00
-3.309999999999999748e-02 0.000000000000000000e+00
-3.295000000000000012e-02 0.000000000000000000e+00
-3.280000000000000276e-02 0.000000000000000000e+00
-3.264999999999999847e-02 0.000000000000000000e+00
-3.250000000000000111e-02 0.000000000000000000e+00
-3.234999999999999681e-02 0.000000000000000000e+00
-3.219999999999999946e-02 0.000000000000000000e+00
-3.205000000000000210e-02 0.000000000000000000e+00
-3.189999999999999780e-02 0.000000000000000000e+00
-3.175000000000000044e-02 0.000000000000000000e+00
-3.160000000000000309e-02 0.000000000000000000e+00
-3.144999999999999879e-02 0.000000000000000000e+00
-3.130000000000000143e-02 0.000000000000000000e+00
-3.115000000000000061e-02 0.000000000000000000e+00
-3.099999999999999978e-02 0.000000000000000000e+00
-3.084999999999999895e-02 0.000000000000000000e+00
-3.070000000000000159e-02 0.000000000000000000e+00
-3.055000000000000077e-02 0.000000000000000000e+00
-3.039999999999999994e-02 0.000000000000000000e+00
-3.024999999999999911e-02 0.000000000000000000e+00
-3.009999999999999828e-02 0.000000000000000000e+00
-2.995000000000000093e-02 0.000000000000000000e+00
-2.980000000000000010e-02 0.000000000000000000e+00
-2.964999999999999927e-02 0.000000000000000000e+00
-2.949999999999999845e-02 0.000000000000000000e+00
-2.935000000000000109e-02 0.000000000000000000e+00
-2.920000000000000026e-02 0.000000000000000000e+00
-2.904999999999999943e-02 0.000000000000000000e+00
-2.889999999999999861e-02 0.000000000000000000e+00
-2.875000000000000125e-02 0.000000000000000000e+00
-2.860000000000000042e-02 0.000000000000000000e+00
-2.844999999999999959e-02 0.000000000000000000e+00
-2.829999999999999877e-02 0.000000000000000000e+00
-2.815000000000000141e-02 0.000000000000000000e+00
-2.800000000000000058e-02 0.000000000000000000e+00
-2.784999999999999976e-02 0.000000000000000000e+00
-2.769999999999999893e-02 0.000000000000000000e+00
-2.755000000000000157e-02 0.000000000000000000e+00
-2.740000000000000074e-02 0.000000000000000000e+00
-2.724999999999999992e-02 0.000000000000000000e+00
-2.709999999999999909e-02 0.000000000000000000e+00
-2.695000000000000173e-02 0.000000000000000000e+00
-2.680000000000000090e-02 0.000000000000000000e+00
-2.665000000000000008e-02 0.000000000000000000e+00
-2.649999999999999925e-02 0.000000000000000000e+00
-2.634999999999999842e-02 0.000000000000000000e+00
-2.620000000000000107e-02 0.000000000000000000e+00
-2.605000000000000024e-02 0.000000000000000000e+00
-2.589999999999999941e-02 0.000000000000000000e+00
-2.574999999999999858e-02 0.000000000000000000e+00
-2.560000000000000123e-02 0.000000000000000000e+00
-2.545000000000000040e-02 0.000000000000000000e+00
-2.529999999999999957e-02 0.000000000000000000e+00
-2.514999999999999875e-02 0.000000000000000000e+00
-2.500000000000000139e-02 0.000000000000000000e+00
-2.485000000000000056e-02 0.000000000000000000e+00
-2.469999999999999973e-02 0.000000000000000000e+00
-2.454999999999999891e-02 0.000000000000000000e+00
-2.440000000000000155e-02 0.000000000000000000e+00
-2.425000000000000072e-02 0.000000000000000000e+00
-2.409999999999999989e-02 0.000000000000000000e+00
-2.394999999999999907e-02 0.000000000000000000e+00
-2.380000000000000171e-02 0.000000000000000000e+00
-2.365000000000000088e-02 0.000000000000000000e+00
-2.350000000000000006e-02 0.000000000000000000e+00
-2.334999999999999923e-02 0.000000000000000000e+00
-2.319999999999999840e-02 0.000000000000000000e+00
-2.305000000000000104e-02 0.000000000000000000e+00
-2.290000000000000022e-02 0.000000000000000000e+00
-2.274999999999999939e-02 0.000000000000000000e+00
-2.259999999999999856e-02 0.000000000000000000e+00
-2.245000000000000120e-02 0.000000000000000000e+00
-2.230000000000000038e-02 0.000000000000000000e+00
-2.214999999999999955e-02 0.000000000000000000e+00
-2.199999999999999872e-02 0.000000000000000000e+00
-2.185000000000000137e-02 0.000000000000000000e+00
-2.170000000000000054e-02 0.000000000000000000e+00
-2.154999999999999971e-02 0.000000000000000000e+00
-2.139999999999999888e-02 0.000000000000000000e+00
-2.125000000000000153e-02 0.000000000000000000e+00
-2.110000000000000070e-02 0.000000000000000000e+00
-2.094999999999999987e-02 0.000000000000000000e+00
-2.079999999999999905e-02 0.000000000000000000e+00
-2.065000000000000169e-02 0.000000000000000000e+00
-2.050000000000000086e-02 0.000000000000000000e+00
-2.035000000000000003e-02 0.000000000000000000e+00
-2.019999999999999921e-02 0.000000000000000000e+00
-2.004999999999999838e-02 0.000000000000000000e+00
-1.990000000000000102e-02 0.000000000000000000e+00
-1.975000000000000019e-02 0.000000000000000000e+00
-1.959999999999999937e-02 0.000000000000000000e+00
-1.944999999999999854e-02 0.000000000000000000e+00
-1.930000000000000118e-02 0.000000000000000000e+00
-1.915000000000000036e-02 0.000000000000000000e+00
-1.899999999999999953e-02 0.000000000000000000e+00
-1.884999999999999870e-02 0.000000000000000000e+00
-1.870000000000000134e-02 0.000000000000000000e+00
-1.855000000000000052e-02 0.000000000000000000e+00
-1.839999999999999969e-02 0.000000000000000000e+00
-1.824999999999999886e-02 0.000000000000000000e+00
-1.810000000000000150e-02 0.000000000000000000e+00
-1.795000000000000068e-02 0.000000000000000000e+00
-1.779999999999999985e-02 0.000000000000000000e+00
-1.764999999999999902e-02 0.000000000000000000e+00
-1.750000000000000167e-02 0.000000000000000000e+00
-1.735000000000000084e-02 0.000000000000000000e+00
-1.720000000000000001e-02 0.000000000000000000e+00
-1.704999999999999918e-02 0.000000000000000000e+00
-1.689999999999999836e-02 0.000000000000000000e+00
-1.675000000000000100e-02 0.000000000000000000e+00
-1.660000000000000017e-02 0.000000000000000000e+00
-1.644999999999999934e-02 0.000000000000000000e+00
-1.629999999999999852e-02 0.000000000000000000e+00
-1.615000000000000116e-02 0.000000000000000000e+00
-1.600000000000000033e-02 0.000000000000000000e+00
-1.584999999999999951e-02 0.000000000000000000e+00
-1.569999999999999868e-02 0.000000000000000000e+00
-1.554999999999999959e-02 0.000000000000000000e+00
-1.540000000000000049e-02 0.000000000000000000e+00
-1.524999999999999967e-02 0.000000000000000000e+00
-1.510000000000000057e-02 0.000000000000000000e+00
-1.494999999999999975e-02 0.000000000000000000e+00
-1.480000000000000066e-02 0.000000000000000000e+00
-1.464999999999999983e-02 0.000000000000000000e+00
-1.450000000000000074e-02 0.000000000000000000e+00
-1.434999999999999991e-02 0.000000000000000000e+00
-1.420000000000000082e-02 0.000000000000000000e+00
-1.404999999999999999e-02 0.000000000000000000e+00
-1.389999999999999916e-02 0.000000000000000000e+00
-1.375000000000000007e-02 0.000000000000000000e+00
-1.359999999999999924e-02 0.000000000000000000e+00
-1.345000000000000015e-02 0.000000000000000000e+00
-1.329999999999999932e-02 0.000000000000000000e+00
-1.315000000000000023e-02 0.000000000000000000e+00
-1.299999999999999940e-02 0.000000000000000000e+00
-1.285000000000000031e-02 0.000000000000000000e+00
-1.269999999999999948e-02 0.000000000000000000e+00
-1.255000000000000039e-02 0.000000000000000000e+00
-1.239999999999999956e-02 0.000000000000000000e+00
-1.225000000000000047e-02 0.000000000000000000e+00
-1.209999999999999964e-02 0.000000000000000000e+00
-1.195000000000000055e-02 0.000000000000000000e+00
-1.179999999999999973e-02 0.000000000000000000e+00
-1.165000000000000063e-02 0.000000000000000000e+00
-1.149999999999999981e-02 0.000000000000000000e+00
-1.135000000000000071e-02 0.000000000000000000e+00
-1.119999999999999989e-02 0.000000000000000000e+00
-1.105000000000000079e-02 0.000000000000000000e+00
-1.089999999999999997e-02 0.000000000000000000e+00
-1.074999999999999914e-02 0.000000000000000000e+00
-1.060000000000000005e-02 0.000000000000000000e+00
-1.044999999999999922e-02 0.000000000000000000e+00
-1.030000000000000013e-02 0.000000000000000000e+00
-1.014999999999999930e-02 0.000000000000000000e+00
-1.000000000000000021e-02 0.000000000000000000e+00
-9.850001000000000589e-03 0.000000000000000000e+00
-9.700001999999999236e-03 0.000000000000000000e+00
-9.550001000000000670e-03 0.000000000000000000e+00
-9.400000999999999843e-03 0.000000000000000000e+00
-9.250002000000000224e-03 0.000000000000000000e+00
-9.100000999999999923e-03 0.000000000000000000e+00
-8.950001000000000831e-03 0.000000000000000000e+00
-8.800001999999999477e-03 0.000000000000000000e+00
-8.650000999999999177e-03 0.000000000000000000e+00
-8.500001999999999558e-03 0.000000000000000000e+00
-8.349999999999999784e-03 0.000000000000000000e+00
-8.200001000000000165e-03 0.000000000000000000e+00
-8.050002000000000546e-03 0.000000000000000000e+00
-7.900000000000000772e-03 0.000000000000000000e+00
-7.750001000000000285e-03 0.000000000000000000e+00
-7.600001999999999799e-03 0.000000000000000000e+00
-7.449998999999999684e-03 0.000000000000000000e+00
-7.300001000000000406e-03 0.000000000000000000e+00
-7.150001999999999920e-03 0.000000000000000000e+00
-7.000003000000000301e-03 0.000000000000000000e+00
-6.850000000000000186e-03 0.000000000000000000e+00
-6.700002000000000041e-03 0.000000000000000000e+00
-6.550003000000000422e-03 0.000000000000000000e+00
-6.400000000000000307e-03 0.000000000000000000e+00
-6.250000999999999821e-03 0.000000000000000000e+00
-6.100002999999999675e-03 0.000000000000000000e+00
-5.950000000000000427e-03 0.000000000000000000e+00
-5.800000999999999941e-03 0.000000000000000000e+00
-5.650002999999999796e-03 0.000000000000000000e+00
-5.499999999999999681e-03 0.000000000000000000e+00
-5.350001000000000062e-03 0.000000000000000000e+00
-5.200001999999999576e-03 0.000000000000000000e+00
-5.049999999999999802e-03 0.000000000000000000e+00
-4.900001000000000183e-03 0.000000000000000000e+00
-4.750001999999999697e-03 0.000000000000000000e+00
-4.599999999999999922e-03 0.000000000000000000e+00
-4.450001000000000304e-03 0.000000000000000000e+00
-4.300001999999999817e-03 0.000000000000000000e+00
-4.149998999999999702e-03 0.000000000000000000e+00
-4.000001000000000424e-03 0.000000000000000000e+00
-3.850001999999999938e-03 0.000000000000000000e+00
-3.699998999999999823e-03 0.000000000000000000e+00
-3.550000000000000204e-03 0.000000000000000000e+00
-3.400002000000000059e-03 0.000000000000000000e+00
-3.250003000000000006e-03 0.000000000000000000e+00
-3.099999999999999891e-03 0.000000000000000000e+00
-2.950002000000000180e-03 0.000000000000000000e+00
-2.800003000000000127e-03 0.000000000000000000e+00
-2.650000000000000012e-03 0.000000000000000000e+00
-2.500000999999999959e-03 0.000000000000000000e+00
-2.350002999999999814e-03 0.000000000000000000e+00
-2.200000000000000133e-03 0.000000000000000000e+00
-2.050001000000000080e-03 0.000000000000000000e+00
-1.900002000000000028e-03 0.000000000000000000e+00
-1.750000000000000036e-03 0.000000000000000000e+00
-1.600000999999999984e-03 0.000000000000000000e+00
-1.450001999999999932e-03 0.000000000000000000e+00
-1.299999999999999940e-03 0.000000000000000000e+00
-1.150001000000000105e-03 0.000000000000000000e+00
-1.000002000000000052e-03 0.000000000000000000e+00
-8.499994999999999990e-04 0.000000000000000000e+00
-7.000007000000000148e-04 0.000000000000000000e+00
-5.500019000000000305e-04 0.000000000000000000e+00
-3.999992999999999973e-04 0.000000000000000000e+00
-2.500005000000000131e-04 0.000000000000000000e+00
-1.000017000000000017e-04 0.000000000000000000e+00
5.000085000000000087e-05 0.000000000000000000e+00
1.999996999999999886e-04 0.000000000000000000e+00
3.499985000000000270e-04 -0.000000000000000000e+00
4.999972999999999571e-04 -0.000000000000000000e+00
6.499998000000000104e-04 0.000000000000000000e+00
7.999985999999999946e-04 -0.000000000000000000e+00
9.499975000000000129e-04 -0.000000000000000000e+00
1.100000000000000066e-03 7.006492321624085355e-45
1.249998999999999902e-03 -4.203895392974451213e-45
1.399997999999999954e-03 -1.639519203260035973e-43
1.549999999999999946e-03 9.416725680262770717e-43
1.699998999999999998e-03 2.312142466135948167e-43
1.849998000000000050e-03 -2.634861502469953538e-41
2.000000000000000042e-03 1.050749640489320832e-40
2.149999000000000094e-03 2.390643206107424419e-40
2.299998000000000146e-03 -3.461675240569382654e-39
2.449999999999999921e-03 6.997032155691428515e-39
2.599998999999999973e-03 5.402006140491555538e-38
2.749998000000000026e-03 -3.288456701654614760e-37
2.900001000000000141e-03 -1.204875319671847375e-37
3.049998999999999853e-03 7.011135753898573785e-36
3.199997999999999905e-03 -1.679328420041657008e-35
3.350001000000000020e-03 -8.891958140173075361e-35
3.500000000000000073e-03 5.165290695648581224e-34
3.649997999999999784e-03 4.038099519917993143e-34
3.800000999999999900e-03 -9.497979660964697786e-33
3.950000000000000386e-03 1.146706714575840466e-32
4.099999000000000005e-03 1.274853951221022017e-31
4.249997000000000150e-03 -3.720182892386320375e-31
4.400000000000000265e-03 -1.295609843052587280e-30
4.549998999999999884e-03 6.757475789317806229e-30
4.699998000000000370e-03 9.486750986277338049e-30
4.850000000000000144e-03 -9.456157137720916092e-29
4.999998999999999763e-03 -3.610137625160644976e-29
5.149998000000000249e-03 1.118492770777128622e-27
5.300000000000000024e-03 -2.158235373537981193e-28
5.449998999999999642e-03 -1.171653579475167846e-26
5.599998000000000128e-03 5.430316634083273486e-27
5.749999999999999903e-03 1.115703234586378706e-25
5.899999000000000389e-03 -5.127410378364333357e-26
6.049998000000000008e-03 -9.726607629720762300e-25
6.200001000000000123e-03 1.897390435950536935e-25
6.349999000000000268e-03 7.635902983248903469e-24
6.499997999999999887e-03 2.298661200077827384e-24
6.650001000000000002e-03 -5.150818055720110792e-23
6.799999999999999621e-03 -5.215051212699912723e-23
6.949997999999999766e-03 2.707044732501347612e-22
7.100000999999999882e-03 5.558039793245466775e-22
7.250000000000000368e-03 -8.430018049197485511e-22
7.399998999999999987e-03 -3.734111389327442430e-21
7.550000999999999761e-03 -1.025721327127443663e-21
7.700000000000000247e-03 1.411628951761490721e-20
7.849998999999999866e-03 2.565276426339031036e-20
7.999997999999999485e-03 -6.030930629168293150e-21
8.149999999999999259e-03 -9.156731053422894883e-20
8.299999000000000612e-03 -1.638620236543112656e-19
8.449998000000000231e-03 -1.124712438256493985e-19
8.600000000000000006e-03 1.518354379332496580e-19
8.749998999999999624e-03 7.079968626799958125e-19
8.899997999999999243e-03 1.662033532082637820e-18
9.050000000000000752e-03 3.119557824649809013e-18
9.199999000000000371e-03 5.165457134492020759e-18
9.349997999999999990e-03 7.903370781712420139e-18
9.500000999999999238e-03 1.145673189808708877e-17
9.649998999999999383e-03 1.593583467854231599e-17
9.799998000000000736e-03 2.146297281356039161e-17
9.950000999999999984e-03 2.818855172674122010e-17
1.009999999999999960e-02 3.625855887003306022e-17
1.025000000000000043e-02 4.582927347656555548e-17
1.039999999999999952e-02 5.708914052476808643e-17
1.055000000000000035e-02 7.022937439376086117e-17
1.069999999999999944e-02 8.545433501695878049e-17
1.085000000000000027e-02 1.030040900604594343e-16
1.099999999999999936e-02 1.231273561908452670e-16
1.115000000000000019e-02 1.460924178592692773e-16
1.129999999999999928e-02 1.722073965351850178e-16
1.145000000000000011e-02 2.017946676643615550e-16
1.159999999999999920e-02 2.352057234501298217e-16
1.175000000000000003e-02 2.728366709093394109e-16
1.190000000000000085e-02 3.151045943591742607e-16
1.204999999999999995e-02 3.624681092010133710e-16
1.220000000000000077e-02 4.154357528405645426e-16
1.234999999999999987e-02 4.745463441113999172e-16
1.250000000000000069e-02 5.403953207056596663e-16
1.264999999999999979e-02 6.136337068526475248e-16
1.280000000000000061e-02 6.949567048438224596e-16
1.294999999999999971e-02 7.851327323810217314e-16
1.310000000000000053e-02 8.849930993624162325e-16
1.324999999999999963e-02 9.954331196132537585e-16
1.340000000000000045e-02 1.117438051269868671e-15
1.354999999999999954e-02 1.252067267851480082e-15
1.370000000000000037e-02 1.400469875430156858e-15
1.384999999999999946e-02 1.563901388591966684e-15
1.400000000000000029e-02 1.743709966151583187e-15
1.414999999999999938e-02 1.941363304448361256e-15
1.430000000000000021e-02 2.158453401906665348e-15
1.444999999999999930e-02 2.396692641508488437e-15
1.460000000000000013e-02 2.657945766287210868e-15
1.474999999999999922e-02 2.944222361910193465e-15
1.490000000000000005e-02 3.257692526788301748e-15
1.504999999999999914e-02 3.600710377240192231e-15
1.519999999999999997e-02 3.975807059470497576e-15
1.535000000000000080e-02 4.385720607481217309e-15
1.549999999999999989e-02 4.833407166258268939e-15
1.565000000000000072e-02 5.322046073969171481e-15
1.580000000000000154e-02 5.855074590313882887e-15
1.594999999999999890e-02 6.436190437623641805e-15
1.609999999999999973e-02 7.069373400201122565e-15
1.625000000000000056e-02 7.758915817506536333e-15
1.640000000000000138e-02 8.509425972289420131e-15
1.654999999999999874e-02 9.325867477620684159e-15
1.669999999999999957e-02 1.021357155887034698e-14
1.685000000000000039e-02 1.117826415876184767e-14
1.700000000000000122e-02 1.222610235978877774e-14
1.714999999999999858e-02 1.336368624267614269e-14
1.729999999999999941e-02 1.459809954396183024e-14
1.745000000000000023e-02 1.593694353731450047e-14
1.760000000000000106e-02 1.738835820935726723e-14
1.774999999999999842e-02 1.896106799944684979e-14
1.789999999999999925e-02 2.066441568099146309e-14
1.805000000000000007e-02 2.250839793683460238e-14
1.820000000000000090e-02 2.450371448716598399e-14
1.835000000000000173e-02 2.666180027677354097e-14
1.849999999999999908e-02 2.899487968515204739e-14
1.864999999999999991e-02 3.151601565441405906e-14
1.880000000000000074e-02 3.423915204093727627e-14
1.895000000000000157e-02 3.717916951953906257e-14
1.909999999999999892e-02 4.035193809951917454e-14
1.924999999999999975e-02 4.377438149916375310e-14
1.940000000000000058e-02 4.746453474398573680e-14
1.955000000000000140e-02 5.144160854122885318e-14
1.969999999999999876e-02 5.572605704250339909e-14
1.984999999999999959e-02 6.033964560642202102e-14
2.000000000000000042e-02 6.530550839684012843e-14
2.015000000000000124e-02 7.064825341494135325e-14
2.029999999999999860e-02 7.639402348560975220e-14
2.044999999999999943e-02 8.257058773698811027e-14
2.060000000000000026e-02 8.920740936311372105e-14
2.075000000000000108e-02 9.633574726787205722e-14
2.089999999999999844e-02 1.039887644852140192e-13
2.104999999999999927e-02 1.122015756130009811e-13
2.120000000000000009e-02 1.210114229958578203e-13
2.135000000000000092e-02 1.304576835014364944e-13
2.149999999999999828e-02 1.405820718083233833e-13
2.164999999999999911e-02 1.514287013924114911e-13
2.179999999999999993e-02 1.630441929471176943e-13
2.195000000000000076e-02 1.754778099086543031e-13
2.210000000000000159e-02 1.887815668762463095e-13
2.224999999999999895e-02 2.030104057949844165e-13
2.239999999999999977e-02 2.182222230608793501e-13
2.255000000000000060e-02 2.344781270188778244e-13
2.270000000000000143e-02 2.518424921729711663e-13
2.284999999999999878e-02 2.703831082639940320e-13
2.299999999999999961e-02 2.901713700050045919e-13
2.315000000000000044e-02 3.112824126065560915e-13
2.330000000000000127e-02 3.337951659868054755e-13
2.344999999999999862e-02 3.577926800321651335e-13
2.359999999999999945e-02 3.833621788074115244e-13
2.375000000000000028e-02 4.105951960809567369e-13
2.390000000000000110e-02 4.395878192703372989e-13
2.404999999999999846e-02 4.704407978624314257e-13
2.419999999999999929e-02 5.032598144640021420e-13
2.435000000000000012e-02 5.381555119067515935e-13
2.450000000000000094e-02 5.752437371928098564e-13
2.464999999999999830e-02 6.146457583351694343e-13
2.479999999999999913e-02 6.564882643576852583e-13
2.494999999999999996e-02 7.009039616062695544e-13
2.510000000000000078e-02 7.480313026983487212e-13
2.525000000000000161e-02 7.980148117835150767e-13
2.539999999999999897e-02 8.510053013839613545e-13
2.554999999999999979e-02 9.071602518652410740e-13
2.570000000000000062e-02 9.666436488059426679e-13
2.585000000000000145e-02 1.029626254048232603e-12
2.599999999999999881e-02 1.096285930958507127e-12
2.614999999999999963e-02 1.166807861267826762e-12
2.630000000000000046e-02 1.241384274021373191e-12
2.645000000000000129e-02 1.320215204519969987e-12
2.659999999999999865e-02 1.403508494320082622e-12
2.674999999999999947e-02 1.491479465973166718e-12
2.690000000000000030e-02 1.584351790387406034e-12
2.705000000000000113e-02 1.682357161567060722e-12
2.719999999999999848e-02 1.785735838713553569e-12
2.734999999999999931e-02 1.894736537805252752e-12
2.750000000000000014e-02 2.009616431597471831e-12
2.765000000000000097e-02 2.130641583303338749e-12
2.779999999999999832e-02 2.258086729753361332e-12
2.794999999999999915e-02 2.392235715076296287e-12
2.809999999999999998e-02 2.533381490699149197e-12
2.825000000000000080e-02 2.681826549028043516e-12
2.840000000000000163e-02 2.837882056086482585e-12
2.854999999999999899e-02 3.001868718877087616e-12
2.869999999999999982e-02 3.174116568541163197e-12
2.885000000000000064e-02 3.354964743518262793e-12
2.900000000000000147e-02 3.544762356907926737e-12
2.914999999999999883e-02 3.743867629107944239e-12
2.929999999999999966e-02 3.952648538335656880e-12
2.945000000000000048e-02 4.171481302744917130e-12
2.960000000000000131e-02 4.400753633032605805e-12
2.974999999999999867e-02 4.640860178789507628e-12
2.989999999999999949e-02 4.892205997947263185e-12
3.005000000000000032e-02 5.155204822054892944e-12
3.020000000000000115e-02 5.430279489959666250e-12
3.034999999999999851e-02 5.717861080445363342e-12
3.049999999999999933e-02 6.018390213274882328e-12
3.065000000000000016e-02 6.332315314466763212e-12
3.080000000000000099e-02 6.660092616295187895e-12
3.094999999999999835e-02 7.002187024651718161e-12
3.109999999999999917e-02 7.359070818002688696e-12
3.125000000000000000e-02 7.731222780027469099e-12
3.139999999999999736e-02 8.119128633299332876e-12
3.155000000000000165e-02 8.523282774008933416e-12
3.169999999999999901e-02 8.944183067793876063e-12
3.185000000000000331e-02 9.382335186547408057e-12
3.200000000000000067e-02 9.838247404247990602e-12
3.214999999999999802e-02 1.031243666849146479e-11
3.230000000000000232e-02 1.080542079423540969e-11
3.244999999999999968e-02 1.131772366796957030e-11
3.259999999999999704e-02 1.184987004354542961e-11
3.275000000000000133e-02 1.240238814426142255e-11
3.289999999999999869e-02 1.297580966286293602e-11
3.305000000000000299e-02 1.357066542473361892e-11
3.320000000000000034e-02 1.418748798998059613e-11
3.334999999999999770e-02 1.482680991871099252e-11
3.350000000000000200e-02 1.548916030158498103e-11
3.364999999999999936e-02 1.617506996398621055e-11
3.379999999999999671e-02 1.688506799657485402e-11
3.395000000000000101e-02 1.761967308167022850e-11
3.409999999999999837e-02 1.837940390159165105e-11
3.425000000000000266e-02 1.916477393448801081e-11
3.440000000000000002e-02 1.997629318906124496e-11
3.454999999999999738e-02 2.081445953094895884e-11
3.470000000000000168e-02 2.167976909106528183e-11
3.484999999999999903e-02 2.257270065308958351e-11
3.500000000000000333e-02 2.349372779653080556e-11
3.515000000000000069e-02 2.444331195783355781e-11
3.529999999999999805e-02 2.542190243037811825e-11
3.545000000000000234e-02 2.642993462975695707e-11
3.559999999999999970e-02 2.746783356322168856e-11
3.574999999999999706e-02 2.853600515606569132e-11
3.590000000000000135e-02 2.963483625162410817e-11
3.604999999999999871e-02 3.076470328489122608e-11
3.620000000000000301e-02 3.192595146583876442e-11
3.635000000000000037e-02 3.311892080026801466e-11
3.649999999999999772e-02 3.434392006895770066e-11
3.665000000000000202e-02 3.560124070545178654e-11
3.679999999999999938e-02 3.689115332661252467e-11
3.694999999999999674e-02 3.821389385483264789e-11
3.710000000000000103e-02 3.956967739582317733e-11
3.724999999999999839e-02 4.095869823861342240e-11
3.740000000000000269e-02 4.238111944721012492e-11
3.755000000000000004e-02 4.383707286059745911e-11
3.769999999999999740e-02 4.532665562329007969e-11
3.785000000000000170e-02 4.684995100201483353e-11
3.799999999999999906e-02 4.840699716068819214e-11
3.815000000000000335e-02 4.999779756875710746e-11
3.830000000000000071e-02 5.162232794009291581e-11
3.844999999999999807e-02 5.328053276354438594e-11
3.860000000000000236e-02 5.497231142514991120e-11
3.874999999999999972e-02 5.669753208592531735e-11
3.889999999999999708e-02 5.845603168186386256e-11
3.905000000000000138e-02 6.024760551559538158e-11
3.919999999999999873e-02 6.207199337859847788e-11
3.935000000000000303e-02 6.392892465401089908e-11
3.950000000000000039e-02 6.581807321381916154e-11
3.964999999999999775e-02 6.773908517443416599e-11
3.980000000000000204e-02 6.969154420222167801e-11
3.994999999999999940e-02 7.167500620797184752e-11
4.009999999999999676e-02 7.368898546911140102e-11
4.025000000000000105e-02 7.573296156859754547e-11
4.039999999999999841e-02 7.780636551713016047e-11
4.055000000000000271e-02 7.990857975315179829e-11
4.070000000000000007e-02 8.203895895952939554e-11
4.084999999999999742e-02 8.419680924687256152e-11
4.100000000000000172e-02 8.638138815353357813e-11
4.114999999999999908e-02 8.859193240118301560e-11
4.130000000000000338e-02 9.082761626144630895e-11
4.145000000000000073e-02 9.308758625037327761e-11
4.159999999999999809e-02 9.537094031175641362e-11
4.175000000000000239e-02 9.767674863381259343e-11
4.189999999999999974e-02 1.000040258936074622e-10
4.204999999999999710e-02 1.023517590126310495e-10
4.220000000000000140e-02 1.047189071567977692e-10
4.234999999999999876e-02 1.071043670419769001e-10
4.250000000000000305e-02 1.095070215062499130e-10
4.265000000000000041e-02 1.119257048154409517e-10
4.279999999999999777e-02 1.143592373575863519e-10
4.295000000000000207e-02 1.168063840095712180e-10
4.309999999999999942e-02 1.192659027093867508e-10
4.324999999999999678e-02 1.217364820060851116e-10
4.340000000000000108e-02 1.242168173876123660e-10
4.354999999999999843e-02 1.267055627085511560e-10
4.370000000000000273e-02 1.292013857012719313e-10
4.385000000000000009e-02 1.317028569536304872e-10
4.399999999999999745e-02 1.342085748090582342e-10
4.415000000000000174e-02 1.367171098554109676e-10
4.429999999999999910e-02 1.392270049249688668e-10
4.445000000000000340e-02 1.417368028500121113e-10
4.460000000000000075e-02 1.442450048294574572e-10
4.474999999999999811e-02 1.467501259400094682e-10
4.490000000000000241e-02 1.492506535027970926e-10
4.504999999999999977e-02 1.517450887167370865e-10
4.519999999999999712e-02 1.542318772695949747e-10
4.535000000000000142e-02 1.567095203602875131e-10
4.549999999999999878e-02 1.591764775543680344e-10
4.565000000000000308e-02 1.616312084173898711e-10
4.580000000000000043e-02 1.640722002704819715e-10
4.594999999999999779e-02 1.664979265569854761e-10
4.610000000000000209e-02 1.689068607202415251e-10
4.624999999999999944e-02 1.712975039591668747e-10
4.639999999999999680e-02 1.736683297171026652e-10
4.655000000000000110e-02 1.760178808263290762e-10
4.669999999999999846e-02 1.783446723635506714e-10
4.685000000000000275e-02 1.806472471610476305e-10
4.700000000000000011e-02 1.829241619288879406e-10
4.714999999999999747e-02 1.851740288882908203e-10
4.730000000000000177e-02 1.873954325048998726e-10
4.744999999999999912e-02 1.895870127555099316e-10
4.760000000000000342e-02 1.917474373724914471e-10
4.775000000000000078e-02 1.938753879660026769e-10
4.789999999999999813e-02 1.959695739017774940e-10
4.805000000000000243e-02 1.980287600567010031e-10
4.819999999999999979e-02 2.000517390632339243e-10
4.834999999999999715e-02 2.020373451872004011e-10
4.850000000000000144e-02 2.039844265722123851e-10
4.864999999999999880e-02 2.058919007508208665e-10
4.880000000000000310e-02 2.077586991333646438e-10
4.895000000000000046e-02 2.095838225191215543e-10