-4.000000000000000083e-02 0.000000000000000000e+00
-3.984999999999999654e-02 0.000000000000000000e+00
-3.969999999999999918e-02 0.000000000000000000e+00
-3.955000000000000182e-02 0.000000000000000000e+00
-3.939999999999999752e-02 0.000000000000000000e+00
-3.925000000000000017e-02 0.000000000000000000e+00
-3.910000000000000281e-02 0.000000000000000000e+00
-3.894999999999999851e-02 -0.000000000000000000e+00
-3.880000000000000115e-02 4.764414778704378041e-44
-3.864999999999999686e-02 5.647232811229012796e-43
-3.849999999999999950e-02 7.516580376921426341e-39
-3.835000000000000214e-02 1.706060656776027648e-36
-3.819999999999999785e-02 -1.882892501850865444e-34
-3.805000000000000049e-02 1.315126365639674510e-33
-3.790000000000000313e-02 5.374498410095155187e-31
-3.774999999999999883e-02 -3.712751172597596902e-29
-3.760000000000000148e-02 1.450088603394034323e-27
-3.744999999999999718e-02 -4.008772026542708503e-26
-3.729999999999999982e-02 7.998473710480248368e-25
-3.715000000000000246e-02 -1.002042124045304381e-23
-3.699999999999999817e-02 1.786191241965521605e-23
-3.685000000000000081e-02 2.225146341974796669e-21
-3.670000000000000345e-02 -4.798868936680783344e-20
-3.654999999999999916e-02 4.402855959927079922e-19
-3.640000000000000180e-02 -4.856149384642490551e-19
-3.624999999999999750e-02 -2.551501465146367893e-17
-3.610000000000000014e-02 1.531038257243953543e-16
-3.595000000000000279e-02 4.738615709131040188e-16
-3.579999999999999849e-02 -4.398184697300064339e-15
-3.565000000000000113e-02 -1.164223577298281048e-14
-3.549999999999999684e-02 4.033461796981371861e-14
-3.534999999999999948e-02 2.364759863621168634e-13
-3.520000000000000212e-02 5.555261112233367271e-13
-3.504999999999999782e-02 9.455982004358265414e-13
-3.490000000000000047e-02 1.445722556427109229e-12
-3.475000000000000311e-02 2.056187902235717679e-12
-3.459999999999999881e-02 2.757621821863898148e-12
-3.445000000000000145e-02 3.590919011794979632e-12
-3.429999999999999716e-02 4.544533152572860502e-12
-3.414999999999999980e-02 5.629544139879039122e-12
-3.400000000000000244e-02 6.873735521745194532e-12
-3.384999999999999815e-02 8.269035629837606649e-12
-3.370000000000000079e-02 9.844917416013121425e-12
-3.355000000000000343e-02 1.161672234101240875e-11
-3.339999999999999913e-02 1.358715483873451646e-11
-3.325000000000000178e-02 1.580209400831034117e-11
-3.309999999999999748e-02 1.825184794967960045e-11
-3.295000000000000012e-02 2.098689277918452945e-11
-3.280000000000000276e-02 2.401408759344914046e-11
-3.264999999999999847e-02 2.736787879653590494e-11
-3.250000000000000111e-02 3.108119317474233867e-11
-3.234999999999999681e-02 3.517732286018038224e-11
-3.219999999999999946e-02 3.970202985814630381e-11
-3.205000000000000210e-02 4.468682021641079416e-11
-3.189999999999999780e-02 5.017375404037238695e-11
-3.175000000000000044e-02 5.621538998190622749e-11
-3.160000000000000309e-02 6.284719272775518562e-11
-3.144999999999999879e-02 7.013989389292873966e-11
-3.130000000000000143e-02 7.813363150921404099e-11
-3.115000000000000061e-02 8.690534403221761295e-11
-3.099999999999999978e-02 9.651401206012266698e-11
-3.084999999999999895e-02 1.070345687081974972e-10
-3.070000000000000159e-02 1.185508913259525343e-10
-3.055000000000000077e-02 1.311396408132381453e-10
-3.039999999999999994e-02 1.449046160839628783e-10
-3.024999999999999911e-02 1.599367721594191494e-10
-3.009999999999999828e-02 1.763492685213918776e-10
-2.995000000000000093e-02 1.942576932645323495e-10
-2.980000000000000010e-02 2.137807569857486101e-10
-2.964999999999999927e-02 2.350604433321024089e-10
-2.949999999999999845e-02 2.582329905465030606e-10
-2.935000000000000109e-02 2.834618928471144272e-10
-2.920000000000000026e-02 3.109174029347627766e-10
-2.904999999999999943e-02 3.407772120045393649e-10
-2.889999999999999861e-02 3.732463227379412274e-10
-2.875000000000000125e-02 4.085174143408920600e-10
-2.860000000000000042e-02 4.468204695129429638e-10
-2.844999999999999959e-02 4.883829451962640178e-10
-2.829999999999999877e-02 5.334614971985729426e-10
-2.815000000000000141e-02 5.823418414152570222e-10
-2.800000000000000058e-02 6.353182424589931543e-10
-2.784999999999999976e-02 6.927313722648875682e-10
-2.769999999999999893e-02 7.549185720989726178e-10
-2.755000000000000157e-02 8.222574288119233188e-10
-2.740000000000000074e-02 8.951351326835776945e-10
-2.724999999999999992e-02 9.739665740582381659e-10
-2.709999999999999909e-02 1.059198950770223746e-09
-2.695000000000000173e-02 1.151297168711096219e-09
-2.680000000000000090e-02 1.250772596605997933e-09
-2.665000000000000008e-02 1.358155032882280011e-09
-2.649999999999999925e-02 1.474027233605568199e-09
-2.634999999999999842e-02 1.599000154506313720e-09
-2.620000000000000107e-02 1.733735044417983318e-09
-2.605000000000000024e-02 1.878935451671281953e-09
-2.589999999999999941e-02 2.035345003648103557e-09
-2.574999999999999858e-02 2.203765170349925029e-09
-2.560000000000000123e-02 2.385026176554561061e-09
-2.545000000000000040e-02 2.580025304510513706e-09
-2.529999999999999957e-02 2.789701136762801070e-09
-2.514999999999999875e-02 3.015059091282523696e-09
-2.500000000000000139e-02 3.257169867154630083e-09
-2.485000000000000056e-02 3.517155677812411341e-09
-2.469999999999999973e-02 3.796218006613116813e-09
-2.454999999999999891e-02 4.095614070109832028e-09
-2.440000000000000155e-02 4.416694121545106100e-09
-2.425000000000000072e-02 4.760883687282557730e-09
-2.409999999999999989e-02 5.129686897475949081e-09
-2.394999999999999907e-02 5.524692259228913827e-09
-2.380000000000000171e-02 5.947564662989179851e-09
-2.365000000000000088e-02 6.400074692436419355e-09
-2.350000000000000006e-02 6.884086634073582900e-09
-2.334999999999999923e-02 7.401570911724775215e-09
-2.319999999999999840e-02 7.954599645643156691e-09
-2.305000000000000104e-02 8.545357310651979788e-09
-2.290000000000000022e-02 9.176150506107205729e-09
-2.274999999999999939e-02 9.849400406380937056e-09
-2.259999999999999856e-02 1.056764808993193583e-08
-2.245000000000000120e-02 1.133354121662932812e-08
-2.230000000000000038e-02 1.214986511399729352e-08
-2.214999999999999955e-02 1.301954455357190454e-08
-2.199999999999999872e-02 1.394564108636586752e-08
-2.185000000000000137e-02 1.493136281283113931e-08
-2.170000000000000054e-02 1.598005106018263177e-08
-2.154999999999999971e-02 1.709521058046448161e-08
-2.139999999999999888e-02 1.828051310326372914e-08
-2.125000000000000153e-02 1.953979911206715769e-08
-2.110000000000000070e-02 2.087707073883393605e-08
-2.094999999999999987e-02 2.229650242213665479e-08
-2.079999999999999905e-02 2.380246399980023853e-08
-2.065000000000000169e-02 2.539951715618826711e-08
-2.050000000000000086e-02 2.709242785670085141e-08
-2.035000000000000003e-02 2.888615568963359692e-08
-2.019999999999999921e-02 3.078585564253444318e-08
-2.004999999999999838e-02 3.279688343127418193e-08
-1.990000000000000102e-02 3.492480615818749357e-08
-1.975000000000000019e-02 3.717540764114346530e-08
-1.959999999999999937e-02 3.955466354454983957e-08
-1.944999999999999854e-02 4.206878045920348086e-08
-1.930000000000000118e-02 4.472418169143566047e-08
-1.915000000000000036e-02 4.752751436853941414e-08
-1.899999999999999953e-02 5.048566009691057843e-08
-1.884999999999999870e-02 5.360572785662043316e-08
-1.870000000000000134e-02 5.689507887041145295e-08
-1.855000000000000052e-02 6.036128752384684049e-08
-1.839999999999999969e-02 6.401218399787467206e-08
-1.824999999999999886e-02 6.785583650525950361e-08
-1.810000000000000150e-02 7.190055839600972831e-08
-1.795000000000000068e-02 7.615490460466389777e-08
-1.779999999999999985e-02 8.062764322858129162e-08
-1.764999999999999902e-02 8.532779816050606314e-08
-1.750000000000000167e-02 9.026459935057573603e-08
-1.735000000000000084e-02 9.544753964974006522e-08
-1.720000000000000001e-02 1.008863108609148185e-07
-1.704999999999999918e-02 1.065908534769732796e-07
-1.689999999999999836e-02 1.125713140481821029e-07
-1.675000000000000100e-02 1.188380664984833857e-07
-1.660000000000000017e-02 1.254016979146399535e-07
-1.644999999999999934e-02 1.322730156516627176e-07
-1.629999999999999852e-02 1.394629975948191714e-07
-1.615000000000000116e-02 1.469828276867701788e-07
-1.600000000000000033e-02 1.548438746112879016e-07
-1.584999999999999951e-02 1.630576491606916534e-07
-1.569999999999999868e-02 1.716358468684120453e-07
-1.554999999999999959e-02 1.805902769547174103e-07
-1.540000000000000049e-02 1.899328907484232332e-07
-1.524999999999999967e-02 1.996757390543280053e-07
-1.510000000000000057e-02 2.098310005749226548e-07
-1.494999999999999975e-02 2.204109250669716857e-07
-1.480000000000000066e-02 2.314278475523678935e-07
-1.464999999999999983e-02 2.428941456855682191e-07
-1.450000000000000074e-02 2.548222255427390337e-07
-1.434999999999999991e-02 2.672244932000467088e-07
-1.420000000000000082e-02 2.801133973662217613e-07
-1.404999999999999999e-02 2.935012446414475562e-07
-1.389999999999999916e-02 3.074003700476168888e-07
-1.375000000000000007e-02 3.218229949197848327e-07
-1.359999999999999924e-02 3.367811700627498794e-07
-1.345000000000000015e-02 3.522868894378916593e-07
-1.329999999999999932e-02 3.683519480546237901e-07
-1.315000000000000023e-02 3.849878851269750157e-07
-1.299999999999999940e-02 4.022060977604269283e-07
-1.285000000000000031e-02 4.200176988433668157e-07
-1.269999999999999948e-02 4.384334602036688011e-07
-1.255000000000000039e-02 4.574638694521127036e-07
-1.239999999999999956e-02 4.771190447172557469e-07
-1.225000000000000047e-02 4.974086778020136990e-07
-1.209999999999999964e-02 5.183420057619514409e-07
-1.195000000000000055e-02 5.399278961704112589e-07
-1.179999999999999973e-02 5.621745344797091093e-07
-1.165000000000000063e-02 5.850897082382289227e-07
-1.149999999999999981e-02 6.086804660299094394e-07
-1.135000000000000071e-02 6.329534016913385130e-07
-1.119999999999999989e-02 6.579143132512399461e-07
-1.105000000000000079e-02 6.835682029304734897e-07
-1.089999999999999997e-02 7.099195045157102868e-07
-1.074999999999999914e-02 7.369718559857574292e-07
-1.060000000000000005e-02 7.647278152944636531e-07
-1.044999999999999922e-02 7.931893151180702262e-07
-1.030000000000000013e-02 8.223571512644411996e-07
-1.014999999999999930e-02 8.522313237335765734e-07
-1.000000000000000021e-02 8.828107525005179923e-07
-9.850001000000000589e-03 9.140932775153487455e-07
-9.700001999999999236e-03 9.460756587031937670e-07
-9.550001000000000670e-03 9.787536328076384962e-07
-9.400000999999999843e-03 1.012121515486796852e-06
-9.250002000000000224e-03 1.046172769747499842e-06
-9.100000999999999923e-03 1.080899210137431510e-06
-8.950001000000000831e-03 1.116291628022736404e-06
-8.800001999999999477e-03 1.152339564214344136e-06
-8.650000999999999177e-03 1.189030967907456215e-06
-8.500001999999999558e-03 1.226352424055221491e-06
-8.349999999999999784e-03 1.264289267055573873e-06
-8.200001000000000165e-03 1.302825126003881451e-06
-8.050002000000000546e-03 1.341942379440297373e-06
-7.900000000000000772e-03 1.381621927976084407e-06
-7.750001000000000285e-03 1.421843080606777221e-06
-7.600001999999999799e-03 1.462583327338506933e-06
-7.449998999999999684e-03 1.503819021309027448e-06
-7.300001000000000406e-03 1.545524582979851402e-06
-7.150001999999999920e-03 1.587673068570438772e-06
-7.000003000000000301e-03 1.630235828997683711e-06
-6.850000000000000186e-03 1.673182509875914548e-06
-6.700002000000000041e-03 1.716481392577406950e-06
-6.550003000000000422e-03 1.760098712111357599e-06
-6.400000000000000307e-03 1.803999339244910516e-06
-6.250000999999999821e-03 1.848146439442643896e-06
-6.100002999999999675e-03 1.892501700240245555e-06
-5.950000000000000427e-03 1.937024990183999762e-06
-5.800000999999999941e-03 1.981675040951813571e-06
-5.650002999999999796e-03 2.026408083111164160e-06
-5.499999999999999681e-03 2.071179551421664655e-06
-5.350001000000000062e-03 2.115943061653524637e-06
-5.200001999999999576e-03 2.160650865334901027e-06
-5.049999999999999802e-03 2.205253622378222644e-06
-4.900001000000000183e-03 2.249700628453865647e-06
-4.750001999999999697e-03 2.293939587616478093e-06
-4.599999999999999922e-03 2.337916839678655379e-06
-4.450001000000000304e-03 2.381577814958291128e-06
-4.300001999999999817e-03 2.424866124783875421e-06
-4.149998999999999702e-03 2.467724470989196561e-06
-4.000001000000000424e-03 2.510094191165990196e-06
-3.850001999999999938e-03 2.551915713411290199e-06
-3.699998999999999823e-03 2.593128556327428669e-06
-3.550000000000000204e-03 2.633670874274685048e-06
-3.400002000000000059e-03 2.673480366865987889e-06
-3.250003000000000006e-03 2.712493369472213089e-06
-3.099999999999999891e-03 2.750645990090561099e-06
-2.950002000000000180e-03 2.787873199849855155e-06
-2.800003000000000127e-03 2.824109742505243048e-06
-2.650000000000000012e-03 2.859289679690846242e-06
-2.500000999999999959e-03 2.893346845667110756e-06
-2.350002999999999814e-03 2.926214392573456280e-06
-2.200000000000000133e-03 2.957825927296653390e-06
-2.050001000000000080e-03 2.988114147228770889e-06
-1.900002000000000028e-03 3.017012431882903911e-06
-1.750000000000000036e-03 3.044453706024796702e-06
-1.600000999999999984e-03 3.070371121793868951e-06
-1.450001999999999932e-03 3.094698513450566679e-06
-1.299999999999999940e-03 3.117369715255335905e-06
-1.150001000000000105e-03 3.138319243589648977e-06
-1.000002000000000052e-03 3.157481842208653688e-06
-8.499994999999999990e-04 3.174793846483225934e-06
-7.000007000000000148e-04 3.190191591784241609e-06
-5.500019000000000305e-04 3.203612777724629268e-06
-3.999992999999999973e-04 3.214996013412019238e-06
-2.500005000000000131e-04 3.224281499569769949e-06
-1.000017000000000017e-04 3.231409664294915274e-06
5.000085000000000087e-05 3.236323436794918962e-06
1.999996999999999886e-04 3.238966883145621978e-06
3.499985000000000270e-04 3.239285661038593389e-06
4.999972999999999571e-04 3.237226792407454923e-06
6.499998000000000104e-04 3.232739800296258181e-06
7.999985999999999946e-04 3.225775571991107427e-06
9.499975000000000129e-04 3.216287723262212239e-06
1.100000000000000066e-03 3.204231461495510302e-06
1.249998999999999902e-03 3.189564495187369175e-06
1.399997999999999954e-03 3.172246579197235405e-06
1.549999999999999946e-03 3.152240424242336303e-06
1.699998999999999998e-03 3.129511014776653610e-06
1.849998000000000050e-03 3.104026063738274388e-06
2.000000000000000042e-03 3.075756012549391016e-06
2.149999000000000094e-03 3.044674258489976637e-06
2.299998000000000146e-03 3.010756927324109711e-06
2.449999999999999921e-03 2.973983100673649460e-06
2.599998999999999973e-03 2.934335498139262199e-06
2.749998000000000026e-03 2.891799113058368675e-06
2.900001000000000141e-03 2.846362804120872170e-06
3.049998999999999853e-03 2.798018613248132169e-06
3.199997999999999905e-03 2.746761310845613480e-06
3.350001000000000020e-03 2.692589987418614328e-06
3.500000000000000073e-03 2.635506689330213703e-06
3.649997999999999784e-03 2.575517100922297686e-06
3.800000999999999900e-03 2.512630771889234893e-06
3.950000000000000386e-03 2.446859980409499258e-06
4.099999000000000005e-03 2.378221097387722693e-06
4.249997000000000150e-03 2.306734359081019647e-06
4.400000000000000265e-03 2.232423639725311659e-06
4.549998999999999884e-03 2.155316451535327360e-06
4.699998000000000370e-03 2.075443262583576143e-06
4.850000000000000144e-03 1.992839315789751709e-06
4.999998999999999763e-03 1.907543037305003963e-06
5.149998000000000249e-03 1.819596832319803070e-06
5.300000000000000024e-03 1.729046289256075397e-06
5.449998999999999642e-03 1.635941316635580733e-06
5.599998000000000128e-03 1.540335006211535074e-06
5.749999999999999903e-03 1.442284428776474670e-06
5.899999000000000389e-03 1.341849838354391977e-06
6.049998000000000008e-03 1.239095581695437431e-06
6.200001000000000123e-03 1.134088961407542229e-06
6.349999000000000268e-03 1.026901145451120101e-06
6.499997999999999887e-03 9.176067123917164281e-07
6.650001000000000002e-03 8.062834808697516564e-07
6.799999999999999621e-03 6.930125096005212981e-07
6.949997999999999766e-03 5.778782110610336531e-07
7.100000999999999882e-03 4.609680672729155049e-07
7.250000000000000368e-03 3.423726866458309814e-07
7.399998999999999987e-03 2.221856618689344032e-07
7.550000999999999761e-03 1.005034349077504885e-07
7.700000000000000247e-03 -2.257477937916974042e-08
7.849998999999999866e-03 -1.469470873871614458e-07
7.999997999999999485e-03 -2.725089132127322955e-07
8.149999999999999259e-03 -3.991534072156355251e-07
8.299999000000000612e-03 -5.267711458145640790e-07
8.449998000000000231e-03 -6.552505738000036217e-07
8.600000000000000006e-03 -7.844780611776513979e-07
8.749998999999999624e-03 -9.143379884335445240e-07
8.899997999999999243e-03 -1.044712917064316571e-06
9.050000000000000752e-03 -1.175483703264035285e-06
9.199999000000000371e-03 -1.306529725297878031e-06
9.349997999999999990e-03 -1.437728883502131794e-06
9.500000999999999238e-03 -1.568957827657868620e-06
9.649998999999999383e-03 -1.700092070677783340e-06
9.799998000000000736e-03 -1.831006215979869012e-06
9.950000999999999984e-03 -1.961574298547930084e-06
1.009999999999999960e-02 -2.091669330184231512e-06
1.025000000000000043e-02 -2.221164095317362808e-06
1.039999999999999952e-02 -2.349931264689075761e-06
1.055000000000000035e-02 -2.477843054293771274e-06
1.069999999999999944e-02 -2.604772134873201139e-06
1.085000000000000027e-02 -2.730591404542792588e-06
1.099999999999999936e-02 -2.855173761417972855e-06
1.115000000000000019e-02 -2.978393013108870946e-06
1.129999999999999928e-02 -3.100123876720317639e-06
1.145000000000000011e-02 -3.220241296730819158e-06
1.159999999999999920e-02 -3.338622491355636157e-06
1.175000000000000003e-02 -3.455145360931055620e-06
1.190000000000000085e-02 -3.569689397409092635e-06
1.204999999999999995e-02 -3.682135456983814947e-06
1.220000000000000077e-02 -3.792366669586044736e-06
1.234999999999999987e-02 -3.900268438883358613e-06
1.250000000000000069e-02 -4.005727078038034961e-06
1.264999999999999979e-02 -4.108633675059536472e-06
1.280000000000000061e-02 -4.208879545331001282e-06
1.294999999999999971e-02 -4.306359642214374617e-06
1.310000000000000053e-02 -4.400971647555707023e-06
1.324999999999999963e-02 -4.492616881179856136e-06
1.340000000000000045e-02 -4.581199391395784914e-06
1.354999999999999954e-02 -4.666626864491263404e-06
1.370000000000000037e-02 -4.748809715238166973e-06
1.384999999999999946e-02 -4.827662905881879851e-06
1.400000000000000029e-02 -4.903105491393944249e-06
1.414999999999999938e-02 -4.975058800482656807e-06
1.430000000000000021e-02 -5.043450073571875691e-06
1.444999999999999930e-02 -5.108209734316915274e-06
1.460000000000000013e-02 -5.169273663341300562e-06
1.474999999999999922e-02 -5.226580924500012770e-06
1.490000000000000005e-02 -5.280075129121541977e-06
1.504999999999999914e-02 -5.329704436007887125e-06
1.519999999999999997e-02 -5.375423825171310455e-06
1.535000000000000080e-02 -5.417190095613477752e-06
1.549999999999999989e-02 -5.454967777041019872e-06
1.565000000000000072e-02 -5.488723672897322103e-06
1.580000000000000154e-02 -5.518431862583383918e-06
1.594999999999999890e-02 -5.544069608731660992e-06
1.609999999999999973e-02 -5.565620995184872299e-06
1.625000000000000056e-02 -5.583074198511894792e-06
1.640000000000000138e-02 -5.596422852249816060e-06
1.654999999999999874e-02 -5.605665592156583443e-06
1.669999999999999957e-02 -5.610806510958354920e-06
1.685000000000000039e-02 -5.611854703602148220e-06
1.700000000000000122e-02 -5.608825176750542596e-06
1.714999999999999858e-02 -5.601736120297573507e-06
1.729999999999999941e-02 -5.590613454842241481e-06
1.745000000000000023e-02 -5.575486738962354138e-06
1.760000000000000106e-02 -5.556390078709227964e-06
1.774999999999999842e-02 -5.533363491849740967e-06
1.789999999999999925e-02 -5.506451088876929134e-06
1.805000000000000007e-02 -5.475702891999389976e-06
1.820000000000000090e-02 -5.441173016151878983e-06
1.835000000000000173e-02 -5.402920578490011394e-06
1.849999999999999908e-02 -5.361008334148209542e-06
1.864999999999999991e-02 -5.315505404723808169e-06
1.880000000000000074e-02 -5.266482730803545564e-06
1.895000000000000157e-02 -5.214016709942370653e-06
1.909999999999999892e-02 -5.158187377674039453e-06
1.924999999999999975e-02 -5.099079317005816847e-06
1.940000000000000058e-02 -5.036780748923774809e-06
1.955000000000000140e-02 -4.971383077645441517e-06
1.969999999999999876e-02 -4.902980890619801357e-06
1.984999999999999959e-02 -4.831672868021996692e-06
2.000000000000000042e-02 -4.757560418511275202e-06
2.015000000000000124e-02 -4.680747679230989888e-06
2.029999999999999860e-02 -4.601341970555949956e-06
2.044999999999999943e-02 -4.519451977103017271e-06
2.060000000000000026e-02 -4.435189566720509902e-06
2.075000000000000108e-02 -4.348669335740851238e-06
2.089999999999999844e-02 -4.260006335243815556e-06
2.104999999999999927e-02 -4.169318799540633336e-06
2.120000000000000009e-02 -4.076725417689885944e-06
2.135000000000000092e-02 -3.982346697739558294e-06
2.149999999999999828e-02 -3.886304511979687959e-06
2.164999999999999911e-02 -3.788720960073987953e-06
2.179999999999999993e-02 -3.689719278554548509e-06
2.195000000000000076e-02 -3.589423158700810745e-06
2.210000000000000159e-02 -3.487956519165891223e-06
2.224999999999999895e-02 -3.385443051229231060e-06
2.239999999999999977e-02 -3.282006900917622261e-06
2.255000000000000060e-02 -3.177771532136830501e-06
2.270000000000000143e-02 -3.072859954045270570e-06
2.284999999999999878e-02 -2.967394266306655481e-06
2.299999999999999961e-02 -2.861496113837347366e-06
2.315000000000000044e-02 -2.755285322564304806e-06
2.330000000000000127e-02 -2.648881036293460056e-06
2.344999999999999862e-02 -2.542400807215017267e-06
2.359999999999999945e-02 -2.435960141156101599e-06
2.375000000000000028e-02 -2.329673407075461000e-06
2.390000000000000110e-02 -2.223652700195088983e-06
2.404999999999999846e-02 -2.118007614626549184e-06
2.419999999999999929e-02 -2.012845925492001697e-06
2.435000000000000012e-02 -1.908272906803176738e-06
2.450000000000000094e-02 -1.804391217774536926e-06
2.464999999999999830e-02 -1.701300789136439562e-06
2.479999999999999913e-02 -1.599098823135136627e-06
2.494999999999999996e-02 -1.497879566159099340e-06
2.510000000000000078e-02 -1.397734422425855882e-06
2.525000000000000161e-02 -1.298751271860965062e-06
2.539999999999999897e-02 -1.201015152219042648e-06
2.554999999999999979e-02 -1.104607690649572760e-06
2.570000000000000062e-02 -1.009607103696907870e-06
2.585000000000000145e-02 -9.160882541436876636e-07
2.599999999999999881e-02 -8.241224236371635925e-07
2.614999999999999963e-02 -7.337774832194554619e-07
2.630000000000000046e-02 -6.451175522670382634e-07
2.645000000000000129e-02 -5.582034532380930614e-07
2.659999999999999865e-02 -4.730920011297712335e-07
2.674999999999999947e-02 -3.898368277077679522e-07
2.690000000000000030e-02 -3.084873299030732596e-07
2.705000000000000113e-02 -2.290897356260757078e-07
2.719999999999999848e-02 -1.516863932238265988e-07
2.734999999999999931e-02 -7.631605569713428849e-08
2.750000000000000014e-02 -3.013904459336913533e-09
2.765000000000000097e-02 6.818851971956974012e-08
2.779999999999999832e-02 1.372631288631964708e-07
2.794999999999999915e-02 2.041855537981973612e-07
2.809999999999999998e-02 2.689344853479269659e-07
2.825000000000000080e-02 3.314924583719403017e-07
2.840000000000000163e-02 3.918451625395391602e-07
2.854999999999999899e-02 4.499815418057551142e-07
2.869999999999999982e-02 5.058937517787853722e-07
2.885000000000000064e-02 5.595771881417022087e-07
2.900000000000000147e-02 6.110303161221963819e-07
2.914999999999999883e-02 6.602543862754828297e-07
2.929999999999999966e-02 7.072537755448138341e-07
2.945000000000000048e-02 7.520355893575469963e-07
2.960000000000000131e-02 7.946096047817263752e-07
2.974999999999999867e-02 8.349882705260824878e-07
2.989999999999999949e-02 8.731864227229380049e-07
3.005000000000000032e-02 9.092214554584643338e-07
3.020000000000000115e-02 9.431131502424250357e-07
3.034999999999999851e-02 9.748835054779192433e-07
3.049999999999999933e-02 1.004556452244287357e-06
3.065000000000000016e-02 1.032157911140529905e-06
3.080000000000000099e-02 1.057715962815564126e-06
3.094999999999999835e-02 1.081260279534035362e-06
3.109999999999999917e-02 1.102822466236830223e-06
3.125000000000000000e-02 1.122435605793725699e-06
3.139999999999999736e-02 1.140134259003389161e-06
3.155000000000000165e-02 1.155954350906540640e-06
3.169999999999999901e-02 1.169933057099115103e-06
3.185000000000000331e-02 1.182108917419100180e-06
3.200000000000000067e-02 1.192521381199185271e-06
3.214999999999999802e-02 1.201211034640436992e-06
3.230000000000000232e-02 1.208219373438623734e-06
3.244999999999999968e-02 1.213588461723702494e-06
3.259999999999999704e-02 1.217361273120332044e-06
3.275000000000000133e-02 1.219581577061035205e-06
3.289999999999999869e-02 1.220293370352010243e-06
3.305000000000000299e-02 1.219541559294157196e-06
3.320000000000000034e-02 1.217371050188376103e-06
3.334999999999999770e-02 1.213827204082917888e-06
3.350000000000000200e-02 1.208955495712871198e-06
3.364999999999999936e-02 1.202801740873837844e-06
3.379999999999999671e-02 1.195411755361419637e-06
3.395000000000000101e-02 1.186831696031731553e-06
3.409999999999999837e-02 1.177107264993537683e-06
3.425000000000000266e-02 1.166284278042439837e-06
3.440000000000000002e-02 1.154408778347715270e-06
3.454999999999999738e-02 1.141526126957614906e-06
3.470000000000000168e-02 1.127681684920389671e-06
3.484999999999999903e-02 1.112920472223777324e-06
3.500000000000000333e-02 1.097287281481840182e-06
3.515000000000000069e-02 1.080826564248127397e-06
3.529999999999999805e-02 1.063582431015674956e-06
3.545000000000000234e-02 1.045598537530167960e-06
3.559999999999999970e-02 1.026918312163616065e-06
3.574999999999999706e-02 1.007584501167002600e-06
3.590000000000000135e-02 9.876391686702845618e-07
3.604999999999999871e-02 9.671243788034189492e-07
3.620000000000000301e-02 9.460814567319175694e-07
3.635000000000000037e-02 9.245509886568470392e-07
3.649999999999999772e-02 9.025732765621796716e-07
3.665000000000000202e-02 8.801878834674425889e-07
3.679999999999999938e-02 8.574340881750686094e-07
3.694999999999999674e-02 8.343502599927887786e-07
3.710000000000000103e-02 8.109743134809832554e-07
3.724999999999999839e-02 7.873437652961001731e-07
3.740000000000000269e-02 7.634952225998858921e-07
3.755000000000000004e-02 7.394648378067358863e-07
3.769999999999999740e-02 7.152883085836947430e-07
3.785000000000000170e-02 6.910004799465241376e-07
3.799999999999999906e-02 6.666358558504725806e-07
3.815000000000000335e-02 6.422280875995056704e-07
3.830000000000000071e-02 6.178103717502381187e-07
3.844999999999999807e-02 5.934154501119337510e-07
3.860000000000000236e-02 5.690750981557357591e-07
3.874999999999999972e-02 5.448209208225307520e-07
3.889999999999999708e-02 5.206836704019224271e-07
3.905000000000000138e-02 4.966935875927447341e-07
3.919999999999999873e-02 4.728804299247713061e-07
3.935000000000000303e-02 4.492731875416211551e-07
3.950000000000000039e-02 4.259003105744341156e-07
3.964999999999999775e-02 4.027897091418708442e-07
3.980000000000000204e-02 3.799688101935316809e-07
3.994999999999999940e-02 3.574642448711529141e-07
4.009999999999999676e-02 3.353022179908293765e-07
4.025000000000000105e-02 3.135082238259201404e-07
4.039999999999999841e-02 2.921074155892711133e-07
4.055000000000000271e-02 2.711240369990264298e-07
4.070000000000000007e-02 2.505818201825604774e-07
4.084999999999999742e-02 2.305041562067344785e-07
4.100000000000000172e-02 2.109133845351607306e-07
4.114999999999999908e-02 1.918315746252119425e-07
4.130000000000000338e-02 1.732800143372514867e-07
4.145000000000000073e-02 1.552793662540352670e-07
4.159999999999999809e-02 1.378495966264381423e-07
4.175000000000000239e-02 1.210101174820010783e-07
4.189999999999999974e-02 1.047796089892472082e-07
4.204999999999999710e-02 8.917606919567333534e-08
4.220000000000000140e-02 7.421676428975843010e-08
4.234999999999999876e-02 5.991835649865606683e-08
4.250000000000000305e-02 4.629661276567276218e-08
4.265000000000000041e-02 3.336669962550331547e-08
4.279999999999999777e-02 2.114282970921976812e-08
4.295000000000000207e-02 9.638733367012264353e-09
4.309999999999999942e-02 -1.133040106182647833e-09
4.324999999999999678e-02 -1.116032954939782940e-08
4.340000000000000108e-02 -2.043210400870520971e-08
4.354999999999999843e-02 -2.893820116867118486e-08
4.370000000000000273e-02 -3.666898606979884789e-08
4.385000000000000009e-02 -4.361614003300928744e-08
4.399999999999999745e-02 -4.977202650024992181e-08
4.415000000000000174e-02 -5.512984202482584806e-08
4.429999999999999910e-02 -5.968392002841937938e-08
4.445000000000000340e-02 -6.342939684600423789e-08
4.460000000000000075e-02 -6.636247462665778585e-08
4.474999999999999811e-02 -6.848021882888133405e-08
4.490000000000000241e-02 -6.978083177955340943e-08
4.504999999999999977e-02 -7.026335424598073587e-08
4.519999999999999712e-02 -6.992794965299253818e-08
4.535000000000000142e-02 -6.877580460695753573e-08
4.549999999999999878e-02 -6.680917863377544563e-08
4.565000000000000308e-02 -6.403116259434682433e-08
4.580000000000000043e-02 -6.044621159162488766e-08
4.594999999999999779e-02 -5.605955166743115115e-08
4.610000000000000209e-02 -5.087771270950725011e-08
4.624999999999999944e-02 -4.490805949330933800e-08
4.639999999999999680e-02 -3.815902971382456599e-08
4.655000000000000110e-02 -3.064033293753709586e-08
4.669999999999999846e-02 -2.236247276243830129e-08
4.685000000000000275e-02 -1.333714294560195412e-08
4.700000000000000011e-02 -3.576953178097141972e-09
4.714999999999999747e-02 6.904250060557615143e-09
4.730000000000000177e-02 1.809188709955833474e-08
4.744999999999999912e-02 2.997025205786485458e-08
4.760000000000000342e-02 4.252260765724713565e-08
4.775000000000000078e-02 5.573141592662977928e-08
4.789999999999999813e-02 6.957803577734011924e-08
4.805000000000000243e-02 8.404309426168765640e-08
4.819999999999999979e-02 9.910615261787825148e-08
4.834999999999999715e-02 1.147460153561041807e-07
4.850000000000000144e-02 1.309406769678389537e-07