-4.000000000000000083e-02 0.000000000000000000e+00
-3.984999999999999654e-02 0.000000000000000000e+00
-3.969999999999999918e-02 0.000000000000000000e+00
-3.955000000000000182e-02 0.000000000000000000e+00
-3.939999999999999752e-02 0.000000000000000000e+00
-3.925000000000000017e-02 0.000000000000000000e+00
-3.910000000000000281e-02 0.000000000000000000e+00
-3.894999999999999851e-02 0.000000000000000000e+00
-3.880000000000000115e-02 0.000000000000000000e+00
-3.864999999999999686e-02 0.000000000000000000e+00
-3.849999999999999950e-02 0.000000000000000000e+00
-3.835000000000000214e-02 0.000000000000000000e+00
-3.819999999999999785e-02 0.000000000000000000e+00
-3.805000000000000049e-02 0.000000000000000000e+00
-3.790000000000000313e-02 0.000000000000000000e+00
-3.774999999999999883e-02 0.000000000000000000e+00
-3.760000000000000148e-02 0.000000000000000000e+00
-3.744999999999999718e-02 0.000000000000000000e+00
-3.729999999999999982e-02 0.000000000000000000e+00
-3.715000000000000246e-02 0.000000000000000000e+00
-3.699999999999999817e-02 0.000000000000000000e+00
-3.685000000000000081e-02 0.000000000000000000e+00
-3.670000000000000345e-02 0.000000000000000000e+00
-3.654999999999999916e-02 0.000000000000000000e+00
-3.640000000000000180e-02 0.000000000000000000e+00
-3.624999999999999750e-02 0.000000000000000000e+00
-3.610000000000000014e-02 0.000000000000000000e+00
-3.595000000000000279e-02 0.000000000000000000e+00
-3.579999999999999849e-02 0.000000000000000000e+00
-3.565000000000000113e-02 0.000000000000000000e+00
-3.549999999999999684e-02 0.000000000000000000e+00
-3.534999999999999948e-02 0.000000000000000000e+00
-3.520000000000000212e-02 0.000000000000000000e+00
-3.504999999999999782e-02 0.000000000000000000e+00
-3.490000000000000047e-02 0.000000000000000000e+00
-3.475000000000000311e-02 0.000000000000000000e+00
-3.459999999999999881e-02 0.000000000000000000e+00
-3.445000000000000145e-02 0.000000000000000000e+00
-3.429999999999999716e-02 -0.000000000000000000e+00
-3.414999999999999980e-02 0.000000000000000000e+00
-3.400000000000000244e-02 -1.401298464324817071e-45
-3.384999999999999815e-02 -4.203895392974451213e-44
-3.370000000000000079e-02 8.071479154510946329e-43
-3.355000000000000343e-02 -6.164311944564870295e-42
-3.339999999999999913e-02 -4.715089072760144480e-41
-3.325000000000000178e-02 1.623248726790760522e-39
-3.309999999999999748e-02 -1.344240953973824899e-38
-3.295000000000000012e-02 -5.577334362270333731e-38
-3.280000000000000276e-02 2.054795370829996693e-36
-3.264999999999999847e-02 -1.208329701994689025e-35
-3.250000000000000111e-02 -9.597003924967566352e-35
-3.234999999999999681e-02 1.647623391635405066e-33
-3.219999999999999946e-02 -2.475834834238540800e-33
-3.205000000000000210e-02 -1.004248333794496664e-31
-3.189999999999999780e-02 6.029466935254681946e-31
-3.175000000000000044e-02 3.446802967232532324e-30
-3.160000000000000309e-02 -4.288502211867638661e-29
-3.144999999999999879e-02 -4.906969474524527880e-29
-3.130000000000000143e-02 2.007848796792763614e-27
-3.115000000000000061e-02 -1.601510511929105871e-27
-3.099999999999999978e-02 -7.302751640186418374e-26
-3.084999999999999895e-02 1.278506745832177392e-25
-3.070000000000000159e-02 2.242807875835916696e-24
-3.055000000000000077e-02 -4.442297032783431970e-24
-3.039999999999999994e-02 -6.075079046713257064e-23
-3.024999999999999911e-02 9.363814917030688208e-23
-3.009999999999999828e-02 1.452773008326138516e-21
-2.995000000000000093e-02 -8.266178328723557633e-22
-2.980000000000000010e-02 -2.934570241461049906e-20
-2.964999999999999927e-02 -2.182014083298663079e-20
-2.949999999999999845e-02 4.561480250093311274e-19
-2.935000000000000109e-02 1.084977240719466621e-18
-2.920000000000000026e-02 -4.414196399330028793e-18
-2.904999999999999943e-02 -2.274276680496773476e-17
-2.889999999999999861e-02 2.779422190743769724e-18
-2.875000000000000125e-02 2.494257390384146175e-16
-2.860000000000000042e-02 5.833702784384354415e-16
-2.844999999999999959e-02 -6.804514773803293799e-16
-2.829999999999999877e-02 -6.446895663527515280e-15
-2.815000000000000141e-02 -1.349543459432502382e-14
-2.800000000000000058e-02 4.928193329429577350e-16
-2.784999999999999976e-02 7.655058227931665904e-14
-2.769999999999999893e-02 2.448159405234184849e-13
-2.755000000000000157e-02 4.951284608006867316e-13
-2.740000000000000074e-02 7.985589186437769271e-13
-2.724999999999999992e-02 1.156606169346041657e-12
-2.709999999999999909e-02 1.594937831979337250e-12
-2.695000000000000173e-02 2.114952961027039002e-12
-2.680000000000000090e-02 2.702906475027244682e-12
-2.665000000000000008e-02 3.373568351755507067e-12
-2.649999999999999925e-02 4.147470995113922143e-12
-2.634999999999999842e-02 5.018418406527169751e-12
-2.620000000000000107e-02 5.990861452753737382e-12
-2.605000000000000024e-02 7.090054671837764388e-12
-2.589999999999999941e-02 8.320300177999673252e-12
-2.574999999999999858e-02 9.683777217606159837e-12
-2.560000000000000123e-02 1.120668228354881890e-11
-2.545000000000000040e-02 1.290108037760306914e-11
-2.529999999999999957e-02 1.477172550945482499e-11
-2.514999999999999875e-02 1.684678438418352187e-11
-2.500000000000000139e-02 1.914379245404607133e-11
-2.485000000000000056e-02 2.167267407204853669e-11
-2.469999999999999973e-02 2.446567948233280276e-11
-2.454999999999999891e-02 2.754476334521083203e-11
-2.440000000000000155e-02 3.092709768837131890e-11
-2.425000000000000072e-02 3.465091755194826817e-11
-2.409999999999999989e-02 3.874257858971219548e-11
-2.394999999999999907e-02 4.322895166830598157e-11
-2.380000000000000171e-02 4.815552123726973832e-11
-2.365000000000000088e-02 5.355415069741020773e-11
-2.350000000000000006e-02 5.946430847725281410e-11
-2.334999999999999923e-02 6.593935120147165208e-11
-2.319999999999999840e-02 7.301922261282456361e-11
-2.305000000000000104e-02 8.075887181213659005e-11
-2.290000000000000022e-02 8.921993005506223540e-11
-2.274999999999999939e-02 9.845477211278819141e-11
-2.259999999999999856e-02 1.085359579988676160e-10
-2.245000000000000120e-02 1.195345489257704230e-10
-2.230000000000000038e-02 1.315211828334383881e-10
-2.214999999999999955e-02 1.445868841321029663e-10
-2.199999999999999872e-02 1.588154746601233569e-10
-2.185000000000000137e-02 1.743020727751343202e-10
-2.170000000000000054e-02 1.911560076894858184e-10
-2.154999999999999971e-02 2.094806411667704538e-10
-2.139999999999999888e-02 2.293999018521120092e-10
-2.125000000000000153e-02 2.510429086832743906e-10
-2.110000000000000070e-02 2.745414451332806038e-10
-2.094999999999999987e-02 3.000506509920342069e-10
-2.079999999999999905e-02 3.277240145926896275e-10
-2.065000000000000169e-02 3.577313723024388992e-10
-2.050000000000000086e-02 3.902597689453557450e-10
-2.035000000000000003e-02 4.254969154793286634e-10
-2.019999999999999921e-02 4.636576123040470065e-10
-2.004999999999999838e-02 5.049630158460161056e-10
-1.990000000000000102e-02 5.496499366763885064e-10
-1.975000000000000019e-02 5.979781669829264956e-10
-1.959999999999999937e-02 6.502166027821942862e-10
-1.944999999999999854e-02 7.066568441516096755e-10
-1.930000000000000118e-02 7.676138613632588203e-10
-1.915000000000000036e-02 8.334115064734248790e-10
-1.899999999999999953e-02 9.044114901435307274e-10
-1.884999999999999870e-02 9.809845158414987054e-10
-1.870000000000000134e-02 1.063532595324545582e-09
-1.855000000000000052e-02 1.152486772681982075e-09
-1.839999999999999969e-02 1.248293024502800108e-09
-1.824999999999999886e-02 1.351442957542303702e-09
-1.810000000000000150e-02 1.462442389410512078e-09
-1.795000000000000068e-02 1.581839992326194988e-09
-1.779999999999999985e-02 1.710213304306762439e-09
-1.764999999999999902e-02 1.848174502327992741e-09
-1.750000000000000167e-02 1.996375509349945787e-09
-1.735000000000000084e-02 2.155505773870913799e-09
-1.720000000000000001e-02 2.326292714016631180e-09
-1.704999999999999918e-02 2.509514152038150314e-09
-1.689999999999999836e-02 2.705982327100286966e-09
-1.675000000000000100e-02 2.916566099742112783e-09
-1.660000000000000017e-02 3.142176741022240094e-09
-1.644999999999999934e-02 3.383779034749068160e-09
-1.629999999999999852e-02 3.642393942016042274e-09
-1.615000000000000116e-02 3.919093050086530639e-09
-1.600000000000000033e-02 4.215010562802490313e-09
-1.584999999999999951e-02 4.531341968316837665e-09
-1.569999999999999868e-02 4.869340486379769573e-09
-1.554999999999999959e-02 5.230334831907157422e-09
-1.540000000000000049e-02 5.615711451412153110e-09
-1.524999999999999967e-02 6.026936727465681543e-09
-1.510000000000000057e-02 6.465547652823033786e-09
-1.494999999999999975e-02 6.933155827226755719e-09
-1.480000000000000066e-02 7.431459891904523829e-09
-1.464999999999999983e-02 7.962229098268380767e-09
-1.450000000000000074e-02 8.527331729624165746e-09
-1.434999999999999991e-02 9.128714673067861440e-09
-1.420000000000000082e-02 9.768418074429519038e-09
-1.404999999999999999e-02 1.044857889098693704e-08
-1.389999999999999916e-02 1.117142645057356276e-08
-1.375000000000000007e-02 1.193929488607636813e-08
-1.359999999999999924e-02 1.275461869454375119e-08
-1.345000000000000015e-02 1.361993362536395580e-08
-1.329999999999999932e-02 1.453789533201188533e-08
-1.315000000000000023e-02 1.551125627941019047e-08
-1.299999999999999940e-02 1.654289505381711933e-08
-1.285000000000000031e-02 1.763580037561496283e-08
-1.269999999999999948e-02 1.879308442198635021e-08
-1.255000000000000039e-02 2.001797660966531112e-08
-1.239999999999999956e-02 2.131382714765095443e-08
-1.225000000000000047e-02 2.268412657713270164e-08
-1.209999999999999964e-02 2.413248090249453526e-08
-1.195000000000000055e-02 2.566263113124023221e-08
-1.179999999999999973e-02 2.727845327399336384e-08
-1.165000000000000063e-02 2.898395301542677771e-08
-1.149999999999999981e-02 3.078327637240363401e-08
-1.135000000000000071e-02 3.268070258855004795e-08
-1.119999999999999989e-02 3.468064946332560794e-08
-1.105000000000000079e-02 3.678767157566653623e-08
-1.089999999999999997e-02 3.900647271848356468e-08
-1.074999999999999914e-02 4.134188813509354077e-08
-1.060000000000000005e-02 4.379889517736046400e-08
-1.044999999999999922e-02 4.638261330569548591e-08
-1.030000000000000013e-02 4.909828987820219481e-08
-1.014999999999999930e-02 5.195132501967236749e-08
-1.000000000000000021e-02 5.494725030530389631e-08
-9.850001000000000589e-03 5.809172520798711048e-08
-9.700001999999999236e-03 6.139055841458684881e-08
-9.550001000000000670e-03 6.484966519337831414e-08
-9.400000999999999843e-03 6.847511713203857653e-08
-9.250002000000000224e-03 7.227308884694139124e-08
-9.100000999999999923e-03 7.624988285215295036e-08
-8.950001000000000831e-03 8.041192245400452521e-08
-8.800001999999999477e-03 8.476572332938303589e-08
-8.650000999999999177e-03 8.931792905286783935e-08
-8.500001999999999558e-03 9.407527556959394133e-08
-8.349999999999999784e-03 9.904458408982463880e-08
-8.200001000000000165e-03 1.042327752998062351e-07
-8.050002000000000546e-03 1.096468338346312521e-07
-7.900000000000000772e-03 1.152938224890931451e-07
-7.750001000000000285e-03 1.211808609014042304e-07
-7.600001999999999799e-03 1.273151326586230425e-07
-7.449998999999999684e-03 1.337038497695175465e-07
-7.300001000000000406e-03 1.403542455591377802e-07
-7.150001999999999920e-03 1.472736101959526422e-07
-7.000003000000000301e-03 1.544692338484310312e-07
-6.850000000000000186e-03 1.619483640524777002e-07
-6.700002000000000041e-03 1.697182483439974021e-07
-6.550003000000000422e-03 1.777861200480401749e-07
-6.400000000000000307e-03 1.861591556462371955e-07
-6.250000999999999821e-03 1.948444321442366345e-07
-6.100002999999999675e-03 2.038490265476866625e-07
-5.950000000000000427e-03 2.131798595428335830e-07
-5.800000999999999941e-03 2.228437523399406928e-07
-5.650002999999999796e-03 2.328474266732882825e-07
-5.499999999999999681e-03 2.431974053251906298e-07
-5.350001000000000062e-03 2.539001116019790061e-07
-5.200001999999999576e-03 2.649616988037450938e-07
-5.049999999999999802e-03 2.763882207545975689e-07
-4.900001000000000183e-03 2.881853902181319427e-07
-4.750001999999999697e-03 3.003587494276871439e-07
-4.599999999999999922e-03 3.129135563995077973e-07
-4.450001000000000304e-03 3.258547565110347932e-07
-4.300001999999999817e-03 3.391870677660335787e-07
-4.149998999999999702e-03 3.529148102643375751e-07
-4.000001000000000424e-03 3.670419346235576086e-07
-3.850001999999999938e-03 3.815719935573724797e-07
-3.699998999999999823e-03 3.965082555623666849e-07
-3.550000000000000204e-03 4.118534775443549734e-07
-3.400002000000000059e-03 4.276099616618012078e-07
-3.250003000000000006e-03 4.437795837475277949e-07
-3.099999999999999891e-03 4.603636796218779637e-07
-2.950002000000000180e-03 4.773631303578440566e-07
-2.800003000000000127e-03 4.947783054376486689e-07
-2.650000000000000012e-03 5.126088922224880662e-07
-2.500000999999999959e-03 5.308540949044981971e-07
-2.350002999999999814e-03 5.495125492416264024e-07
-2.200000000000000133e-03 5.685821520273748320e-07
-2.050001000000000080e-03 5.880602884644758888e-07
-1.900002000000000028e-03 6.079435479477979243e-07
-1.750000000000000036e-03 6.282279514380206820e-07
-1.600000999999999984e-03 6.489087809313787147e-07
-1.450001999999999932e-03 6.699805226162425242e-07
-1.299999999999999940e-03 6.914370942467940040e-07
-1.150001000000000105e-03 7.132715040825132746e-07
-1.000002000000000052e-03 7.354762487921107095e-07
-8.499994999999999990e-04 7.580427450193383265e-07
-7.000007000000000148e-04 7.809617841303406749e-07
-5.500019000000000305e-04 8.042233048399793915e-07
-3.999992999999999973e-04 8.278165637420897838e-07
-2.500005000000000131e-04 8.517298510923865251e-07
-1.000017000000000017e-04 8.759507181821390986e-07
5.000085000000000087e-05 9.004658068079152144e-07
1.999996999999999886e-04 9.252611334886751138e-07
3.499985000000000270e-04 9.503216915618395433e-07
4.999972999999999571e-04 9.756317922438029200e-07
6.499998000000000104e-04 1.001174609882582445e-06
7.999985999999999946e-04 1.026932977765682153e-06
9.499975000000000129e-04 1.052888592312228866e-06
1.100000000000000066e-03 1.079022581507160794e-06
1.249998999999999902e-03 1.105314936467038933e-06
1.399997999999999954e-03 1.131744966187397949e-06
1.549999999999999946e-03 1.158291524916421622e-06
1.699998999999999998e-03 1.184932443720754236e-06
1.849998000000000050e-03 1.211644871546013746e-06
2.000000000000000042e-03 1.238405275216791779e-06
2.149999000000000094e-03 1.265189325749815907e-06
2.299998000000000146e-03 1.291972125727625098e-06
2.449999999999999921e-03 1.318728322985407431e-06
2.599998999999999973e-03 1.345431655863649212e-06
2.749998000000000026e-03 1.372055407955485862e-06
2.900001000000000141e-03 1.398572408106701914e-06
3.049998999999999853e-03 1.424954803042055573e-06
3.199997999999999905e-03 1.451174398425791878e-06
3.350001000000000020e-03 1.477202658861642703e-06
3.500000000000000073e-03 1.503010366832313593e-06
3.649997999999999784e-03 1.528568304820510093e-06
3.800000999999999900e-03 1.553846686874749139e-06
3.950000000000000386e-03 1.578815613356709946e-06
4.099999000000000005e-03 1.603445070941234007e-06
4.249997000000000150e-03 1.627704705242649652e-06
4.400000000000000265e-03 1.651564161875285208e-06
4.549998999999999884e-03 1.674992859079793561e-06
4.699998000000000370e-03 1.697960556157340761e-06
4.850000000000000144e-03 1.720436785035417415e-06
4.999998999999999763e-03 1.742391305015189573e-06
5.149998000000000249e-03 1.763794102771498729e-06
5.300000000000000024e-03 1.784615051292348653e-06
5.449998999999999642e-03 1.804824819373607170e-06
5.599998000000000128e-03 1.824394075811142102e-06
5.749999999999999903e-03 1.843293944148172159e-06
5.899999000000000389e-03 1.861496002675266936e-06
6.049998000000000008e-03 1.878972625490860082e-06
6.200001000000000123e-03 1.895696186693385243e-06
6.349999000000000268e-03 1.911640083562815562e-06
6.499997999999999887e-03 1.926778168126475066e-06
6.650001000000000002e-03 1.941085429280065000e-06
6.799999999999999621e-03 1.954537310666637495e-06
6.949997999999999766e-03 1.967110620171297342e-06
7.100000999999999882e-03 1.978782165679149330e-06
7.250000000000000368e-03 1.989530346691026352e-06
7.399998999999999987e-03 1.999334244828787632e-06
7.550000999999999761e-03 2.008174533330020495e-06
7.700000000000000247e-03 2.016032567553338595e-06
7.849998999999999866e-03 2.022890612352057360e-06
7.999997999999999485e-03 2.028732524195220321e-06
8.149999999999999259e-03 2.033543296420248225e-06
8.299999000000000612e-03 2.037309286606614478e-06
8.449998000000000231e-03 2.040017989202169701e-06
8.600000000000000006e-03 2.041658262896817178e-06
8.749998999999999624e-03 2.042220557996188290e-06
8.899997999999999243e-03 2.041696689047967084e-06
9.050000000000000752e-03 2.040079607468214817e-06
9.199999000000000371e-03 2.037364083662396297e-06
9.349997999999999990e-03 2.033545797530678101e-06
9.500000999999999238e-03 2.028622475336305797e-06
9.649998999999999383e-03 2.022592980210902169e-06
9.799998000000000736e-03 2.015457994275493547e-06
9.950000999999999984e-03 2.007219563893158920e-06
1.009999999999999960e-02 1.997880872295354493e-06
1.025000000000000043e-02 1.987447376450290903e-06
1.039999999999999952e-02 1.975925670194556005e-06
1.055000000000000035e-02 1.963323938980465755e-06
1.069999999999999944e-02 1.949651732502388768e-06
1.085000000000000027e-02 1.934919964696746320e-06
1.099999999999999936e-02 1.919141141115687788e-06
1.115000000000000019e-02 1.902329358927090652e-06
1.129999999999999928e-02 1.884500306914560497e-06
1.145000000000000011e-02 1.865670469669566955e-06
1.159999999999999920e-02 1.845858264459820930e-06
1.175000000000000003e-02 1.825083018047735095e-06
1.190000000000000085e-02 1.803365535124612506e-06
1.204999999999999995e-02 1.780727984623808879e-06
1.220000000000000077e-02 1.757193672347057145e-06
1.234999999999999987e-02 1.732787040964467451e-06
1.250000000000000069e-02 1.707533556327689439e-06
1.264999999999999979e-02 1.681460048530425411e-06
1.280000000000000061e-02 1.654594143474241719e-06
1.294999999999999971e-02 1.626964603929081932e-06
1.310000000000000053e-02 1.598600988472753670e-06
1.324999999999999963e-02 1.569533651490928605e-06
1.340000000000000045e-02 1.539793970550817903e-06
1.354999999999999954e-02 1.509413777966983616e-06
1.370000000000000037e-02 1.478425815548689570e-06
1.384999999999999946e-02 1.446863279852550477e-06
1.400000000000000029e-02 1.414759935869369656e-06
1.414999999999999938e-02 1.382150117024139035e-06
1.430000000000000021e-02 1.349068611489201430e-06
1.444999999999999930e-02 1.315550207436899655e-06
1.460000000000000013e-02 1.281630375160602853e-06
1.474999999999999922e-02 1.247344584953680169e-06
1.490000000000000005e-02 1.212728420796338469e-06
1.504999999999999914e-02 1.177817580355622340e-06
1.519999999999999997e-02 1.142647647611738648e-06
1.535000000000000080e-02 1.107254433918569703e-06
1.549999999999999989e-02 1.071673182195809204e-06
1.565000000000000072e-02 1.035939249049988575e-06
1.580000000000000154e-02 1.000087650027126074e-06
1.594999999999999890e-02 9.641530596127267927e-07
1.609999999999999973e-02 9.281695270146883558e-07
1.625000000000000056e-02 8.921710445974895265e-07
1.640000000000000138e-02 8.561909226045827381e-07
1.654999999999999874e-02 8.202617323149752337e-07
1.669999999999999957e-02 7.844155902603233699e-07
1.685000000000000039e-02 7.486838740078383125e-07
1.700000000000000122e-02 7.130972221602860373e-07
1.714999999999999858e-02 6.776854775125684682e-07
1.729999999999999941e-02 6.424776870517234784e-07
1.745000000000000023e-02 6.075018745832494460e-07
1.760000000000000106e-02 5.727852681047806982e-07
1.774999999999999842e-02 5.383539587455743458e-07
1.789999999999999925e-02 5.042331849836045876e-07
1.805000000000000007e-02 4.704470768501778366e-07
1.820000000000000090e-02 4.370186843516421504e-07
1.835000000000000173e-02 4.039700058910966618e-07
1.849999999999999908e-02 3.713217608947161352e-07
1.864999999999999991e-02 3.390936171854264103e-07
1.880000000000000074e-02 3.073041057177761104e-07
1.895000000000000157e-02 2.759704216259706300e-07
1.909999999999999892e-02 2.451085947541287169e-07
1.924999999999999975e-02 2.147335180779919028e-07
1.940000000000000058e-02 1.848587345421037753e-07
1.955000000000000140e-02 1.554965791683571297e-07
1.969999999999999876e-02 1.266580795800109627e-07
1.984999999999999959e-02 9.835308389938290929e-08
2.000000000000000042e-02 7.059015416643887875e-08
2.015000000000000124e-02 4.337663739306663047e-08
2.029999999999999860e-02 1.671853055995597970e-08
2.044999999999999943e-02 -9.379310661472572974e-09
2.060000000000000026e-02 -3.491322786430828273e-08
2.075000000000000108e-02 -5.988086115849000635e-08
2.089999999999999844e-02 -8.428101239132956835e-08
2.104999999999999927e-02 -1.081136318248354655e-07
2.120000000000000009e-02 -1.313798065893934108e-07
2.135000000000000092e-02 -1.540818175271851942e-07
2.149999999999999828e-02 -1.762229544510773849e-07
2.164999999999999911e-02 -1.978076511477411259e-07
2.179999999999999993e-02 -2.188414072179512004e-07
2.195000000000000076e-02 -2.393307454440218862e-07
2.210000000000000159e-02 -2.592831833680975251e-07
2.224999999999999895e-02 -2.787070911836053710e-07
2.239999999999999977e-02 -2.976117912112385966e-07
2.255000000000000060e-02 -3.160077142183581600e-07
2.270000000000000143e-02 -3.339058309848041972e-07
2.284999999999999878e-02 -3.513180502068280475e-07
2.299999999999999961e-02 -3.682571616536733927e-07
2.315000000000000044e-02 -3.847365235287725227e-07
2.330000000000000127e-02 -4.007702045782934874e-07
2.344999999999999862e-02 -4.163730125128495274e-07
2.359999999999999945e-02 -4.315602666338236304e-07
2.375000000000000028e-02 -4.463479683636251139e-07
2.390000000000000110e-02 -4.607525170285953209e-07
2.404999999999999846e-02 -4.747909656543924939e-07
2.419999999999999929e-02 -4.884805662186408881e-07
2.435000000000000012e-02 -5.018392243982816581e-07
2.450000000000000094e-02 -5.148850732439314015e-07
2.464999999999999830e-02 -5.276366437101387419e-07
2.479999999999999913e-02 -5.401126372817088850e-07
2.494999999999999996e-02 -5.523321533473790623e-07
2.510000000000000078e-02 -5.643142912958865054e-07
2.525000000000000161e-02 -5.760784347330627497e-07
2.539999999999999897e-02 -5.876441377949959133e-07
2.554999999999999979e-02 -5.990308409309363924e-07
2.570000000000000062e-02 -6.102580982769723050e-07
2.585000000000000145e-02 -6.213456913428672124e-07
2.599999999999999881e-02 -6.323131742647092324e-07
2.614999999999999963e-02 -6.431801011785864830e-07
2.630000000000000046e-02 -6.539658556903304998e-07
2.645000000000000129e-02 -6.646898214057728183e-07
2.659999999999999865e-02 -6.753712114004883915e-07
2.674999999999999947e-02 -6.860290682197955903e-07
2.690000000000000030e-02 -6.966820933484996203e-07
2.705000000000000113e-02 -7.073488745845679659e-07
2.719999999999999848e-02 -7.180476586654549465e-07
2.734999999999999931e-02 -7.287966354851960205e-07
2.750000000000000014e-02 -7.396134265036380384e-07
2.765000000000000097e-02 -7.505153689635335468e-07
2.779999999999999832e-02 -7.615196295773785096e-07
2.794999999999999915e-02 -7.726427497800614219e-07
2.809999999999999998e-02 -7.839012141630519181e-07
2.825000000000000080e-02 -7.953108251967933029e-07
2.840000000000000163e-02 -8.068871011346345767e-07
2.854999999999999899e-02 -8.186451623259927146e-07
2.869999999999999982e-02 -8.305996175295149442e-07
2.885000000000000064e-02 -8.427647344433353283e-07
2.900000000000000147e-02 -8.551542691748181824e-07
2.914999999999999883e-02 -8.677815230839769356e-07
2.929999999999999966e-02 -8.806593996268929914e-07
2.945000000000000048e-02 -8.938002338254591450e-07
2.960000000000000131e-02 -9.072159059542173054e-07
2.974999999999999867e-02 -9.209178983837773558e-07
2.989999999999999949e-02 -9.349171250505605713e-07
3.005000000000000032e-02 -9.492241588304750621e-07
3.020000000000000115e-02 -9.638488336349837482e-07
3.034999999999999851e-02 -9.788009265321306884e-07
3.049999999999999933e-02 -9.940894187820958905e-07
3.065000000000000016e-02 -1.009722950584546197e-06
3.080000000000000099e-02 -1.025709707391797565e-06
3.094999999999999835e-02 -1.042057419908815064e-06
3.109999999999999917e-02 -1.058773250406375155e-06
3.125000000000000000e-02 -1.075864020094741136e-06
3.139999999999999736e-02 -1.093336095436825417e-06
3.155000000000000165e-02 -1.111195501835027244e-06
3.169999999999999901e-02 -1.129447582570719533e-06
3.185000000000000331e-02 -1.148097567238437477e-06
3.200000000000000067e-02 -1.167150003311689943e-06
3.214999999999999802e-02 -1.186609324577148072e-06
3.230000000000000232e-02 -1.206479282700456679e-06
3.244999999999999968e-02 -1.226763629347260576e-06
3.259999999999999704e-02 -1.247465093001665082e-06
3.275000000000000133e-02 -1.268586629521450959e-06
3.289999999999999869e-02 -1.290130512643372640e-06
3.305000000000000299e-02 -1.312098902417346835e-06
3.320000000000000034e-02 -1.334493390459101647e-06
3.334999999999999770e-02 -1.357315227323852014e-06
3.350000000000000200e-02 -1.380565322506299708e-06
3.364999999999999936e-02 -1.404244471814308781e-06
3.379999999999999671e-02 -1.428352902621554676e-06
3.395000000000000101e-02 -1.452890387554361951e-06
3.409999999999999837e-02 -1.477856699239055160e-06
3.425000000000000266e-02 -1.503251041867770255e-06
3.440000000000000002e-02 -1.529072164885292295e-06
3.454999999999999738e-02 -1.555318817736406345e-06
3.470000000000000168e-02 -1.581989067744871136e-06
3.484999999999999903e-02 -1.609080982234445401e-06
3.500000000000000333e-02 -1.636591946407861542e-06
3.515000000000000069e-02 -1.664519231781014241e-06
3.529999999999999805e-02 -1.692859655122447293e-06
3.545000000000000234e-02 -1.721609578453353606e-06
3.559999999999999970e-02 -1.750765022734412923e-06
3.574999999999999706e-02 -1.780321554178954102e-06
3.590000000000000135e-02 -1.810274625313468277e-06
3.604999999999999871e-02 -1.840618779169744812e-06
3.620000000000000301e-02 -1.871348445092735346e-06
3.635000000000000037e-02 -1.902457597680040635e-06
3.649999999999999772e-02 -1.933939302034559660e-06
3.665000000000000202e-02 -1.965787078006542288e-06
3.679999999999999938e-02 -1.997992967517348006e-06
3.694999999999999674e-02 -2.030549012488336302e-06
3.710000000000000103e-02 -2.063446572719840333e-06
3.724999999999999839e-02 -2.096676325891166925e-06
3.740000000000000269e-02 -2.130228040186921135e-06
3.755000000000000004e-02 -2.164091711165383458e-06
3.769999999999999740e-02 -2.198255970142781734e-06
3.785000000000000170e-02 -2.232709448435343802e-06
3.799999999999999906e-02 -2.267439185743569396e-06
3.815000000000000335e-02 -2.302431994394282810e-06
3.830000000000000071e-02 -2.337674004593282007e-06
3.844999999999999807e-02 -2.373150437051663175e-06
3.860000000000000236e-02 -2.408845375612145290e-06
3.874999999999999972e-02 -2.444742904117447324e-06
3.889999999999999708e-02 -2.480825514794560149e-06
3.905000000000000138e-02 -2.517075245123123750e-06
3.919999999999999873e-02 -2.553473223088076338e-06
3.935000000000000303e-02 -2.589998757684952579e-06
3.950000000000000039e-02 -2.626631612656638026e-06
3.964999999999999775e-02 -2.663349505382939242e-06
3.980000000000000204e-02 -2.700129925869987346e-06
3.994999999999999940e-02 -2.736948772508185357e-06
4.009999999999999676e-02 -2.773781261566909961e-06
4.025000000000000105e-02 -2.810601472447160631e-06
4.039999999999999841e-02 -2.847382120307884179e-06
4.055000000000000271e-02 -2.884095692934351973e-06
4.070000000000000007e-02 -2.920712177001405507e-06
4.084999999999999742e-02 -2.957202468678588048e-06
4.100000000000000172e-02 -2.993534508277662098e-06
4.114999999999999908e-02 -3.029676008736714721e-06
4.130000000000000338e-02 -3.065594000872806646e-06
4.145000000000000073e-02 -3.101253469139919616e-06
4.159999999999999809e-02 -3.136619170618359931e-06
4.175000000000000239e-02 -3.171654498146381229e-06
4.189999999999999974e-02 -3.206321707693859935e-06
4.204999999999999710e-02 -3.240581690988619812e-06
4.220000000000000140e-02 -3.274395339758484624e-06
4.234999999999999876e-02 -3.307721726741874591e-06
4.250000000000000305e-02 -3.340519469929859042e-06
4.265000000000000041e-02 -3.372746050445130095e-06
4.279999999999999777e-02 -3.404358039915678091e-06
4.295000000000000207e-02 -3.435311327848467045e-06
4.309999999999999942e-02 -3.465560894255759194e-06
4.324999999999999678e-02 -3.495061037028790452e-06
4.340000000000000108e-02 -3.523765371937770396e-06
4.354999999999999843e-02 -3.551626832631882280e-06
4.370000000000000273e-02 -3.578597898012958467e-06
4.385000000000000009e-02 -3.604630364861804992e-06
4.399999999999999745e-02 -3.629676029959227890e-06
4.415000000000000174e-02 -3.653685553217655979e-06
4.429999999999999910e-02 -3.676610276670544408e-06
4.445000000000000340e-02 -3.698400405482971109e-06
4.460000000000000075e-02 -3.719006599567364901e-06
4.474999999999999811e-02 -3.738379064088803716e-06
4.490000000000000241e-02 -3.756468458959716372e-06
4.504999999999999977e-02 -3.773225671466207132e-06
4.519999999999999712e-02 -3.788601361520704813e-06
4.535000000000000142e-02 -3.802546416409313679e-06
4.549999999999999878e-02 -3.815012860286515206e-06
4.565000000000000308e-02 -3.825952262559439987e-06
4.580000000000000043e-02 -3.835317784250946715e-06
4.594999999999999779e-02 -3.843062586383894086e-06
4.610000000000000209e-02 -3.849141194223193452e-06
4.624999999999999944e-02 -3.853508133033756167e-06
4.639999999999999680e-02 -3.856120201817248017e-06
4.655000000000000110e-02 -3.856934654322685674e-06
4.669999999999999846e-02 -3.855910108541138470e-06
4.685000000000000275e-02 -3.853006546705728397e-06
4.700000000000000011e-02 -3.848185315291630104e-06
4.714999999999999747e-02 -3.841408670268720016e-06
4.730000000000000177e-02 -3.832642050838330761e-06
4.744999999999999912e-02 -3.821851805696496740e-06
4.760000000000000342e-02 -3.809005647781305015e-06
4.775000000000000078e-02 -3.794074245888623409e-06
4.789999999999999813e-02 -3.777029860430047847e-06
4.805000000000000243e-02 -3.757846343432902358e-06
4.819999999999999979e-02 -3.736501184903318062e-06
4.834999999999999715e-02 -3.712972784342127852e-06