-1.200000e-01 0.000000e+00
-1.190000e-01 0.000000e+00
-1.180000e-01 0.000000e+00
-1.170000e-01 0.000000e+00
-1.160000e-01 0.000000e+00
-1.150000e-01 0.000000e+00
-1.140000e-01 0.000000e+00
-1.130000e-01 0.000000e+00
-1.120000e-01 0.000000e+00
-1.110000e-01 0.000000e+00
-1.100000e-01 0.000000e+00
-1.090000e-01 0.000000e+00
-1.080000e-01 0.000000e+00
-1.070000e-01 2.382207e-44
-1.060000e-01 -1.891753e-43
-1.050000e-01 1.701176e-41
-1.040000e-01 1.406946e-40
-1.030000e-01 4.085332e-40
-1.020000e-01 2.212058e-39
-1.010000e-01 2.252090e-38
-1.000000e-01 1.106862e-37
-9.900001e-02 1.750575e-37
-9.800000e-02 -6.017907e-37
-9.700000e-02 -2.878134e-36
-9.600000e-02 1.433502e-36
-9.500001e-02 3.991965e-35
-9.400000e-02 1.035238e-34
-9.300000e-02 -8.298263e-35
-9.200001e-02 -1.160440e-33
-9.100001e-02 -2.636034e-33
-9.000000e-02 1.457631e-33
-8.900000e-02 2.302404e-32
-8.800000e-02 5.356875e-32
-8.700000e-02 -1.586230e-33
-8.600000e-02 -3.294752e-31
-8.500001e-02 -8.656276e-31
-8.400001e-02 -4.543873e-31
-8.300000e-02 3.389425e-30
-8.200000e-02 1.099451e-29
-8.100000e-02 1.141009e-29
-8.000000e-02 -2.285260e-29
-7.900000e-02 -1.083377e-28
-7.800000e-02 -1.667362e-28
-7.700001e-02 5.147480e-29
-7.600001e-02 8.066596e-28
-7.500000e-02 1.724036e-27
-7.400000e-02 9.730831e-28
-7.300000e-02 -4.181662e-27
-7.200000e-02 -1.329149e-26
-7.100000e-02 -1.581956e-26
-7.000001e-02 9.879176e-27
-6.900001e-02 7.604516e-26
-6.800000e-02 1.388760e-25
-6.700000e-02 6.499758e-26
-6.600000e-02 -2.950272e-25
-6.500000e-02 -8.527884e-25
-6.400000e-02 -9.745729e-25
-6.300000e-02 4.142084e-25
-6.200000e-02 3.740075e-24
-6.100000e-02 6.857517e-24
-6.000000e-02 4.144279e-24
-5.900000e-02 -1.012810e-23
-5.800000e-02 -3.263498e-23
-5.700000e-02 -4.152010e-23
-5.600000e-02 -1.098517e-24
-5.500000e-02 1.048747e-22
-5.400001e-02 2.194299e-22
-5.300000e-02 1.886094e-22
-5.200000e-02 -1.549406e-22
-5.100000e-02 -7.729103e-22
-5.000000e-02 -1.193837e-21
-4.900000e-02 -5.822608e-22
-4.800000e-02 1.608651e-21
-4.700000e-02 4.545543e-21
-4.600000e-02 5.389161e-21
-4.500000e-02 5.061792e-22
-4.400000e-02 -1.088337e-20
-4.300000e-02 -2.243717e-20
-4.200000e-02 -2.040611e-20
-4.100000e-02 7.967501e-21
-4.000000e-02 5.822506e-20
-3.900000e-02 9.574958e-20
-3.800000e-02 6.461304e-20
-3.700000e-02 -7.027261e-20
-3.600000e-02 -2.632378e-19
-3.500000e-02 -3.605665e-19
-3.400000e-02 -1.665324e-19
-3.300000e-02 3.843808e-19
-3.200000e-02 1.040422e-18
-3.100000e-02 1.217291e-18
-3.000000e-02 3.173451e-19
-2.900000e-02 -1.669623e-18
-2.800000e-02 -3.671753e-18
-2.700000e-02 -3.733852e-18
-2.600000e-02 -2.516132e-19
-2.500000e-02 6.192271e-18
-2.400000e-02 1.174148e-17
-2.300000e-02 1.053048e-17
-2.200000e-02 -1.232925e-18
-2.100000e-02 -2.027114e-17
-2.000000e-02 -3.439096e-17
-1.900000e-02 -2.760633e-17
-1.800000e-02 7.927970e-18
-1.700000e-02 5.967714e-17
-1.600000e-02 9.300757e-17
-1.500000e-02 6.793071e-17
-1.400000e-02 -2.947046e-17
-1.300000e-02 -1.598513e-16
-1.200000e-02 -2.335893e-16
-1.100000e-02 -1.581272e-16
-9.999998e-03 8.650253e-17
-8.999996e-03 3.926358e-16
-8.000001e-03 5.469129e-16
-6.999999e-03 3.498494e-16
-5.999997e-03 -2.169838e-16
-5.000003e-03 -8.892623e-16
-4.000001e-03 -1.196362e-15
-2.999999e-03 -7.361271e-16
-1.999997e-03 4.818798e-16
-1.000002e-03 1.865379e-15
0.000000e+00 2.447264e-15
1.000002e-03 1.467274e-15
2.000004e-03 -9.708746e-16
2.999999e-03 -3.640831e-15
4.000001e-03 -4.682677e-15
4.999995e-03 -2.748154e-15
5.999997e-03 1.821357e-15
6.999999e-03 6.654082e-15
8.000001e-03 8.387319e-15
9.000003e-03 4.782262e-15
1.000001e-02 -3.291753e-15
1.100001e-02 -1.150305e-14
1.199999e-02 -1.410483e-14
1.300000e-02 -7.629227e-15
1.400000e-02 5.960625e-15
1.500000e-02 1.910438e-14
1.600000e-02 2.244814e-14
1.700000e-02 1.100440e-14
1.800001e-02 -1.110353e-14
1.900001e-02 -3.110792e-14
2.000000e-02 -3.435437e-14
2.100000e-02 -1.420552e-14
2.200000e-02 2.114450e-14
2.300000e-02 5.060970e-14
2.400000e-02 5.180138e-14
2.500001e-02 1.652861e-14
2.600001e-02 -3.976511e-14
2.700000e-02 -8.283059e-14
2.800000e-02 -7.889183e-14
2.900000e-02 -1.843644e-14
3.000000e-02 7.102730e-14
3.100000e-02 1.348540e-13
3.200001e-02 1.224004e-13
3.300001e-02 2.293317e-14
3.400001e-02 -1.173654e-13
3.500000e-02 -2.134208e-13
3.600000e-02 -1.900404e-13
3.700000e-02 -3.509606e-14
3.800000e-02 1.781233e-13
3.900000e-02 3.213514e-13
4.000001e-02 2.853834e-13
4.100001e-02 5.697161e-14
4.200000e-02 -2.526542e-13
4.300000e-02 -4.567587e-13
4.400000e-02 -4.022996e-13
4.500000e-02 -7.801102e-14
4.600000e-02 3.513506e-13
4.700001e-02 6.218083e-13
4.800001e-02 5.276689e-13
4.900001e-02 6.928857e-14
5.000000e-02 -5.098899e-13
5.100000e-02 -8.424589e-13
5.200000e-02 -6.611540e-13
5.300000e-02 3.322836e-15
5.400001e-02 7.885363e-13
5.500001e-02 1.183344e-12
5.600001e-02 8.444342e-13
5.700000e-02 -1.416498e-13
5.800000e-02 -1.236456e-12
5.900000e-02 -1.725741e-12
6.000000e-02 -1.163124e-12
6.100000e-02 2.841517e-13
6.200001e-02 1.834244e-12
6.300001e-02 2.495416e-12
6.400001e-02 1.679164e-12
6.500000e-02 -3.465316e-13
6.600000e-02 -2.488190e-12
6.700000e-02 -3.401223e-12
6.800000e-02 -2.319733e-12
6.900001e-02 3.596182e-13
7.000001e-02 3.158660e-12
7.100001e-02 4.312712e-12
7.200000e-02 2.869400e-12
7.300000e-02 -5.791283e-13
7.400000e-02 -4.061726e-12
7.500000e-02 -5.314948e-12
7.600001e-02 -3.216342e-12
7.700001e-02 1.320368e-12
7.800001e-02 5.649951e-12
7.900001e-02 6.874271e-12
8.000000e-02 3.699367e-12
8.100000e-02 -2.484822e-12
8.200000e-02 -8.115613e-12
8.300000e-02 -9.452461e-12
8.400001e-02 -4.969069e-12
8.500001e-02 3.351728e-12
8.600001e-02 1.080739e-11
8.700001e-02 1.261933e-11
8.800000e-02 6.970245e-12
8.900000e-02 -3.471753e-12
9.000000e-02 -1.271687e-11
9.100001e-02 -1.489175e-11
9.200001e-02 -8.014156e-12
9.300001e-02 4.295460e-12
9.400001e-02 1.452792e-11
9.500000e-02 1.573441e-11
9.600000e-02 6.155570e-12
9.700000e-02 -8.965781e-12
9.800000e-02 -1.993406e-11
9.900001e-02 -1.841939e-11
1.000000e-01 -3.183626e-12
1.010000e-01 1.802680e-11
1.020000e-01 3.217029e-11
1.030000e-01 2.855513e-11
1.040000e-01 6.057567e-12
1.050000e-01 -2.475636e-11
1.060000e-01 -4.660888e-11
1.070000e-01 -4.532358e-11
1.080000e-01 -1.887760e-11
1.090000e-01 2.006414e-11
1.100000e-01 5.041739e-11
1.110000e-01 5.473175e-11
1.120000e-01 3.005222e-11
1.130000e-01 -9.338013e-12
1.140000e-01 -3.976463e-11
1.150000e-01 -4.258003e-11
1.160000e-01 -1.653544e-11
1.170000e-01 2.007305e-11
1.180000e-01 3.993220e-11
1.190000e-01 2.443012e-11
1.200000e-01 -2.220744e-11
1.210000e-01 -7.209912e-11
1.220000e-01 -8.853071e-11
1.230000e-01 -4.895807e-11
1.240000e-01 3.746681e-11
1.250000e-01 1.297744e-10
1.260000e-01 1.749359e-10
1.270000e-01 1.378824e-10
1.280000e-01 2.471005e-11
1.290000e-01 -1.157099e-10
1.300000e-01 -2.148927e-10
1.310000e-01 -2.212152e-10
1.320000e-01 -1.292914e-10
1.330000e-01 1.544983e-11
1.340000e-01 1.410317e-10
1.350000e-01 1.890193e-10
1.360000e-01 1.471600e-10
1.370000e-01 5.465579e-11
1.380000e-01 -2.401238e-11
1.390000e-01 -4.142938e-11
1.400000e-01 5.841946e-13
1.410000e-01 5.056166e-11
1.420000e-01 4.151887e-11
1.430000e-01 -5.974041e-11
1.440000e-01 -2.193181e-10
1.450000e-01 -3.432393e-10
1.460000e-01 -3.262053e-10
1.470000e-01 -1.173091e-10
1.480000e-01 2.356065e-10
1.490000e-01 5.927486e-10
1.500000e-01 7.828158e-10
1.510000e-01 6.884014e-10
1.520000e-01 3.109516e-10
1.530000e-01 -2.215459e-10
1.540000e-01 -7.107400e-10
1.550000e-01 -9.793173e-10
1.560000e-01 -9.491661e-10
1.570000e-01 -6.654012e-10
1.580000e-01 -2.564648e-10
1.590000e-01 1.428803e-10
1.600000e-01 4.583944e-10
1.610000e-01 6.939167e-10
1.620000e-01 8.925023e-10
1.630000e-01 1.070561e-09
1.640000e-01 1.172567e-09
1.650000e-01 1.082417e-09
1.660000e-01 6.914682e-10
1.670000e-01 -1.401990e-11
1.680000e-01 -9.008474e-10
1.690000e-01 -1.710280e-09
1.700000e-01 -2.151367e-09
1.710000e-01 -2.022732e-09
1.720000e-01 -1.302295e-09
1.730000e-01 -1.599147e-10
1.740000e-01 1.110102e-09
1.750000e-01 2.198487e-09
1.760000e-01 2.877009e-09
1.770000e-01 3.040803e-09
1.780000e-01 2.693682e-09
1.790000e-01 1.907082e-09
1.800000e-01 7.913883e-10
1.810000e-01 -4.997247e-10
1.820000e-01 -1.748731e-09
1.830000e-01 -2.675876e-09
1.840000e-01 -2.992351e-09
1.850000e-01 -2.502077e-09
1.860000e-01 -1.206075e-09
1.870000e-01 6.467076e-10
1.880000e-01 2.610022e-09
1.890000e-01 4.182311e-09
1.900000e-01 4.977892e-09
1.910000e-01 4.845504e-09
1.920000e-01 3.887976e-09
1.930000e-01 2.380602e-09
1.940000e-01 6.338041e-10
1.950000e-01 -1.095032e-09
1.960000e-01 -2.601723e-09
1.970000e-01 -3.684136e-09
1.980000e-01 -4.091817e-09
1.990000e-01 -3.567266e-09
2.000000e-01 -1.985200e-09
2.010000e-01 4.738467e-10
2.020000e-01 3.263267e-09
2.030000e-01 5.549282e-09
2.040000e-01 6.520622e-09
2.050000e-01 5.727543e-09
2.060000e-01 3.309651e-09
2.070000e-01 -1.728040e-11
2.080000e-01 -3.243258e-09
2.090000e-01 -5.464244e-09
2.100000e-01 -6.341907e-09
2.110000e-01 -6.098162e-09
2.120000e-01 -5.377842e-09
2.130000e-01 -4.756657e-09
2.140000e-01 -4.454705e-09
2.150000e-01 -4.163667e-09
2.160000e-01 -3.348759e-09
2.170000e-01 -1.635271e-09
2.180000e-01 7.948984e-10
2.190000e-01 3.028617e-09
2.200000e-01 3.888999e-09
2.210000e-01 2.537490e-09
2.220000e-01 -1.091394e-09
2.230000e-01 -5.951733e-09
2.240000e-01 -1.023000e-08
2.250000e-01 -1.231820e-08
2.260000e-01 -1.147782e-08
2.270000e-01 -8.119969e-09
2.280000e-01 -3.848982e-09
2.290000e-01 -4.365575e-10
2.300000e-01 1.175067e-09
2.310000e-01 8.549250e-10
2.320000e-01 -2.619345e-10
2.330000e-01 -7.639755e-10
2.340000e-01 1.564331e-10
2.350000e-01 2.328306e-09
2.360000e-01 4.591129e-09
2.370000e-01 5.988113e-09
2.380000e-01 5.104084e-09
2.390000e-01 2.517481e-09
2.400000e-01 -6.730261e-10
2.410000e-01 -3.092282e-09
2.420000e-01 -3.576133e-09
2.430000e-01 -2.029992e-09
2.440000e-01 7.821654e-10
2.450000e-01 2.833985e-09
2.460000e-01 2.979505e-09
2.470000e-01 1.044100e-09
2.480000e-01 -1.786248e-09
2.490000e-01 -3.912646e-09
2.500000e-01 -3.781679e-09
2.510000e-01 -1.286026e-09
2.520000e-01 2.645720e-09
2.530000e-01 6.295750e-09
2.540000e-01 7.525159e-09
2.550000e-01 5.140464e-09
2.560000e-01 -2.237357e-10
2.570000e-01 -6.855771e-09
2.580000e-01 -1.227454e-08
2.590000e-01 -1.484659e-08
2.600000e-01 -1.378430e-08
2.610000e-01 -1.030276e-08
2.620000e-01 -6.162736e-09
2.630000e-01 -3.034074e-09
2.640000e-01 -1.462467e-09
2.650000e-01 -8.149073e-10
2.660000e-01 1.236913e-10
2.670000e-01 2.146407e-09
2.680000e-01 5.602487e-09
2.690000e-01 9.313226e-09
2.700000e-01 1.244189e-08
2.710000e-01 1.399894e-08
2.720000e-01 1.350418e-08
2.730000e-01 1.177250e-08
2.740000e-01 9.473297e-09
2.750000e-01 7.683411e-09
2.760000e-01 7.552444e-09
2.770000e-01 9.269570e-09
2.780000e-01 1.242734e-08
2.790000e-01 1.586159e-08
2.800000e-01 1.897570e-08
2.810000e-01 2.086745e-08
2.820000e-01 2.104207e-08
2.830000e-01 2.065644e-08
2.840000e-01 1.918670e-08
2.850000e-01 1.826993e-08
2.860000e-01 1.829176e-08
2.870000e-01 1.763692e-08
2.880000e-01 1.609442e-08
2.890000e-01 1.337321e-08
2.900000e-01 9.426003e-09
2.910000e-01 4.434696e-09
2.920000e-01 -8.567440e-10
2.930000e-01 -5.067704e-09
2.940000e-01 -8.717052e-09
2.950000e-01 -1.061699e-08
2.960000e-01 -1.080298e-08
2.970000e-01 -1.072840e-08
2.980000e-01 -1.140143e-08
2.990000e-01 -1.296576e-08
3.000000e-01 -1.616718e-08
3.010000e-01 -1.933222e-08
3.020000e-01 -2.186425e-08
3.030000e-01 -2.223533e-08
3.040000e-01 -2.112210e-08
3.050000e-01 -1.905573e-08
3.060000e-01 -1.712033e-08
3.070000e-01 -1.646549e-08
3.080000e-01 -1.725130e-08
3.090000e-01 -1.829176e-08
3.100000e-01 -1.862645e-08
3.110000e-01 -1.762237e-08
3.120000e-01 -1.533772e-08
3.130000e-01 -1.307490e-08
3.140000e-01 -1.108128e-08
3.150000e-01 -1.013541e-08
3.160000e-01 -9.677024e-09
3.170000e-01 -9.000360e-09
3.180000e-01 -7.035851e-09
3.190000e-01 -3.979949e-09
3.200000e-01 -7.203198e-10
3.210000e-01 1.578883e-09
3.220000e-01 2.306479e-09
3.230000e-01 1.702574e-09
3.240000e-01 6.402843e-10
3.250000e-01 1.164153e-10
3.260000e-01 6.730261e-10
3.270000e-01 2.244633e-09
3.280000e-01 4.325557e-09
3.290000e-01 6.326445e-09
3.300000e-01 7.803465e-09
3.310000e-01 9.038558e-09
3.320000e-01 1.037188e-08
3.330000e-01 1.189801e-08
3.340000e-01 1.338321e-08
3.350000e-01 1.431454e-08
3.360000e-01 1.445460e-08
3.370000e-01 1.366743e-08
3.380000e-01 1.211652e-08
3.390000e-01 1.001638e-08
3.400000e-01 7.827765e-09
3.410000e-01 6.249138e-09
3.420000e-01 5.699803e-09
3.430000e-01 6.049049e-09
3.440000e-01 6.617029e-09
3.450000e-01 6.798473e-09
3.460000e-01 5.918537e-09
3.470000e-01 4.102731e-09
3.480000e-01 2.052730e-09
3.490000e-01 7.630661e-10
3.500000e-01 1.080480e-09
3.510000e-01 2.904926e-09
3.520000e-01 5.210495e-09
3.530000e-01 6.873051e-09
3.540000e-01 7.357812e-09
3.550000e-01 7.138624e-09
3.560000e-01 7.010385e-09
3.570000e-01 7.506060e-09
3.580000e-01 8.461029e-09
3.590000e-01 8.943061e-09
3.600000e-01 8.026291e-09
3.610000e-01 5.273250e-09
3.620000e-01 8.667485e-10
3.630000e-01 -4.232788e-09
3.640000e-01 -9.134055e-09
3.650000e-01 -1.332273e-08
3.660000e-01 -1.688932e-08
3.670000e-01 -2.027946e-08
3.680000e-01 -2.376055e-08
3.690000e-01 -2.769730e-08
3.700000e-01 -3.252626e-08
3.710000e-01 -3.895457e-08
3.720000e-01 -4.769663e-08
3.730000e-01 -5.915535e-08
3.740000e-01 -7.348035e-08
3.750000e-01 -9.087262e-08
3.760000e-01 -1.120427e-07
3.770000e-01 -1.380909e-07
3.780000e-01 -1.704193e-07
3.790000e-01 -2.104498e-07
3.800000e-01 -2.595968e-07
3.810000e-01 -3.194623e-07
3.820000e-01 -3.921032e-07
3.830000e-01 -4.802678e-07
3.840000e-01 -5.874131e-07
3.850000e-01 -7.172532e-07
3.860000e-01 -8.733908e-07
3.870000e-01 -1.059143e-06
3.880000e-01 -1.278130e-06
3.890000e-01 -1.535196e-06
3.900000e-01 -1.836799e-06
3.910000e-01 -2.190809e-06
3.920000e-01 -2.605875e-06
3.930000e-01 -3.091008e-06
3.940000e-01 -3.655648e-06
3.950000e-01 -4.310034e-06
3.960000e-01 -5.065669e-06
3.970000e-01 -5.935487e-06
3.980000e-01 -6.933942e-06
3.990000e-01 -8.076864e-06
4.000000e-01 -9.381382e-06
4.010000e-01 -1.086611e-05
4.020000e-01 -1.255129e-05
4.030000e-01 -1.445880e-05
4.040000e-01 -1.661188e-05
4.050000e-01 -1.903457e-05
4.060000e-01 -2.175168e-05
4.070000e-01 -2.478925e-05
4.080000e-01 -2.817513e-05
4.090000e-01 -3.193903e-05
4.100000e-01 -3.611187e-05
4.110000e-01 -4.072440e-05
4.120000e-01 -4.580630e-05
4.130000e-01 -5.138577e-05
4.140000e-01 -5.748986e-05
4.150000e-01 -6.414493e-05
4.160000e-01 -7.137668e-05
4.170000e-01 -7.920912e-05
4.180000e-01 -8.766340e-05
4.190000e-01 -9.675579e-05
4.200000e-01 -1.064967e-04
4.210000e-01 -1.168902e-04
4.220001e-01 -1.279335e-04
4.230000e-01 -1.396163e-04
4.240000e-01 -1.519206e-04
4.250000e-01 -1.648186e-04
4.260000e-01 -1.782720e-04
4.270000e-01 -1.922311e-04
4.280000e-01 -2.066336e-04
4.290000e-01 -2.214036e-04
4.300000e-01 -2.364507e-04
4.310000e-01 -2.516695e-04
4.320000e-01 -2.669393e-04
4.330000e-01 -2.821250e-04
4.340000e-01 -2.970756e-04
4.350000e-01 -3.116257e-04
4.360000e-01 -3.255942e-04
4.370000e-01 -3.387848e-04
4.380000e-01 -3.509871e-04
4.390000e-01 -3.619780e-04
4.400000e-01 -3.715248e-04
4.410000e-01 -3.793871e-04
4.420000e-01 -3.853189e-04
4.430000e-01 -3.890720e-04
4.440000e-01 -3.903960e-04
4.450000e-01 -3.890430e-04
4.460000e-01 -3.847724e-04
4.470000e-01 -3.773527e-04
4.480000e-01 -3.665681e-04
4.490000e-01 -3.522228e-04
4.500000e-01 -3.341437e-04
4.510000e-01 -3.121863e-04
4.520000e-01 -2.862362e-04
4.530000e-01 -2.562155e-04
4.540000e-01 -2.220855e-04
4.550000e-01 -1.838518e-04
4.560000e-01 -1.415655e-04
4.570000e-01 -9.532917e-05
4.580000e-01 -4.529815e-05
4.590001e-01 8.318275e-06
4.600000e-01 6.525669e-05
4.610000e-01 1.252008e-04
4.620000e-01 1.877812e-04
4.630000e-01 2.525782e-04
4.640000e-01 3.191237e-04
4.650000e-01 3.869019e-04
4.660000e-01 4.553548e-04
4.670000e-01 5.238888e-04
4.680000e-01 5.918799e-04
4.690000e-01 6.586829e-04
4.700000e-01 7.236382e-04
4.710000e-01 7.860799e-04
4.720000e-01 8.453415e-04
4.730000e-01 9.007667e-04
4.740000e-01 9.517169e-04
4.750000e-01 9.975822e-04
4.760000e-01 1.037791e-03
4.770000e-01 1.071819e-03
4.780000e-01 1.099196e-03
4.790000e-01 1.119513e-03
4.800000e-01 1.132430e-03
4.810000e-01 1.137680e-03
4.820001e-01 1.135076e-03
4.830000e-01 1.124514e-03
4.840000e-01 1.105976e-03
4.850000e-01 1.079532e-03
4.860000e-01 1.045338e-03
4.870000e-01 1.003638e-03
4.880000e-01 9.547595e-04
4.890000e-01 8.991116e-04
4.900000e-01 8.371791e-04
4.910000e-01 7.695125e-04
4.920000e-01 6.967241e-04
4.930000e-01 6.194803e-04
4.940000e-01 5.384922e-04
4.950000e-01 4.545088e-04
4.960001e-01 3.683043e-04
4.970000e-01 2.806659e-04
4.980000e-01 1.923861e-04
4.990000e-01 1.042514e-04
5.000000e-01 1.703456e-05
5.010000e-01 -6.851517e-05
5.020000e-01 -1.516794e-04
5.030000e-01 -2.317824e-04
5.040000e-01 -3.082015e-04
5.050000e-01 -3.803720e-04
5.060000e-01 -4.477881e-04
5.070000e-01 -5.100109e-04
5.080000e-01 -5.666678e-04
5.090000e-01 -6.174584e-04
5.100001e-01 -6.621558e-04
5.110000e-01 -7.006103e-04
5.120000e-01 -7.327452e-04
5.130000e-01 -7.585518e-04
5.140000e-01 -7.780861e-04
5.150000e-01 -7.914674e-04
5.160000e-01 -7.988727e-04
5.170000e-01 -8.005376e-04
5.180000e-01 -7.967483e-04
5.190001e-01 -7.878322e-04
5.200000e-01 -7.741505e-04
5.210000e-01 -7.560922e-04
5.220000e-01 -7.340675e-04
5.230000e-01 -7.085059e-04
5.240000e-01 -6.798492e-04
5.250000e-01 -6.485450e-04
5.260000e-01 -6.150374e-04
5.270000e-01 -5.797605e-04
5.280000e-01 -5.431356e-04
5.290000e-01 -5.055694e-04
5.300000e-01 -4.674514e-04
5.310000e-01 -4.291487e-04
5.320000e-01 -3.910016e-04
5.330001e-01 -3.533194e-04
5.340000e-01 -3.163799e-04
5.350000e-01 -2.804318e-04
5.360000e-01 -2.456954e-04
5.370000e-01 -2.123615e-04
5.380000e-01 -1.805900e-04
5.390000e-01 -1.505075e-04
5.400000e-01 -1.222092e-04
5.410000e-01 -9.576317e-05
5.420001e-01 -7.121465e-05
5.430000e-01 -4.858817e-05
5.440000e-01 -2.788808e-05
5.450000e-01 -9.096460e-06
5.460000e-01 7.825513e-06
5.470001e-01 2.293413e-05
5.480000e-01 3.629691e-05
5.490000e-01 4.798827e-05
5.500000e-01 5.808912e-05
5.510000e-01 6.668799e-05
5.520000e-01 7.388109e-05
5.530000e-01 7.977115e-05
5.540000e-01 8.446205e-05
5.550000e-01 8.805578e-05
5.560001e-01 9.064993e-05
5.570000e-01 9.233945e-05
5.580000e-01 9.321963e-05
5.590000e-01 9.338538e-05
5.600000e-01 9.292831e-05
5.610000e-01 9.193277e-05
5.620000e-01 9.047386e-05
5.630000e-01 8.861946e-05
5.640000e-01 8.643394e-05
5.650001e-01 8.398016e-05
5.660000e-01 8.131808e-05
5.670000e-01 7.850185e-05
5.680000e-01 7.557686e-05
5.690000e-01 7.258016e-05
5.700001e-01 6.954295e-05
5.710000e-01 6.649405e-05
5.720000e-01 6.346130e-05
5.730000e-01 6.046998e-05
5.740000e-01 5.754046e-05
5.750000e-01 5.468700e-05
5.760000e-01 5.191972e-05
5.770000e-01 4.924678e-05
5.780000e-01 4.667612e-05
5.790001e-01 4.421512e-05
5.800000e-01 4.186871e-05
5.810000e-01 3.963840e-05
5.820000e-01 3.752274e-05
5.830000e-01 3.551962e-05
5.840001e-01 3.362715e-05
5.850000e-01 3.184348e-05
5.860000e-01 3.016585e-05
5.870000e-01 2.858963e-05
5.880000e-01 2.710898e-05
5.890000e-01 2.571866e-05
5.900000e-01 2.441498e-05
5.910000e-01 2.319536e-05
5.920000e-01 2.205626e-05
5.930001e-01 2.099171e-05
5.940000e-01 1.999406e-05
5.950000e-01 1.905647e-05
5.960000e-01 1.817493e-05
5.970000e-01 1.734820e-05
5.980000e-01 1.657544e-05
5.990000e-01 1.585345e-05
6.000000e-01 1.517612e-05
6.010000e-01 1.453622e-05
6.020001e-01 1.392879e-05
6.030000e-01 1.335210e-05
6.040000e-01 1.280685e-05
6.050000e-01 1.229320e-05
6.060000e-01 1.180895e-05
6.070001e-01 1.134988e-05
6.080000e-01 1.091206e-05
6.090000e-01 1.049386e-05
6.100000e-01 1.009581e-05
6.110000e-01 9.718608e-06
6.120000e-01 9.361112e-06
6.130000e-01 9.020184e-06
6.140000e-01 8.692629e-06
6.150000e-01 8.377427e-06
6.160001e-01 8.075961e-06
6.170000e-01 7.790108e-06
6.180000e-01 7.519877e-06
6.190000e-01 7.262769e-06
6.200000e-01 7.015559e-06
6.210001e-01 6.776835e-06
6.220000e-01 6.547883e-06
6.230000e-01 6.331285e-06
6.240000e-01 6.128177e-06
6.250001e-01 5.936710e-06
6.260000e-01 5.753142e-06
6.270000e-01 5.574801e-06
6.280000e-01 5.402155e-06
6.290000e-01 5.238187e-06
6.300001e-01 5.085347e-06
6.310000e-01 4.942725e-06
6.320000e-01 4.806097e-06
6.330000e-01 4.671010e-06
6.340000e-01 4.536204e-06
6.350001e-01 4.404532e-06
6.360000e-01 4.280433e-06
6.370000e-01 4.166138e-06
6.380000e-01 4.059752e-06
6.390001e-01 3.956827e-06
6.400000e-01 3.853801e-06
6.410000e-01 3.750644e-06
6.420000e-01 3.650321e-06
6.430000e-01 3.555765e-06
6.440001e-01 3.466954e-06
6.450000e-01 3.380680e-06
6.460000e-01 3.293360e-06
6.470000e-01 3.204288e-06
6.480000e-01 3.116532e-06
6.490000e-01 3.034536e-06
6.500000e-01 2.960526e-06
6.510000e-01 2.892871e-06
6.520000e-01 2.827617e-06
6.530001e-01 2.761774e-06
6.540000e-01 2.695573e-06
6.550000e-01 2.631756e-06
6.560000e-01 2.572905e-06
6.570000e-01 2.519106e-06
6.580001e-01 2.467963e-06
6.590000e-01 2.416772e-06
6.600000e-01 2.364955e-06
6.610000e-01 2.314501e-06
6.620001e-01 2.268176e-06
6.630000e-01 2.226987e-06
6.640000e-01 2.189282e-06
6.650000e-01 2.152177e-06
6.660000e-01 2.113990e-06
6.670001e-01 2.075360e-06
6.680000e-01 2.038066e-06
6.690000e-01 2.002820e-06
6.700000e-01 1.968133e-06
6.710000e-01 1.931441e-06
6.720001e-01 1.891336e-06
6.730000e-01 1.848928e-06
6.740000e-01 1.807078e-06
6.750000e-01 1.768149e-06
6.760001e-01 1.732112e-06
6.770000e-01 1.696665e-06
6.780000e-01 1.659109e-06
6.790000e-01 1.618540e-06
6.800000e-01 1.576451e-06
6.810001e-01 1.535271e-06
6.820000e-01 1.496178e-06
6.830000e-01 1.458202e-06
6.840000e-01 1.419407e-06
6.850001e-01 1.379018e-06
6.860000e-01 1.338422e-06
6.870000e-01 1.300120e-06
6.880000e-01 1.265642e-06
6.890000e-01 1.234349e-06
6.900001e-01 1.204182e-06
6.910000e-01 1.173513e-06
6.920000e-01 1.142532e-06
6.930000e-01 1.112979e-06
6.940000e-01 1.086591e-06
6.950001e-01 1.063596e-06
6.960000e-01 1.042573e-06
6.970000e-01 1.021776e-06
6.980000e-01 1.000785e-06
6.990001e-01 9.809795e-07
7.000000e-01 9.643204e-07
7.010000e-01 9.514828e-07
7.020000e-01 9.410898e-07
7.030000e-01 9.308228e-07
7.040001e-01 9.194234e-07
7.050000e-01 9.077493e-07
7.060000e-01 8.979692e-07
7.070000e-01 8.916609e-07
7.080001e-01 8.884972e-07
7.090001e-01 8.865272e-07
7.100000e-01 8.836378e-07
7.110000e-01 8.789898e-07
7.120000e-01 8.733060e-07
7.130001e-01 8.679874e-07
7.140000e-01 8.637800e-07
7.150000e-01 8.601342e-07
7.160000e-01 8.557447e-07
7.170000e-01 8.497656e-07
7.180001e-01 8.425752e-07
7.190000e-01 8.352982e-07
7.200000e-01 8.285677e-07
7.210000e-01 8.217110e-07
7.220001e-01 8.131419e-07
7.230000e-01 8.015763e-07
7.240000e-01 7.869022e-07
7.250000e-01 7.700658e-07
7.260000e-01 7.522833e-07
7.270001e-01 7.343510e-07
7.280000e-01 7.164673e-07
7.290000e-01 6.984811e-07
7.300000e-01 6.802128e-07
7.310000e-01 6.616475e-07
7.320001e-01 6.429251e-07
7.330000e-01 6.242107e-07
7.340000e-01 6.056088e-07
7.350000e-01 5.872885e-07
7.360001e-01 5.696542e-07
7.370000e-01 5.533603e-07
7.380000e-01 5.388848e-07
7.390000e-01 5.261272e-07
7.400000e-01 5.144294e-07
7.410001e-01 5.031407e-07
7.420000e-01 4.921284e-07
7.430000e-01 4.816992e-07
7.440000e-01 4.720839e-07
7.450001e-01 4.631354e-07
7.460001e-01 4.545626e-07
7.470000e-01 4.463513e-07
7.480000e-01 4.388194e-07
7.490000e-01 4.321872e-07
7.500001e-01 4.261295e-07
7.510000e-01 4.197779e-07
7.520000e-01 4.121754e-07
7.530000e-01 4.028820e-07
7.540000e-01 3.922991e-07
7.550001e-01 3.814953e-07
7.560000e-01 3.715762e-07
7.570000e-01 3.630032e-07
7.580000e-01 3.554434e-07
7.590001e-01 3.483517e-07
7.600001e-01 3.418008e-07
7.610000e-01 3.366253e-07
7.620000e-01 3.336514e-07
7.630000e-01 3.327656e-07
7.640001e-01 3.328874e-07
7.650000e-01 3.329614e-07
7.660000e-01 3.330246e-07
7.670000e-01 3.342597e-07
7.680001e-01 3.379807e-07
7.690001e-01 3.444885e-07
7.700000e-01 3.528041e-07
7.710000e-01 3.614210e-07
7.720000e-01 3.694266e-07
7.730001e-01 3.771074e-07
7.740000e-01 3.855048e-07
7.750000e-01 3.952209e-07
7.760000e-01 4.054413e-07
7.770000e-01 4.141769e-07
7.780001e-01 4.197027e-07
7.790000e-01 4.220186e-07
7.800000e-01 4.228714e-07
7.810000e-01 4.241464e-07
7.820001e-01 4.260390e-07
7.830001e-01 4.267515e-07
7.840000e-01 4.240131e-07
7.850000e-01 4.170443e-07
7.860000e-01 4.071623e-07
7.870001e-01 3.966471e-07
7.880000e-01 3.868661e-07
7.890000e-01 3.772610e-07
7.900000e-01 3.659226e-07
7.910001e-01 3.512461e-07
7.920001e-01 3.333387e-07
7.930000e-01 3.140677e-07
7.940000e-01 2.956373e-07
7.950000e-01 2.788792e-07
7.960001e-01 2.627365e-07
7.970001e-01 2.454256e-07
7.980000e-01 2.261480e-07
7.990000e-01 2.057205e-07
8.000000e-01 1.855968e-07
8.010001e-01 1.664427e-07
8.020000e-01 1.477983e-07
8.030000e-01 1.291202e-07
8.040000e-01 1.109044e-07
8.050001e-01 9.462608e-08
8.060001e-01 8.144095e-08
8.070000e-01 7.095964e-08
8.080000e-01 6.135153e-08
8.090000e-01 5.089241e-08
8.100001e-01 3.973815e-08
8.110000e-01 3.039538e-08
8.120000e-01 2.622393e-08
8.130000e-01 2.892331e-08
8.140000e-01 3.703899e-08
8.150001e-01 4.699534e-08
8.160000e-01 5.610913e-08
8.170000e-01 6.503665e-08
8.180000e-01 7.735776e-08
8.190001e-01 9.642390e-08
8.200001e-01 1.222228e-07
8.210000e-01 1.510755e-07
8.220000e-01 1.784931e-07
8.230000e-01 2.026544e-07
8.240001e-01 2.255220e-07
8.250000e-01 2.507297e-07
8.260000e-01 2.800787e-07
8.270000e-01 3.116074e-07
8.280001e-01 3.407502e-07
8.290001e-01 3.636746e-07
8.300000e-01 3.800012e-07
8.310000e-01 3.925930e-07
8.320000e-01 4.045013e-07
8.330001e-01 4.157321e-07
8.340001e-01 4.228089e-07
8.350000e-01 4.216650e-07
8.360000e-01 4.112791e-07
8.370000e-01 3.946990e-07
8.380001e-01 3.764802e-07
8.390000e-01 3.589363e-07
8.400000e-01 3.405808e-07
8.410000e-01 3.180486e-07
8.420001e-01 2.895687e-07
8.430001e-01 2.568357e-07
8.440000e-01 2.236829e-07
8.450000e-01 1.928388e-07
8.460000e-01 1.636609e-07
8.470001e-01 1.329476e-07
8.480000e-01 9.824554e-08
8.490000e-01 6.080933e-08
8.500000e-01 2.543405e-08
8.510001e-01 -3.026507e-09
8.520001e-01 -2.352815e-08
8.530000e-01 -3.953242e-08
8.540000e-01 -5.575319e-08
8.550000e-01 -7.381222e-08
8.560001e-01 -9.080905e-08
8.570001e-01 -1.021169e-07
8.580000e-01 -1.058024e-07
8.590000e-01 -1.045734e-07
8.600000e-01 -1.034572e-07
8.610001e-01 -1.052480e-07
8.620000e-01 -1.077306e-07
8.630000e-01 -1.051796e-07
8.640000e-01 -9.302536e-08
8.650001e-01 -7.184735e-08
8.660001e-01 -4.725683e-08
8.670000e-01 -2.554352e-08
8.680000e-01 -8.608218e-09
8.690000e-01 7.457999e-09
8.700001e-01 2.878437e-08
8.710001e-01 5.818492e-08
8.720000e-01 9.253035e-08
8.730000e-01 1.253449e-07
8.740000e-01 1.522139e-07
8.750001e-01 1.741778e-07
8.760000e-01 1.962414e-07
8.770000e-01 2.225705e-07
8.780000e-01 2.527048e-07
8.790001e-01 2.819567e-07
