-4.000000000000000083e-02 0.000000000000000000e+00
-3.984999999999999654e-02 0.000000000000000000e+00
-3.969999999999999918e-02 0.000000000000000000e+00
-3.955000000000000182e-02 0.000000000000000000e+00
-3.939999999999999752e-02 0.000000000000000000e+00
-3.925000000000000017e-02 0.000000000000000000e+00
-3.910000000000000281e-02 0.000000000000000000e+00
-3.894999999999999851e-02 0.000000000000000000e+00
-3.880000000000000115e-02 0.000000000000000000e+00
-3.864999999999999686e-02 0.000000000000000000e+00
-3.849999999999999950e-02 0.000000000000000000e+00
-3.835000000000000214e-02 0.000000000000000000e+00
-3.819999999999999785e-02 0.000000000000000000e+00
-3.805000000000000049e-02 0.000000000000000000e+00
-3.790000000000000313e-02 0.000000000000000000e+00
-3.774999999999999883e-02 0.000000000000000000e+00
-3.760000000000000148e-02 0.000000000000000000e+00
-3.744999999999999718e-02 0.000000000000000000e+00
-3.729999999999999982e-02 0.000000000000000000e+00
-3.715000000000000246e-02 0.000000000000000000e+00
-3.699999999999999817e-02 0.000000000000000000e+00
-3.685000000000000081e-02 0.000000000000000000e+00
-3.670000000000000345e-02 0.000000000000000000e+00
-3.654999999999999916e-02 0.000000000000000000e+00
-3.640000000000000180e-02 0.000000000000000000e+00
-3.624999999999999750e-02 0.000000000000000000e+00
-3.610000000000000014e-02 0.000000000000000000e+00
-3.595000000000000279e-02 0.000000000000000000e+00
-3.579999999999999849e-02 0.000000000000000000e+00
-3.565000000000000113e-02 0.000000000000000000e+00
-3.549999999999999684e-02 0.000000000000000000e+00
-3.534999999999999948e-02 0.000000000000000000e+00
-3.520000000000000212e-02 0.000000000000000000e+00
-3.504999999999999782e-02 0.000000000000000000e+00
-3.490000000000000047e-02 0.000000000000000000e+00
-3.475000000000000311e-02 0.000000000000000000e+00
-3.459999999999999881e-02 0.000000000000000000e+00
-3.445000000000000145e-02 0.000000000000000000e+00
-3.429999999999999716e-02 0.000000000000000000e+00
-3.414999999999999980e-02 0.000000000000000000e+00
-3.400000000000000244e-02 0.000000000000000000e+00
-3.384999999999999815e-02 0.000000000000000000e+00
-3.370000000000000079e-02 0.000000000000000000e+00
-3.355000000000000343e-02 0.000000000000000000e+00
-3.339999999999999913e-02 0.000000000000000000e+00
-3.325000000000000178e-02 0.000000000000000000e+00
-3.309999999999999748e-02 0.000000000000000000e+00
-3.295000000000000012e-02 0.000000000000000000e+00
-3.280000000000000276e-02 0.000000000000000000e+00
-3.264999999999999847e-02 0.000000000000000000e+00
-3.250000000000000111e-02 0.000000000000000000e+00
-3.234999999999999681e-02 0.000000000000000000e+00
-3.219999999999999946e-02 0.000000000000000000e+00
-3.205000000000000210e-02 0.000000000000000000e+00
-3.189999999999999780e-02 0.000000000000000000e+00
-3.175000000000000044e-02 0.000000000000000000e+00
-3.160000000000000309e-02 0.000000000000000000e+00
-3.144999999999999879e-02 0.000000000000000000e+00
-3.130000000000000143e-02 0.000000000000000000e+00
-3.115000000000000061e-02 0.000000000000000000e+00
-3.099999999999999978e-02 0.000000000000000000e+00
-3.084999999999999895e-02 0.000000000000000000e+00
-3.070000000000000159e-02 0.000000000000000000e+00
-3.055000000000000077e-02 0.000000000000000000e+00
-3.039999999999999994e-02 0.000000000000000000e+00
-3.024999999999999911e-02 0.000000000000000000e+00
-3.009999999999999828e-02 0.000000000000000000e+00
-2.995000000000000093e-02 0.000000000000000000e+00
-2.980000000000000010e-02 0.000000000000000000e+00
-2.964999999999999927e-02 0.000000000000000000e+00
-2.949999999999999845e-02 0.000000000000000000e+00
-2.935000000000000109e-02 0.000000000000000000e+00
-2.920000000000000026e-02 0.000000000000000000e+00
-2.904999999999999943e-02 0.000000000000000000e+00
-2.889999999999999861e-02 0.000000000000000000e+00
-2.875000000000000125e-02 0.000000000000000000e+00
-2.860000000000000042e-02 0.000000000000000000e+00
-2.844999999999999959e-02 0.000000000000000000e+00
-2.829999999999999877e-02 0.000000000000000000e+00
-2.815000000000000141e-02 0.000000000000000000e+00
-2.800000000000000058e-02 0.000000000000000000e+00
-2.784999999999999976e-02 0.000000000000000000e+00
-2.769999999999999893e-02 0.000000000000000000e+00
-2.755000000000000157e-02 0.000000000000000000e+00
-2.740000000000000074e-02 0.000000000000000000e+00
-2.724999999999999992e-02 0.000000000000000000e+00
-2.709999999999999909e-02 0.000000000000000000e+00
-2.695000000000000173e-02 0.000000000000000000e+00
-2.680000000000000090e-02 0.000000000000000000e+00
-2.665000000000000008e-02 0.000000000000000000e+00
-2.649999999999999925e-02 0.000000000000000000e+00
-2.634999999999999842e-02 0.000000000000000000e+00
-2.620000000000000107e-02 0.000000000000000000e+00
-2.605000000000000024e-02 0.000000000000000000e+00
-2.589999999999999941e-02 0.000000000000000000e+00
-2.574999999999999858e-02 0.000000000000000000e+00
-2.560000000000000123e-02 0.000000000000000000e+00
-2.545000000000000040e-02 0.000000000000000000e+00
-2.529999999999999957e-02 0.000000000000000000e+00
-2.514999999999999875e-02 0.000000000000000000e+00
-2.500000000000000139e-02 0.000000000000000000e+00
-2.485000000000000056e-02 0.000000000000000000e+00
-2.469999999999999973e-02 0.000000000000000000e+00
-2.454999999999999891e-02 0.000000000000000000e+00
-2.440000000000000155e-02 0.000000000000000000e+00
-2.425000000000000072e-02 0.000000000000000000e+00
-2.409999999999999989e-02 0.000000000000000000e+00
-2.394999999999999907e-02 0.000000000000000000e+00
-2.380000000000000171e-02 0.000000000000000000e+00
-2.365000000000000088e-02 0.000000000000000000e+00
-2.350000000000000006e-02 0.000000000000000000e+00
-2.334999999999999923e-02 0.000000000000000000e+00
-2.319999999999999840e-02 0.000000000000000000e+00
-2.305000000000000104e-02 0.000000000000000000e+00
-2.290000000000000022e-02 0.000000000000000000e+00
-2.274999999999999939e-02 0.000000000000000000e+00
-2.259999999999999856e-02 0.000000000000000000e+00
-2.245000000000000120e-02 0.000000000000000000e+00
-2.230000000000000038e-02 0.000000000000000000e+00
-2.214999999999999955e-02 0.000000000000000000e+00
-2.199999999999999872e-02 0.000000000000000000e+00
-2.185000000000000137e-02 0.000000000000000000e+00
-2.170000000000000054e-02 0.000000000000000000e+00
-2.154999999999999971e-02 0.000000000000000000e+00
-2.139999999999999888e-02 0.000000000000000000e+00
-2.125000000000000153e-02 0.000000000000000000e+00
-2.110000000000000070e-02 0.000000000000000000e+00
-2.094999999999999987e-02 0.000000000000000000e+00
-2.079999999999999905e-02 0.000000000000000000e+00
-2.065000000000000169e-02 0.000000000000000000e+00
-2.050000000000000086e-02 0.000000000000000000e+00
-2.035000000000000003e-02 0.000000000000000000e+00
-2.019999999999999921e-02 0.000000000000000000e+00
-2.004999999999999838e-02 0.000000000000000000e+00
-1.990000000000000102e-02 0.000000000000000000e+00
-1.975000000000000019e-02 0.000000000000000000e+00
-1.959999999999999937e-02 0.000000000000000000e+00
-1.944999999999999854e-02 0.000000000000000000e+00
-1.930000000000000118e-02 0.000000000000000000e+00
-1.915000000000000036e-02 0.000000000000000000e+00
-1.899999999999999953e-02 0.000000000000000000e+00
-1.884999999999999870e-02 0.000000000000000000e+00
-1.870000000000000134e-02 0.000000000000000000e+00
-1.855000000000000052e-02 0.000000000000000000e+00
-1.839999999999999969e-02 0.000000000000000000e+00
-1.824999999999999886e-02 0.000000000000000000e+00
-1.810000000000000150e-02 0.000000000000000000e+00
-1.795000000000000068e-02 0.000000000000000000e+00
-1.779999999999999985e-02 0.000000000000000000e+00
-1.764999999999999902e-02 0.000000000000000000e+00
-1.750000000000000167e-02 0.000000000000000000e+00
-1.735000000000000084e-02 0.000000000000000000e+00
-1.720000000000000001e-02 0.000000000000000000e+00
-1.704999999999999918e-02 0.000000000000000000e+00
-1.689999999999999836e-02 0.000000000000000000e+00
-1.675000000000000100e-02 0.000000000000000000e+00
-1.660000000000000017e-02 0.000000000000000000e+00
-1.644999999999999934e-02 0.000000000000000000e+00
-1.629999999999999852e-02 0.000000000000000000e+00
-1.615000000000000116e-02 0.000000000000000000e+00
-1.600000000000000033e-02 0.000000000000000000e+00
-1.584999999999999951e-02 0.000000000000000000e+00
-1.569999999999999868e-02 0.000000000000000000e+00
-1.554999999999999959e-02 0.000000000000000000e+00
-1.540000000000000049e-02 0.000000000000000000e+00
-1.524999999999999967e-02 0.000000000000000000e+00
-1.510000000000000057e-02 0.000000000000000000e+00
-1.494999999999999975e-02 0.000000000000000000e+00
-1.480000000000000066e-02 0.000000000000000000e+00
-1.464999999999999983e-02 0.000000000000000000e+00
-1.450000000000000074e-02 0.000000000000000000e+00
-1.434999999999999991e-02 0.000000000000000000e+00
-1.420000000000000082e-02 0.000000000000000000e+00
-1.404999999999999999e-02 0.000000000000000000e+00
-1.389999999999999916e-02 0.000000000000000000e+00
-1.375000000000000007e-02 0.000000000000000000e+00
-1.359999999999999924e-02 0.000000000000000000e+00
-1.345000000000000015e-02 0.000000000000000000e+00
-1.329999999999999932e-02 0.000000000000000000e+00
-1.315000000000000023e-02 0.000000000000000000e+00
-1.299999999999999940e-02 0.000000000000000000e+00
-1.285000000000000031e-02 0.000000000000000000e+00
-1.269999999999999948e-02 0.000000000000000000e+00
-1.255000000000000039e-02 0.000000000000000000e+00
-1.239999999999999956e-02 0.000000000000000000e+00
-1.225000000000000047e-02 0.000000000000000000e+00
-1.209999999999999964e-02 0.000000000000000000e+00
-1.195000000000000055e-02 0.000000000000000000e+00
-1.179999999999999973e-02 0.000000000000000000e+00
-1.165000000000000063e-02 0.000000000000000000e+00
-1.149999999999999981e-02 0.000000000000000000e+00
-1.135000000000000071e-02 0.000000000000000000e+00
-1.119999999999999989e-02 0.000000000000000000e+00
-1.105000000000000079e-02 0.000000000000000000e+00
-1.089999999999999997e-02 0.000000000000000000e+00
-1.074999999999999914e-02 0.000000000000000000e+00
-1.060000000000000005e-02 0.000000000000000000e+00
-1.044999999999999922e-02 0.000000000000000000e+00
-1.030000000000000013e-02 0.000000000000000000e+00
-1.014999999999999930e-02 0.000000000000000000e+00
-1.000000000000000021e-02 0.000000000000000000e+00
-9.850001000000000589e-03 0.000000000000000000e+00
-9.700001999999999236e-03 0.000000000000000000e+00
-9.550001000000000670e-03 0.000000000000000000e+00
-9.400000999999999843e-03 0.000000000000000000e+00
-9.250002000000000224e-03 0.000000000000000000e+00
-9.100000999999999923e-03 0.000000000000000000e+00
-8.950001000000000831e-03 0.000000000000000000e+00
-8.800001999999999477e-03 0.000000000000000000e+00
-8.650000999999999177e-03 0.000000000000000000e+00
-8.500001999999999558e-03 0.000000000000000000e+00
-8.349999999999999784e-03 0.000000000000000000e+00
-8.200001000000000165e-03 0.000000000000000000e+00
-8.050002000000000546e-03 0.000000000000000000e+00
-7.900000000000000772e-03 0.000000000000000000e+00
-7.750001000000000285e-03 0.000000000000000000e+00
-7.600001999999999799e-03 0.000000000000000000e+00
-7.449998999999999684e-03 0.000000000000000000e+00
-7.300001000000000406e-03 0.000000000000000000e+00
-7.150001999999999920e-03 0.000000000000000000e+00
-7.000003000000000301e-03 0.000000000000000000e+00
-6.850000000000000186e-03 0.000000000000000000e+00
-6.700002000000000041e-03 0.000000000000000000e+00
-6.550003000000000422e-03 0.000000000000000000e+00
-6.400000000000000307e-03 0.000000000000000000e+00
-6.250000999999999821e-03 0.000000000000000000e+00
-6.100002999999999675e-03 0.000000000000000000e+00
-5.950000000000000427e-03 0.000000000000000000e+00
-5.800000999999999941e-03 0.000000000000000000e+00
-5.650002999999999796e-03 0.000000000000000000e+00
-5.499999999999999681e-03 0.000000000000000000e+00
-5.350001000000000062e-03 0.000000000000000000e+00
-5.200001999999999576e-03 0.000000000000000000e+00
-5.049999999999999802e-03 0.000000000000000000e+00
-4.900001000000000183e-03 0.000000000000000000e+00
-4.750001999999999697e-03 0.000000000000000000e+00
-4.599999999999999922e-03 0.000000000000000000e+00
-4.450001000000000304e-03 0.000000000000000000e+00
-4.300001999999999817e-03 0.000000000000000000e+00
-4.149998999999999702e-03 0.000000000000000000e+00
-4.000001000000000424e-03 0.000000000000000000e+00
-3.850001999999999938e-03 0.000000000000000000e+00
-3.699998999999999823e-03 0.000000000000000000e+00
-3.550000000000000204e-03 0.000000000000000000e+00
-3.400002000000000059e-03 0.000000000000000000e+00
-3.250003000000000006e-03 0.000000000000000000e+00
-3.099999999999999891e-03 0.000000000000000000e+00
-2.950002000000000180e-03 0.000000000000000000e+00
-2.800003000000000127e-03 0.000000000000000000e+00
-2.650000000000000012e-03 0.000000000000000000e+00
-2.500000999999999959e-03 0.000000000000000000e+00
-2.350002999999999814e-03 0.000000000000000000e+00
-2.200000000000000133e-03 0.000000000000000000e+00
-2.050001000000000080e-03 0.000000000000000000e+00
-1.900002000000000028e-03 0.000000000000000000e+00
-1.750000000000000036e-03 0.000000000000000000e+00
-1.600000999999999984e-03 0.000000000000000000e+00
-1.450001999999999932e-03 0.000000000000000000e+00
-1.299999999999999940e-03 0.000000000000000000e+00
-1.150001000000000105e-03 0.000000000000000000e+00
-1.000002000000000052e-03 0.000000000000000000e+00
-8.499994999999999990e-04 0.000000000000000000e+00
-7.000007000000000148e-04 0.000000000000000000e+00
-5.500019000000000305e-04 0.000000000000000000e+00
-3.999992999999999973e-04 0.000000000000000000e+00
-2.500005000000000131e-04 0.000000000000000000e+00
-1.000017000000000017e-04 0.000000000000000000e+00
5.000085000000000087e-05 0.000000000000000000e+00
1.999996999999999886e-04 0.000000000000000000e+00
3.499985000000000270e-04 -0.000000000000000000e+00
4.999972999999999571e-04 0.000000000000000000e+00
6.499998000000000104e-04 -0.000000000000000000e+00
7.999985999999999946e-04 -0.000000000000000000e+00
9.499975000000000129e-04 1.401298464324817071e-45
1.100000000000000066e-03 7.006492321624085355e-45
1.249998999999999902e-03 -6.726232628759121940e-44
1.399997999999999954e-03 1.541428310757298778e-43
1.549999999999999946e-03 1.221932260891240486e-42
1.699998999999999998e-03 -9.703991865449358216e-42
1.849998000000000050e-03 9.502204886586584558e-42
2.000000000000000042e-03 2.091115659357994770e-40
2.149999000000000094e-03 -1.053738610113725667e-39
2.299998000000000146e-03 -1.059820245448895373e-39
2.449999999999999921e-03 2.798270840030570567e-38
2.599998999999999973e-03 -7.016260492959200789e-38
2.749998000000000026e-03 -3.768405461425441863e-37
2.900001000000000141e-03 2.571677291025178975e-36
3.049998999999999853e-03 2.806312275346006389e-37
3.199997999999999905e-03 -5.000726881868860255e-35
3.350001000000000020e-03 1.176842955083367609e-34
3.500000000000000073e-03 6.191252522319177172e-34
3.649997999999999784e-03 -3.324176066586531260e-33
3.800000999999999900e-03 -3.677832358239047624e-33
3.950000000000000386e-03 5.913943817334400654e-32
4.099999000000000005e-03 -4.083886310579467454e-32
4.249997000000000150e-03 -8.021381609333235757e-31
4.400000000000000265e-03 1.634344715044296740e-30
4.549998999999999884e-03 8.850554635702702893e-30
4.699998000000000370e-03 -3.010028386918965652e-29
4.850000000000000144e-03 -8.260890708607063124e-29
4.999998999999999763e-03 4.156533339291782676e-28
5.149998000000000249e-03 6.843733797999224890e-28
5.300000000000000024e-03 -4.786744802378923734e-27
5.449998999999999642e-03 -5.503949172903075165e-27
5.599998000000000128e-03 4.787363873300247567e-26
5.749999999999999903e-03 4.873271134027606855e-26
5.899999000000000389e-03 -4.201319846368656541e-25
6.049998000000000008e-03 -4.949036725001734950e-25
6.200001000000000123e-03 3.180357228777510911e-24
6.349999000000000268e-03 5.159257999658979876e-24
6.499997999999999887e-03 -1.961073342727424580e-23
6.650001000000000002e-03 -4.802096728313007021e-23
6.799999999999999621e-03 8.397024856915266748e-23
6.949997999999999766e-03 3.592520272684035529e-22
7.100000999999999882e-03 -8.440251279077757311e-23
7.250000000000000368e-03 -1.920238197782374091e-21
7.399998999999999987e-03 -2.048837923898268929e-21
7.550000999999999761e-03 5.435999956738351233e-21
7.700000000000000247e-03 1.630669770698513624e-20
7.849998999999999866e-03 7.161363005204719982e-21
7.999997999999999485e-03 -4.056354137231679394e-20
8.149999999999999259e-03 -9.966851712076869919e-20
8.299999000000000612e-03 -9.965946983281890045e-20
8.449998000000000231e-03 2.735362208620979567e-20
8.600000000000000006e-03 3.334519111590342559e-19
8.749998999999999624e-03 8.835240199770771549e-19
8.899997999999999243e-03 1.753010578163976292e-18
9.050000000000000752e-03 3.003570559157623472e-18
9.199999000000000371e-03 4.699048450971852168e-18
9.349997999999999990e-03 6.922208016590808703e-18
9.500000999999999238e-03 9.753128611115751686e-18
9.649998999999999383e-03 1.327051481546987659e-17
9.799998000000000736e-03 1.757321554003388279e-17
9.950000999999999984e-03 2.276532071154960561e-17
1.009999999999999960e-02 2.895025272200455011e-17
1.025000000000000043e-02 3.625207046530819427e-17
1.039999999999999952e-02 4.480522718694735743e-17
1.055000000000000035e-02 5.474657164746281248e-17
1.069999999999999944e-02 6.623547508111392616e-17
1.085000000000000027e-02 7.944535755768366582e-17
1.099999999999999936e-02 9.455658415537799406e-17
1.115000000000000019e-02 1.117755926853105449e-16
1.129999999999999928e-02 1.313259866106666527e-16
1.145000000000000011e-02 1.534444256134201890e-16
1.159999999999999920e-02 1.783984926955647075e-16
1.175000000000000003e-02 2.064762981731748780e-16
1.190000000000000085e-02 2.379870355417781219e-16
1.204999999999999995e-02 2.732766251160992149e-16
1.220000000000000077e-02 3.127159614479171337e-16
1.234999999999999987e-02 3.567072793080592642e-16
1.250000000000000069e-02 4.056958797987649532e-16
1.264999999999999979e-02 4.601586424693383717e-16
1.280000000000000061e-02 5.206163072938837025e-16
1.294999999999999971e-02 5.876395891903931322e-16
1.310000000000000053e-02 6.618407341610539098e-16
1.324999999999999963e-02 7.438902746627362207e-16
1.340000000000000045e-02 8.345168178487563735e-16
1.354999999999999954e-02 9.345049809260678672e-16
1.370000000000000037e-02 1.044713072968035325e-15
1.384999999999999946e-02 1.166068118595869375e-15
1.400000000000000029e-02 1.299572687181763889e-15
1.414999999999999938e-02 1.446319239469440101e-15
1.430000000000000021e-02 1.607483880706160606e-15
1.444999999999999930e-02 1.784342666026964008e-15
1.460000000000000013e-02 1.978278482597361360e-15
1.474999999999999922e-02 2.190780414338625720e-15
1.490000000000000005e-02 2.423464388355881481e-15
1.504999999999999914e-02 2.678073386696341179e-15
1.519999999999999997e-02 2.956487610744672548e-15
1.535000000000000080e-02 3.260741210123706789e-15
1.549999999999999989e-02 3.593023976760333082e-15
1.565000000000000072e-02 3.955699767852101367e-15
1.580000000000000154e-02 4.351317940812010274e-15
1.594999999999999890e-02 4.782620764806795599e-15
1.609999999999999973e-02 5.252566502404742987e-15
1.625000000000000056e-02 5.764336609355739591e-15
1.640000000000000138e-02 6.321352675250219155e-15
1.654999999999999874e-02 6.927298869892264260e-15
1.669999999999999957e-02 7.586128719563184353e-15
1.685000000000000039e-02 8.302095176691143275e-15
1.700000000000000122e-02 9.079764595894788959e-15
1.714999999999999858e-02 9.924034521675145770e-15
1.729999999999999941e-02 1.084016418160171566e-14
1.745000000000000023e-02 1.183378973290552874e-14
1.760000000000000106e-02 1.291095475566524445e-14
1.774999999999999842e-02 1.407813396972967465e-14
1.789999999999999925e-02 1.534226033977209580e-14
1.805000000000000007e-02 1.671075218034456106e-14
1.820000000000000090e-02 1.819154703719579047e-14
1.835000000000000173e-02 1.979313556858906115e-14
1.849999999999999908e-02 2.152458780332357213e-14
1.864999999999999991e-02 2.339559549238180713e-14
1.880000000000000074e-02 2.541650768431331919e-14
1.895000000000000157e-02 2.759836968875030438e-14
1.909999999999999892e-02 2.995295865179138650e-14
1.924999999999999975e-02 3.249284454237381936e-14
1.940000000000000058e-02 3.523140709293243189e-14
1.955000000000000140e-02 3.818290695016719749e-14
1.969999999999999876e-02 4.136252972075649126e-14
1.984999999999999959e-02 4.478642324080676917e-14
2.000000000000000042e-02 4.847177550288371550e-14
2.015000000000000124e-02 5.243685531359371099e-14
2.029999999999999860e-02 5.670107666808782421e-14
2.044999999999999943e-02 6.128504957203864678e-14
2.060000000000000026e-02 6.621066813306680787e-14
2.075000000000000108e-02 7.150114105392707531e-14
2.089999999999999844e-02 7.718109327646202611e-14
2.104999999999999927e-02 8.327662696797424879e-14
2.120000000000000009e-02 8.981538928386212373e-14
2.135000000000000092e-02 9.682665368278275952e-14
2.149999999999999828e-02 1.043414215706056636e-13
2.164999999999999911e-02 1.123924561817306322e-13
2.179999999999999993e-02 1.210144181043593115e-13
2.195000000000000076e-02 1.302439330431309772e-13
2.210000000000000159e-02 1.401196731342854718e-13
2.224999999999999895e-02 1.506824856946711866e-13
2.239999999999999977e-02 1.619754406555901083e-13
2.255000000000000060e-02 1.740439796405965356e-13
2.270000000000000143e-02 1.869359972806600156e-13
2.284999999999999878e-02 2.007019360818554365e-13
2.299999999999999961e-02 2.153949219506345880e-13
2.315000000000000044e-02 2.310708319564619417e-13
2.330000000000000127e-02 2.477884976197219924e-13
2.344999999999999862e-02 2.656096913591921016e-13
2.359999999999999945e-02 2.845994110951127753e-13
2.375000000000000028e-02 3.048258531441333519e-13
2.390000000000000110e-02 3.263605748496378745e-13
2.404999999999999846e-02 3.492787385272339007e-13
2.419999999999999929e-02 3.736590301495895661e-13
2.435000000000000012e-02 3.995839575020310175e-13
2.450000000000000094e-02 4.271399586027596618e-13
2.464999999999999830e-02 4.564175101230694143e-13
2.479999999999999913e-02 4.875112358075639474e-13
2.494999999999999996e-02 5.205200962095368755e-13
2.510000000000000078e-02 5.555473615859174430e-13
2.525000000000000161e-02 5.927011811034110789e-13
2.539999999999999897e-02 6.320942575778476513e-13
2.554999999999999979e-02 6.738441185247245890e-13
2.570000000000000062e-02 7.180734414198586268e-13
2.585000000000000145e-02 7.649099452791685572e-13
2.599999999999999881e-02 8.144867701294355999e-13
2.614999999999999963e-02 8.669425312184120269e-13
2.630000000000000046e-02 9.224213190148211616e-13
2.645000000000000129e-02 9.810728618386832522e-13
2.659999999999999865e-02 1.043052796911858593e-12
2.674999999999999947e-02 1.108522887198482021e-12
2.690000000000000030e-02 1.177650641934202547e-12
2.705000000000000113e-02 1.250610075567704094e-12
2.719999999999999848e-02 1.327581707760705498e-12
2.734999999999999931e-02 1.408752129707091516e-12
2.750000000000000014e-02 1.494315088335085306e-12
2.765000000000000097e-02 1.584470510525293196e-12
2.779999999999999832e-02 1.679425262052225420e-12
2.794999999999999915e-02 1.779393147584296120e-12
2.809999999999999998e-02 1.884594910683823343e-12
2.825000000000000080e-02 1.995258342227246295e-12
2.840000000000000163e-02 2.111618171984908088e-12
2.854999999999999899e-02 2.233917044403010976e-12
2.869999999999999982e-02 2.362403892300357633e-12
2.885000000000000064e-02 2.497335671591827122e-12
2.900000000000000147e-02 2.638976493926636913e-12
2.914999999999999883e-02 2.787597626688342878e-12
2.929999999999999966e-02 2.943477709835273792e-12
2.945000000000000048e-02 3.106902972740965829e-12
2.960000000000000131e-02 3.278166583672859069e-12
2.974999999999999867e-02 3.457569517154035488e-12
2.989999999999999949e-02 3.645419903441915466e-12
3.005000000000000032e-02 3.842032594847388793e-12
3.020000000000000115e-02 4.047730033096552660e-12
3.034999999999999851e-02 4.262842249330711653e-12
3.049999999999999933e-02 4.487704912542467284e-12
3.065000000000000016e-02 4.722661497980062961e-12
3.080000000000000099e-02 4.968061552423908012e-12
3.094999999999999835e-02 5.224261995229184663e-12
3.109999999999999917e-02 5.491624516240634080e-12
3.125000000000000000e-02 5.770519045239508316e-12
3.139999999999999736e-02 6.061319415134880373e-12
3.155000000000000165e-02 6.364405964048858166e-12
3.169999999999999901e-02 6.680165101635715530e-12
3.185000000000000331e-02 7.008987140677547245e-12
3.200000000000000067e-02 7.351268031807745018e-12
3.214999999999999802e-02 7.707407628787521503e-12
3.230000000000000232e-02 8.077810989548517284e-12
3.244999999999999968e-02 8.462885774107586911e-12
3.259999999999999704e-02 8.863043979290274876e-12
3.275000000000000133e-02 9.278698469283863659e-12
3.289999999999999869e-02 9.710268179807801658e-12
3.305000000000000299e-02 1.015817117921979928e-11
3.320000000000000034e-02 1.062282813796278091e-11
3.334999999999999770e-02 1.110465972647967092e-11
3.350000000000000200e-02 1.160408921729860765e-11
3.364999999999999936e-02 1.212153814822425346e-11
3.379999999999999671e-02 1.265742805706127072e-11
3.395000000000000101e-02 1.321217961425258380e-11
3.409999999999999837e-02 1.378621175551764111e-11
3.425000000000000266e-02 1.437994081449067707e-11
3.440000000000000002e-02 1.499377878799723618e-11
3.454999999999999738e-02 1.562813593813938695e-11
3.470000000000000168e-02 1.628341732284876997e-11
3.484999999999999903e-02 1.696002192852485990e-11
3.500000000000000333e-02 1.765834353739670348e-11
3.515000000000000069e-02 1.837877072752291951e-11
3.529999999999999805e-02 1.912168166862127094e-11
3.545000000000000234e-02 1.988744932623909278e-11
3.559999999999999970e-02 2.067643625758286419e-11
3.574999999999999706e-02 2.148899634624168442e-11
3.590000000000000135e-02 2.232546959801684494e-11
3.604999999999999871e-02 2.318618907981573329e-11
3.620000000000000301e-02 2.407147745020488117e-11
3.635000000000000037e-02 2.498163828579258450e-11
3.649999999999999772e-02 2.591696302012280739e-11
3.665000000000000202e-02 2.687773441312213407e-11
3.679999999999999938e-02 2.786421093858848508e-11
3.694999999999999674e-02 2.887664066197892510e-11
3.710000000000000103e-02 2.991525430151575904e-11
3.724999999999999839e-02 3.098026002401610413e-11
3.740000000000000269e-02 3.207185905740317367e-11
3.755000000000000004e-02 3.319021793513066143e-11
3.769999999999999740e-02 3.433549625175835729e-11
3.785000000000000170e-02 3.550782237682348352e-11
3.799999999999999906e-02 3.670731427152240656e-11
3.815000000000000335e-02 3.793405173313502132e-11
3.830000000000000071e-02 3.918810415060036689e-11
3.844999999999999807e-02 4.046951662672881866e-11
3.860000000000000236e-02 4.177830650875513641e-11
3.874999999999999972e-02 4.311446685778541621e-11
3.889999999999999708e-02 4.447796644879709049e-11
3.905000000000000138e-02 4.586874283174502409e-11
3.919999999999999873e-02 4.728670927045541816e-11
3.935000000000000303e-02 4.873175821207276215e-11
3.950000000000000039e-02 5.020374740927202595e-11
3.964999999999999775e-02 5.170251032859951579e-11
3.980000000000000204e-02 5.322784921157897031e-11
3.994999999999999940e-02 5.477953854415851254e-11
4.009999999999999676e-02 5.635731811781674594e-11
4.025000000000000105e-02 5.796091037679751423e-11
4.039999999999999841e-02 5.958999266253428573e-11
4.055000000000000271e-02 6.124423884701357679e-11
4.070000000000000007e-02 6.292326382162372056e-11
4.084999999999999742e-02 6.462665819162438652e-11
4.100000000000000172e-02 6.635400562338134023e-11
4.114999999999999908e-02 6.810483427210911600e-11
4.130000000000000338e-02 6.987865147634053642e-11
4.145000000000000073e-02 7.167494375792671235e-11
4.159999999999999809e-02 7.349315600535533122e-11
4.175000000000000239e-02 7.533269841264456090e-11
4.189999999999999974e-02 7.719297423491866539e-11
4.204999999999999710e-02 7.907334509393848521e-11
4.220000000000000140e-02 8.097313791699534136e-11
4.234999999999999876e-02 8.289165881469884312e-11
4.250000000000000305e-02 8.482820001987079195e-11
4.265000000000000041e-02 8.678201213196956587e-11
4.279999999999999777e-02 8.875232493377183118e-11
4.295000000000000207e-02 9.073833351358473465e-11
4.309999999999999942e-02 9.273922602082151911e-11
4.324999999999999678e-02 9.475415591042590790e-11
4.340000000000000108e-02 9.678226275955381652e-11
4.354999999999999843e-02 9.882265838978554484e-11
4.370000000000000273e-02 1.008744338060196810e-10
4.385000000000000009e-02 1.029366591964731015e-10
4.399999999999999745e-02 1.050084047493626827e-10
4.415000000000000174e-02 1.070886990195418775e-10
4.429999999999999910e-02 1.091765566840763313e-10
4.445000000000000340e-02 1.112709924200316891e-10
4.460000000000000075e-02 1.133710070266857883e-10
4.474999999999999811e-02 1.154755804866347546e-10
4.490000000000000241e-02 1.175836789046869058e-10
4.504999999999999977e-02 1.196942683856505596e-10
4.519999999999999712e-02 1.218062872787584183e-10
4.535000000000000142e-02 1.239187086277127037e-10
4.549999999999999878e-02 1.260304499650644061e-10
4.565000000000000308e-02 1.281404565789401317e-10
4.580000000000000043e-02 1.302476598796786789e-10
4.594999999999999779e-02 1.323510051554066536e-10
4.610000000000000209e-02 1.344494099386750463e-10
4.624999999999999944e-02 1.365418333953982710e-10
4.639999999999999680e-02 1.386272069359151260e-10
4.655000000000000110e-02 1.407044758483522173e-10
4.669999999999999846e-02 1.427725715430483433e-10
4.685000000000000275e-02 1.448304809414935335e-10
4.700000000000000011e-02 1.468771493318143939e-10
4.714999999999999747e-02 1.489115775132887620e-10
4.730000000000000177e-02 1.509327385296188595e-10
4.744999999999999912e-02 1.529396470578703315e-10
4.760000000000000342e-02 1.549313177751088233e-10
4.775000000000000078e-02 1.569067931139755956e-10
4.789999999999999813e-02 1.588651293848997170e-10
4.805000000000000243e-02 1.608054106538858719e-10
4.819999999999999979e-02 1.627267071091509365e-10
4.834999999999999715e-02 1.646281444500630187e-10
4.850000000000000144e-02 1.665088622537780338e-10
4.864999999999999880e-02 1.683680139752397054e-10
4.880000000000000310e-02 1.702048085805429878e-10
4.895000000000000046e-02 1.720184689135706435e-10