-4.000000000000000083e-02 0.000000000000000000e+00
-3.984999999999999654e-02 0.000000000000000000e+00
-3.969999999999999918e-02 0.000000000000000000e+00
-3.955000000000000182e-02 0.000000000000000000e+00
-3.939999999999999752e-02 0.000000000000000000e+00
-3.925000000000000017e-02 0.000000000000000000e+00
-3.910000000000000281e-02 0.000000000000000000e+00
-3.894999999999999851e-02 0.000000000000000000e+00
-3.880000000000000115e-02 0.000000000000000000e+00
-3.864999999999999686e-02 0.000000000000000000e+00
-3.849999999999999950e-02 0.000000000000000000e+00
-3.835000000000000214e-02 0.000000000000000000e+00
-3.819999999999999785e-02 0.000000000000000000e+00
-3.805000000000000049e-02 0.000000000000000000e+00
-3.790000000000000313e-02 0.000000000000000000e+00
-3.774999999999999883e-02 0.000000000000000000e+00
-3.760000000000000148e-02 0.000000000000000000e+00
-3.744999999999999718e-02 0.000000000000000000e+00
-3.729999999999999982e-02 0.000000000000000000e+00
-3.715000000000000246e-02 0.000000000000000000e+00
-3.699999999999999817e-02 0.000000000000000000e+00
-3.685000000000000081e-02 0.000000000000000000e+00
-3.670000000000000345e-02 0.000000000000000000e+00
-3.654999999999999916e-02 0.000000000000000000e+00
-3.640000000000000180e-02 0.000000000000000000e+00
-3.624999999999999750e-02 0.000000000000000000e+00
-3.610000000000000014e-02 0.000000000000000000e+00
-3.595000000000000279e-02 0.000000000000000000e+00
-3.579999999999999849e-02 0.000000000000000000e+00
-3.565000000000000113e-02 0.000000000000000000e+00
-3.549999999999999684e-02 0.000000000000000000e+00
-3.534999999999999948e-02 0.000000000000000000e+00
-3.520000000000000212e-02 0.000000000000000000e+00
-3.504999999999999782e-02 0.000000000000000000e+00
-3.490000000000000047e-02 0.000000000000000000e+00
-3.475000000000000311e-02 0.000000000000000000e+00
-3.459999999999999881e-02 0.000000000000000000e+00
-3.445000000000000145e-02 0.000000000000000000e+00
-3.429999999999999716e-02 0.000000000000000000e+00
-3.414999999999999980e-02 0.000000000000000000e+00
-3.400000000000000244e-02 0.000000000000000000e+00
-3.384999999999999815e-02 0.000000000000000000e+00
-3.370000000000000079e-02 0.000000000000000000e+00
-3.355000000000000343e-02 0.000000000000000000e+00
-3.339999999999999913e-02 0.000000000000000000e+00
-3.325000000000000178e-02 0.000000000000000000e+00
-3.309999999999999748e-02 0.000000000000000000e+00
-3.295000000000000012e-02 0.000000000000000000e+00
-3.280000000000000276e-02 0.000000000000000000e+00
-3.264999999999999847e-02 0.000000000000000000e+00
-3.250000000000000111e-02 0.000000000000000000e+00
-3.234999999999999681e-02 0.000000000000000000e+00
-3.219999999999999946e-02 0.000000000000000000e+00
-3.205000000000000210e-02 0.000000000000000000e+00
-3.189999999999999780e-02 0.000000000000000000e+00
-3.175000000000000044e-02 0.000000000000000000e+00
-3.160000000000000309e-02 0.000000000000000000e+00
-3.144999999999999879e-02 0.000000000000000000e+00
-3.130000000000000143e-02 0.000000000000000000e+00
-3.115000000000000061e-02 0.000000000000000000e+00
-3.099999999999999978e-02 0.000000000000000000e+00
-3.084999999999999895e-02 0.000000000000000000e+00
-3.070000000000000159e-02 0.000000000000000000e+00
-3.055000000000000077e-02 0.000000000000000000e+00
-3.039999999999999994e-02 0.000000000000000000e+00
-3.024999999999999911e-02 0.000000000000000000e+00
-3.009999999999999828e-02 0.000000000000000000e+00
-2.995000000000000093e-02 0.000000000000000000e+00
-2.980000000000000010e-02 0.000000000000000000e+00
-2.964999999999999927e-02 0.000000000000000000e+00
-2.949999999999999845e-02 0.000000000000000000e+00
-2.935000000000000109e-02 0.000000000000000000e+00
-2.920000000000000026e-02 0.000000000000000000e+00
-2.904999999999999943e-02 0.000000000000000000e+00
-2.889999999999999861e-02 0.000000000000000000e+00
-2.875000000000000125e-02 0.000000000000000000e+00
-2.860000000000000042e-02 0.000000000000000000e+00
-2.844999999999999959e-02 0.000000000000000000e+00
-2.829999999999999877e-02 0.000000000000000000e+00
-2.815000000000000141e-02 0.000000000000000000e+00
-2.800000000000000058e-02 0.000000000000000000e+00
-2.784999999999999976e-02 0.000000000000000000e+00
-2.769999999999999893e-02 0.000000000000000000e+00
-2.755000000000000157e-02 0.000000000000000000e+00
-2.740000000000000074e-02 0.000000000000000000e+00
-2.724999999999999992e-02 0.000000000000000000e+00
-2.709999999999999909e-02 0.000000000000000000e+00
-2.695000000000000173e-02 0.000000000000000000e+00
-2.680000000000000090e-02 0.000000000000000000e+00
-2.665000000000000008e-02 0.000000000000000000e+00
-2.649999999999999925e-02 0.000000000000000000e+00
-2.634999999999999842e-02 0.000000000000000000e+00
-2.620000000000000107e-02 0.000000000000000000e+00
-2.605000000000000024e-02 0.000000000000000000e+00
-2.589999999999999941e-02 0.000000000000000000e+00
-2.574999999999999858e-02 0.000000000000000000e+00
-2.560000000000000123e-02 0.000000000000000000e+00
-2.545000000000000040e-02 0.000000000000000000e+00
-2.529999999999999957e-02 0.000000000000000000e+00
-2.514999999999999875e-02 0.000000000000000000e+00
-2.500000000000000139e-02 0.000000000000000000e+00
-2.485000000000000056e-02 0.000000000000000000e+00
-2.469999999999999973e-02 0.000000000000000000e+00
-2.454999999999999891e-02 0.000000000000000000e+00
-2.440000000000000155e-02 0.000000000000000000e+00
-2.425000000000000072e-02 0.000000000000000000e+00
-2.409999999999999989e-02 0.000000000000000000e+00
-2.394999999999999907e-02 0.000000000000000000e+00
-2.380000000000000171e-02 0.000000000000000000e+00
-2.365000000000000088e-02 0.000000000000000000e+00
-2.350000000000000006e-02 0.000000000000000000e+00
-2.334999999999999923e-02 0.000000000000000000e+00
-2.319999999999999840e-02 0.000000000000000000e+00
-2.305000000000000104e-02 0.000000000000000000e+00
-2.290000000000000022e-02 0.000000000000000000e+00
-2.274999999999999939e-02 0.000000000000000000e+00
-2.259999999999999856e-02 0.000000000000000000e+00
-2.245000000000000120e-02 0.000000000000000000e+00
-2.230000000000000038e-02 0.000000000000000000e+00
-2.214999999999999955e-02 0.000000000000000000e+00
-2.199999999999999872e-02 0.000000000000000000e+00
-2.185000000000000137e-02 0.000000000000000000e+00
-2.170000000000000054e-02 0.000000000000000000e+00
-2.154999999999999971e-02 0.000000000000000000e+00
-2.139999999999999888e-02 0.000000000000000000e+00
-2.125000000000000153e-02 0.000000000000000000e+00
-2.110000000000000070e-02 0.000000000000000000e+00
-2.094999999999999987e-02 0.000000000000000000e+00
-2.079999999999999905e-02 0.000000000000000000e+00
-2.065000000000000169e-02 0.000000000000000000e+00
-2.050000000000000086e-02 0.000000000000000000e+00
-2.035000000000000003e-02 0.000000000000000000e+00
-2.019999999999999921e-02 0.000000000000000000e+00
-2.004999999999999838e-02 0.000000000000000000e+00
-1.990000000000000102e-02 0.000000000000000000e+00
-1.975000000000000019e-02 0.000000000000000000e+00
-1.959999999999999937e-02 0.000000000000000000e+00
-1.944999999999999854e-02 0.000000000000000000e+00
-1.930000000000000118e-02 0.000000000000000000e+00
-1.915000000000000036e-02 0.000000000000000000e+00
-1.899999999999999953e-02 0.000000000000000000e+00
-1.884999999999999870e-02 0.000000000000000000e+00
-1.870000000000000134e-02 0.000000000000000000e+00
-1.855000000000000052e-02 0.000000000000000000e+00
-1.839999999999999969e-02 0.000000000000000000e+00
-1.824999999999999886e-02 0.000000000000000000e+00
-1.810000000000000150e-02 0.000000000000000000e+00
-1.795000000000000068e-02 0.000000000000000000e+00
-1.779999999999999985e-02 0.000000000000000000e+00
-1.764999999999999902e-02 0.000000000000000000e+00
-1.750000000000000167e-02 0.000000000000000000e+00
-1.735000000000000084e-02 0.000000000000000000e+00
-1.720000000000000001e-02 0.000000000000000000e+00
-1.704999999999999918e-02 0.000000000000000000e+00
-1.689999999999999836e-02 0.000000000000000000e+00
-1.675000000000000100e-02 0.000000000000000000e+00
-1.660000000000000017e-02 0.000000000000000000e+00
-1.644999999999999934e-02 0.000000000000000000e+00
-1.629999999999999852e-02 0.000000000000000000e+00
-1.615000000000000116e-02 0.000000000000000000e+00
-1.600000000000000033e-02 0.000000000000000000e+00
-1.584999999999999951e-02 0.000000000000000000e+00
-1.569999999999999868e-02 0.000000000000000000e+00
-1.554999999999999959e-02 0.000000000000000000e+00
-1.540000000000000049e-02 0.000000000000000000e+00
-1.524999999999999967e-02 0.000000000000000000e+00
-1.510000000000000057e-02 0.000000000000000000e+00
-1.494999999999999975e-02 0.000000000000000000e+00
-1.480000000000000066e-02 0.000000000000000000e+00
-1.464999999999999983e-02 0.000000000000000000e+00
-1.450000000000000074e-02 0.000000000000000000e+00
-1.434999999999999991e-02 0.000000000000000000e+00
-1.420000000000000082e-02 0.000000000000000000e+00
-1.404999999999999999e-02 0.000000000000000000e+00
-1.389999999999999916e-02 0.000000000000000000e+00
-1.375000000000000007e-02 0.000000000000000000e+00
-1.359999999999999924e-02 0.000000000000000000e+00
-1.345000000000000015e-02 0.000000000000000000e+00
-1.329999999999999932e-02 0.000000000000000000e+00
-1.315000000000000023e-02 0.000000000000000000e+00
-1.299999999999999940e-02 0.000000000000000000e+00
-1.285000000000000031e-02 0.000000000000000000e+00
-1.269999999999999948e-02 0.000000000000000000e+00
-1.255000000000000039e-02 0.000000000000000000e+00
-1.239999999999999956e-02 0.000000000000000000e+00
-1.225000000000000047e-02 0.000000000000000000e+00
-1.209999999999999964e-02 0.000000000000000000e+00
-1.195000000000000055e-02 0.000000000000000000e+00
-1.179999999999999973e-02 0.000000000000000000e+00
-1.165000000000000063e-02 0.000000000000000000e+00
-1.149999999999999981e-02 0.000000000000000000e+00
-1.135000000000000071e-02 0.000000000000000000e+00
-1.119999999999999989e-02 0.000000000000000000e+00
-1.105000000000000079e-02 0.000000000000000000e+00
-1.089999999999999997e-02 0.000000000000000000e+00
-1.074999999999999914e-02 0.000000000000000000e+00
-1.060000000000000005e-02 0.000000000000000000e+00
-1.044999999999999922e-02 0.000000000000000000e+00
-1.030000000000000013e-02 0.000000000000000000e+00
-1.014999999999999930e-02 0.000000000000000000e+00
-1.000000000000000021e-02 0.000000000000000000e+00
-9.850001000000000589e-03 0.000000000000000000e+00
-9.700001999999999236e-03 0.000000000000000000e+00
-9.550001000000000670e-03 0.000000000000000000e+00
-9.400000999999999843e-03 0.000000000000000000e+00
-9.250002000000000224e-03 0.000000000000000000e+00
-9.100000999999999923e-03 0.000000000000000000e+00
-8.950001000000000831e-03 0.000000000000000000e+00
-8.800001999999999477e-03 0.000000000000000000e+00
-8.650000999999999177e-03 0.000000000000000000e+00
-8.500001999999999558e-03 0.000000000000000000e+00
-8.349999999999999784e-03 0.000000000000000000e+00
-8.200001000000000165e-03 0.000000000000000000e+00
-8.050002000000000546e-03 0.000000000000000000e+00
-7.900000000000000772e-03 0.000000000000000000e+00
-7.750001000000000285e-03 0.000000000000000000e+00
-7.600001999999999799e-03 0.000000000000000000e+00
-7.449998999999999684e-03 0.000000000000000000e+00
-7.300001000000000406e-03 0.000000000000000000e+00
-7.150001999999999920e-03 0.000000000000000000e+00
-7.000003000000000301e-03 0.000000000000000000e+00
-6.850000000000000186e-03 0.000000000000000000e+00
-6.700002000000000041e-03 0.000000000000000000e+00
-6.550003000000000422e-03 0.000000000000000000e+00
-6.400000000000000307e-03 0.000000000000000000e+00
-6.250000999999999821e-03 0.000000000000000000e+00
-6.100002999999999675e-03 0.000000000000000000e+00
-5.950000000000000427e-03 0.000000000000000000e+00
-5.800000999999999941e-03 0.000000000000000000e+00
-5.650002999999999796e-03 0.000000000000000000e+00
-5.499999999999999681e-03 0.000000000000000000e+00
-5.350001000000000062e-03 0.000000000000000000e+00
-5.200001999999999576e-03 0.000000000000000000e+00
-5.049999999999999802e-03 0.000000000000000000e+00
-4.900001000000000183e-03 0.000000000000000000e+00
-4.750001999999999697e-03 0.000000000000000000e+00
-4.599999999999999922e-03 0.000000000000000000e+00
-4.450001000000000304e-03 0.000000000000000000e+00
-4.300001999999999817e-03 0.000000000000000000e+00
-4.149998999999999702e-03 0.000000000000000000e+00
-4.000001000000000424e-03 0.000000000000000000e+00
-3.850001999999999938e-03 0.000000000000000000e+00
-3.699998999999999823e-03 0.000000000000000000e+00
-3.550000000000000204e-03 0.000000000000000000e+00
-3.400002000000000059e-03 0.000000000000000000e+00
-3.250003000000000006e-03 0.000000000000000000e+00
-3.099999999999999891e-03 0.000000000000000000e+00
-2.950002000000000180e-03 0.000000000000000000e+00
-2.800003000000000127e-03 0.000000000000000000e+00
-2.650000000000000012e-03 0.000000000000000000e+00
-2.500000999999999959e-03 0.000000000000000000e+00
-2.350002999999999814e-03 0.000000000000000000e+00
-2.200000000000000133e-03 0.000000000000000000e+00
-2.050001000000000080e-03 0.000000000000000000e+00
-1.900002000000000028e-03 0.000000000000000000e+00
-1.750000000000000036e-03 0.000000000000000000e+00
-1.600000999999999984e-03 0.000000000000000000e+00
-1.450001999999999932e-03 0.000000000000000000e+00
-1.299999999999999940e-03 0.000000000000000000e+00
-1.150001000000000105e-03 0.000000000000000000e+00
-1.000002000000000052e-03 0.000000000000000000e+00
-8.499994999999999990e-04 0.000000000000000000e+00
-7.000007000000000148e-04 -0.000000000000000000e+00
-5.500019000000000305e-04 0.000000000000000000e+00
-3.999992999999999973e-04 0.000000000000000000e+00
-2.500005000000000131e-04 -0.000000000000000000e+00
-1.000017000000000017e-04 1.401298464324817071e-45
5.000085000000000087e-05 8.407790785948902426e-45
1.999996999999999886e-04 -6.165713243029195112e-44
3.499985000000000270e-04 1.597480249330291461e-43
4.999972999999999571e-04 1.284990691785857254e-42
6.499998000000000104e-04 -1.350010940530528766e-41
7.999985999999999946e-04 3.647019383251768909e-41
9.499975000000000129e-04 2.365069509133496508e-40
1.100000000000000066e-03 -2.463422444449062444e-39
1.249998999999999902e-03 5.730024327098251638e-39
1.399997999999999954e-03 4.432463988087400775e-38
1.549999999999999946e-03 -3.805859366779915573e-37
1.699998999999999998e-03 5.396779297219623971e-37
1.849998000000000050e-03 7.824790357745424842e-36
2.000000000000000042e-03 -4.731557616601639001e-35
2.149999000000000094e-03 -4.043096461455504741e-36
2.299998000000000146e-03 1.160634357353466792e-33
2.449999999999999921e-03 -4.172580298084886102e-33
2.599998999999999973e-03 -1.159482427990958645e-32
2.749998000000000026e-03 1.290080364646093272e-31
2.900001000000000141e-03 -1.599152741659492080e-31
3.049998999999999853e-03 -2.135307493522932651e-30
3.199997999999999905e-03 9.025127395782868877e-30
3.350001000000000020e-03 1.660966521169516155e-29
3.500000000000000073e-03 -2.032216962451863383e-28
3.649997999999999784e-03 1.703310859521164591e-28
3.800000999999999900e-03 3.040102565409612247e-27
3.950000000000000386e-03 -8.609670290040899363e-27
4.099999000000000005e-03 -3.169301072019902261e-26
4.249997000000000150e-03 1.789228731159552480e-25
4.400000000000000265e-03 1.897123948875991962e-25
4.549998999999999884e-03 -2.692491526754686402e-24
4.699998000000000370e-03 6.444413289852263243e-25
4.850000000000000144e-03 3.311276781823216336e-23
4.999998999999999763e-03 -3.662002762562667742e-23
5.149998000000000249e-03 -3.532577698613294473e-22
5.300000000000000024e-03 6.109760275114903956e-22
5.449998999999999642e-03 3.416490997771985675e-21
5.599998000000000128e-03 -7.198623291273685757e-21
5.749999999999999903e-03 -3.103925778358478967e-20
5.899999000000000389e-03 6.694941384062783179e-20
6.049998000000000008e-03 2.698625566653851071e-19
6.200001000000000123e-03 -4.931106423800514536e-19
6.349999000000000268e-03 -2.220292971206154018e-18
6.499997999999999887e-03 2.623652087281152594e-18
6.650001000000000002e-03 1.653290687957289221e-17
6.799999999999999621e-03 -5.913290860376205530e-18
6.949997999999999766e-03 -1.032768677566998211e-16
7.100000999999999882e-03 -5.782169829268994816e-17
7.250000000000000368e-03 4.758502983941387092e-16
7.399998999999999987e-03 7.961802125351451469e-16
7.550000999999999761e-03 -1.121367013595707743e-15
7.700000000000000247e-03 -4.633062698408945551e-15
7.849998999999999866e-03 -2.541600285267675563e-15
7.999997999999999485e-03 1.098635529203422986e-14
8.149999999999999259e-03 2.541406145316164877e-14
8.299999000000000612e-03 1.817622759931174919e-14
8.449998000000000231e-03 -2.055600732220417420e-14
8.600000000000000006e-03 -8.333671887338425788e-14
8.749998999999999624e-03 -1.687987992654918501e-13
8.899997999999999243e-03 -2.850999872381493327e-13
9.050000000000000752e-03 -4.305117189389723320e-13
9.199999000000000371e-03 -5.995455867879861955e-13
9.349997999999999990e-03 -7.989418588510988073e-13
9.500000999999999238e-03 -1.033256162921714072e-12
9.649998999999999383e-03 -1.298212622471983657e-12
9.799998000000000736e-03 -1.598660656979000727e-12
9.950000999999999984e-03 -1.942094055018550591e-12
1.009999999999999960e-02 -2.326332052340895906e-12
1.025000000000000043e-02 -2.755557934608354742e-12
1.039999999999999952e-02 -3.238743041117375654e-12
1.055000000000000035e-02 -3.775666411465206096e-12
1.069999999999999944e-02 -4.371178332490677221e-12
1.085000000000000027e-02 -5.035352777099655341e-12
1.099999999999999936e-02 -5.769686377971039448e-12
1.115000000000000019e-02 -6.580795370442205083e-12
1.129999999999999928e-02 -7.479861348358429751e-12
1.145000000000000011e-02 -8.470101356405912441e-12
1.159999999999999920e-02 -9.560839099587159495e-12
1.175000000000000003e-02 -1.076442667641286377e-11
1.190000000000000085e-02 -1.208620530046555785e-11
1.204999999999999995e-02 -1.353902406853180196e-11
1.220000000000000077e-02 -1.513646326334328052e-11
1.234999999999999987e-02 -1.688687037426639392e-11
1.250000000000000069e-02 -1.880722660940747915e-11
1.264999999999999979e-02 -2.091252518376940372e-11
1.280000000000000061e-02 -2.321547294681369777e-11
1.294999999999999971e-02 -2.573746250844610728e-11
1.310000000000000053e-02 -2.849548895456077702e-11
1.324999999999999963e-02 -3.150826474729306881e-11
1.340000000000000045e-02 -3.480151583579171870e-11
1.354999999999999954e-02 -3.839558879170645866e-11
1.370000000000000037e-02 -4.231674732846357756e-11
1.384999999999999946e-02 -4.659489113989501163e-11
1.400000000000000029e-02 -5.125599250588308564e-11
1.414999999999999938e-02 -5.633484997935589433e-11
1.430000000000000021e-02 -6.186588741297072147e-11
1.444999999999999930e-02 -6.788364315113426528e-11
1.460000000000000013e-02 -7.443167610032830339e-11
1.474999999999999922e-02 -8.155050940095165402e-11
1.490000000000000005e-02 -8.928617567516283771e-11
1.504999999999999914e-02 -9.769082764954362119e-11
1.519999999999999997e-02 -1.068142796434301545e-10
1.535000000000000080e-02 -1.167160118553667303e-10
1.549999999999999989e-02 -1.274573363518882729e-10
1.565000000000000072e-02 -1.391016329899130710e-10
1.580000000000000154e-02 -1.517226067004884271e-10
1.594999999999999890e-02 -1.653931852585444062e-10
1.609999999999999973e-02 -1.801943733115152213e-10
1.625000000000000056e-02 -1.962144197120707645e-10
1.640000000000000138e-02 -2.135424892468762437e-10
1.654999999999999874e-02 -2.322799175225043200e-10
1.669999999999999957e-02 -2.525311626477844129e-10
1.685000000000000039e-02 -2.744073579474815006e-10
1.700000000000000122e-02 -2.980313218436947409e-10
1.714999999999999858e-02 -3.235281487157237734e-10
1.729999999999999941e-02 -3.510357560188026582e-10
1.745000000000000023e-02 -3.806999715472159096e-10
1.760000000000000106e-02 -4.126731456555177147e-10
1.774999999999999842e-02 -4.471228942648508564e-10
1.789999999999999925e-02 -4.842221068557250874e-10
1.805000000000000007e-02 -5.241572176295505869e-10
1.820000000000000090e-02 -5.671274561080963394e-10
1.835000000000000173e-02 -6.133401564412110929e-10
1.849999999999999908e-02 -6.630205828805912915e-10
1.864999999999999991e-02 -7.164037141293988498e-10
1.880000000000000074e-02 -7.737395169016281216e-10
1.895000000000000157e-02 -8.352954994350625384e-10
1.909999999999999892e-02 -9.013498281085219332e-10
1.924999999999999975e-02 -9.722019855828989421e-10
1.940000000000000058e-02 -1.048165887418406328e-09
1.955000000000000140e-02 -1.129572768654441006e-09
1.969999999999999876e-02 -1.216776235324346089e-09
1.984999999999999959e-02 -1.310144548405389742e-09
2.000000000000000042e-02 -1.410070615825986806e-09
2.015000000000000124e-02 -1.516966885439785528e-09
2.029999999999999860e-02 -1.631267010360204495e-09
2.044999999999999943e-02 -1.753431400075555757e-09
2.060000000000000026e-02 -1.883939892977082309e-09
2.075000000000000108e-02 -2.023301526321574784e-09
2.089999999999999844e-02 -2.172049873294668032e-09
2.104999999999999927e-02 -2.330744042211563283e-09
2.120000000000000009e-02 -2.499975337855175894e-09
2.135000000000000092e-02 -2.680359267870358053e-09
2.149999999999999828e-02 -2.872545534771120401e-09
2.164999999999999911e-02 -3.077214039137743384e-09
2.179999999999999993e-02 -3.295074435527567402e-09
2.195000000000000076e-02 -3.526874570169979961e-09
2.210000000000000159e-02 -3.773392265316033445e-09
2.224999999999999895e-02 -4.035443534888827344e-09
2.239999999999999977e-02 -4.313880364037459003e-09
2.255000000000000060e-02 -4.609590931181628548e-09
2.270000000000000143e-02 -4.923506047305181710e-09
2.284999999999999878e-02 -5.256591162350332525e-09
2.299999999999999961e-02 -5.609855691091070184e-09
2.315000000000000044e-02 -5.984351236776319638e-09
2.330000000000000127e-02 -6.381169370683892339e-09
2.344999999999999862e-02 -6.801449181637053698e-09
2.359999999999999945e-02 -7.246369726487955631e-09
2.375000000000000028e-02 -7.717159355991043412e-09
2.390000000000000110e-02 -8.215091718000167020e-09
2.404999999999999846e-02 -8.741484869290161441e-09
2.419999999999999929e-02 -9.297711045519463369e-09
2.435000000000000012e-02 -9.885183338553815702e-09
2.450000000000000094e-02 -1.050536813096414335e-08
2.464999999999999830e-02 -1.115978243149129412e-08
2.479999999999999913e-02 -1.184998854597552054e-08
2.494999999999999996e-02 -1.257760473549751623e-08
2.510000000000000078e-02 -1.334429633459421893e-08
2.525000000000000161e-02 -1.415178196850774839e-08
2.539999999999999897e-02 -1.500182911229330784e-08
2.554999999999999979e-02 -1.589625675535444316e-08
2.570000000000000062e-02 -1.683693540144304279e-08
2.585000000000000145e-02 -1.782578351594565902e-08
2.599999999999999881e-02 -1.886477640766770492e-08
2.614999999999999963e-02 -1.995592846526506037e-08
2.630000000000000046e-02 -2.110131092081246607e-08
2.645000000000000129e-02 -2.230304296801932651e-08
2.659999999999999865e-02 -2.356328643315919180e-08
2.674999999999999947e-02 -2.488425288049711526e-08
2.690000000000000030e-02 -2.626819295414861699e-08
2.705000000000000113e-02 -2.771740348350704153e-08
2.719999999999999848e-02 -2.923422748324355780e-08
2.734999999999999931e-02 -3.082103816609560454e-08
2.750000000000000014e-02 -3.248025493007844489e-08
2.765000000000000097e-02 -3.421432381855993299e-08
2.779999999999999832e-02 -3.602572462568787159e-08
2.794999999999999915e-02 -3.791697622546053026e-08
2.809999999999999998e-02 -3.989060815001721494e-08
2.825000000000000080e-02 -4.194918545863401960e-08
2.840000000000000163e-02 -4.409529097415543220e-08
2.854999999999999899e-02 -4.633151817756697710e-08
2.869999999999999982e-02 -4.866047831342257268e-08
2.885000000000000064e-02 -5.108479328441717371e-08
2.900000000000000147e-02 -5.360708144053205615e-08
2.914999999999999883e-02 -5.622996468446217477e-08
2.929999999999999966e-02 -5.895605426076144795e-08
2.945000000000000048e-02 -6.178795786127011525e-08
2.960000000000000131e-02 -6.472826896697370103e-08
2.974999999999999867e-02 -6.777954553172094165e-08
2.989999999999999949e-02 -7.094432419307850068e-08
3.005000000000000032e-02 -7.422512027233096887e-08
3.020000000000000115e-02 -7.762438514191671857e-08
3.034999999999999851e-02 -8.114454175256469171e-08
3.049999999999999933e-02 -8.478795621158496942e-08
3.065000000000000016e-02 -8.855692357201405684e-08
3.080000000000000099e-02 -9.245368204346959828e-08
3.094999999999999835e-02 -9.648039878129566205e-08
3.109999999999999917e-02 -1.006391414648533100e-07
3.125000000000000000e-02 -1.049318996138026705e-07
3.139999999999999736e-02 -1.093605490609661501e-07
3.155000000000000165e-02 -1.139268945848925796e-07
3.169999999999999901e-02 -1.186325775393015647e-07
3.185000000000000331e-02 -1.234791398019297048e-07
3.200000000000000067e-02 -1.284680166691032355e-07
3.214999999999999802e-02 -1.336004658014644519e-07
3.230000000000000232e-02 -1.388775956456811400e-07
3.244999999999999968e-02 -1.443003867507286486e-07
3.259999999999999704e-02 -1.498696207136163139e-07
3.275000000000000133e-02 -1.555859228119516047e-07
3.289999999999999869e-02 -1.614497477930854075e-07
3.305000000000000299e-02 -1.674613088198384503e-07
3.320000000000000034e-02 -1.736206627356295940e-07
3.334999999999999770e-02 -1.799276390102022560e-07
3.350000000000000200e-02 -1.863818539504791261e-07
3.364999999999999936e-02 -1.929826964897074504e-07
3.379999999999999671e-02 -1.997293281874590321e-07
3.395000000000000101e-02 -2.066206690187755157e-07
3.409999999999999837e-02 -2.136553689524589572e-07
3.425000000000000266e-02 -2.208318079510718235e-07
3.440000000000000002e-02 -2.281481528143558535e-07
3.454999999999999738e-02 -2.356022434923943365e-07
3.470000000000000168e-02 -2.431917209833045490e-07
3.484999999999999903e-02 -2.509138141704170266e-07
3.500000000000000333e-02 -2.587655956176604377e-07
3.515000000000000069e-02 -2.667437968284502858e-07
3.529999999999999805e-02 -2.748447798239794793e-07
3.545000000000000234e-02 -2.830647360951843439e-07
3.559999999999999970e-02 -2.913994023856503190e-07
3.574999999999999706e-02 -2.998443164869968314e-07
3.590000000000000135e-02 -3.083946751303301426e-07
3.604999999999999871e-02 -3.170453055645339191e-07
3.620000000000000301e-02 -3.257908076648163842e-07
3.635000000000000037e-02 -3.346253834024537355e-07
3.649999999999999772e-02 -3.435429505316278664e-07
3.665000000000000202e-02 -3.525371425894263666e-07
3.679999999999999938e-02 -3.616011667872953694e-07
3.694999999999999674e-02 -3.707280598064244259e-07
3.710000000000000103e-02 -3.799104888457804918e-07
3.724999999999999839e-02 -3.891407800438173581e-07
3.740000000000000269e-02 -3.984110037436039420e-07
3.755000000000000004e-02 -4.077129176494054263e-07
3.769999999999999740e-02 -4.170379668266832596e-07
3.785000000000000170e-02 -4.263773405455140164e-07
3.799999999999999906e-02 -4.357219438588799676e-07
3.815000000000000335e-02 -4.450623976026690798e-07
3.830000000000000071e-02 -4.543891236608033068e-07
3.844999999999999807e-02 -4.636922312784008682e-07
3.860000000000000236e-02 -4.729616307486139704e-07
3.874999999999999972e-02 -4.821869765692099463e-07
3.889999999999999708e-02 -4.913577527076995466e-07
3.905000000000000138e-02 -5.004632157579180785e-07
3.919999999999999873e-02 -5.094925086268631276e-07
3.935000000000000303e-02 -5.184344900044379756e-07
3.950000000000000039e-02 -5.272779617371270433e-07
3.964999999999999775e-02 -5.360114982977393083e-07
3.980000000000000204e-02 -5.446236173156648874e-07
3.994999999999999940e-02 -5.531027795768750366e-07
4.009999999999999676e-02 -5.614373321805032901e-07
4.025000000000000105e-02 -5.696155085388454609e-07
4.039999999999999841e-02 -5.776255420641973615e-07
4.055000000000000271e-02 -5.854556661688548047e-07
4.070000000000000007e-02 -5.930941142651136033e-07
4.084999999999999742e-02 -6.005290060784318484e-07
4.100000000000000172e-02 -6.077487455513619352e-07
4.114999999999999908e-02 -6.147416229396185372e-07
4.130000000000000338e-02 -6.214960990291729104e-07
4.145000000000000073e-02 -6.280007482928340323e-07
4.159999999999999809e-02 -6.342441452034108806e-07
4.175000000000000239e-02 -6.402152052942255978e-07
4.189999999999999974e-02 -6.459029577854380477e-07
4.204999999999999710e-02 -6.512966024274646770e-07
4.220000000000000140e-02 -6.563855095009785146e-07
4.234999999999999876e-02 -6.611594471905846149e-07
4.250000000000000305e-02 -6.656084110545634758e-07
4.265000000000000041e-02 -6.697227377117087599e-07
4.279999999999999777e-02 -6.734928774676518515e-07
4.295000000000000207e-02 -6.769097922187938821e-07
4.309999999999999942e-02 -6.799648417654680088e-07
4.324999999999999678e-02 -6.826496701251016930e-07
4.340000000000000108e-02 -6.849563192190544214e-07
4.354999999999999843e-02 -6.868772857160365675e-07
4.370000000000000273e-02 -6.884055210321093909e-07
4.385000000000000009e-02 -6.895344881741038989e-07
4.399999999999999745e-02 -6.902579912093642633e-07
4.415000000000000174e-02 -6.905705163262609858e-07
4.429999999999999910e-02 -6.904668907736777328e-07
4.445000000000000340e-02 -6.899425102346867789e-07
4.460000000000000075e-02 -6.889933956699678674e-07
4.474999999999999811e-02 -6.876160227875516284e-07
4.490000000000000241e-02 -6.858074925730761606e-07
4.504999999999999977e-02 -6.835654744463681709e-07
4.519999999999999712e-02 -6.808882062614429742e-07
4.535000000000000142e-02 -6.777746079933422152e-07
4.549999999999999878e-02 -6.742240543644584250e-07
4.565000000000000308e-02 -6.702366590616293252e-07
4.580000000000000043e-02 -6.658131610493001062e-07
4.594999999999999779e-02 -6.609547540392668452e-07
4.610000000000000209e-02 -6.556633707077708095e-07
4.624999999999999944e-02 -6.499415690086607356e-07
4.639999999999999680e-02 -6.437925890168116894e-07
4.655000000000000110e-02 -6.372201255544496235e-07
4.669999999999999846e-02 -6.302285555648268200e-07
4.685000000000000275e-02 -6.228229949556407519e-07
4.700000000000000011e-02 -6.150089575385209173e-07
4.714999999999999747e-02 -6.067926960895420052e-07
4.730000000000000177e-02 -5.981809749755484518e-07
4.744999999999999912e-02 -5.891811838409921620e-07
4.760000000000000342e-02 -5.798012239210947882e-07
4.775000000000000078e-02 -5.700496217286854517e-07
4.789999999999999813e-02 -5.599354722107818816e-07
4.805000000000000243e-02 -5.494682113749149721e-07