-4.000000000000000083e-02 0.000000000000000000e+00
-3.984999999999999654e-02 0.000000000000000000e+00
-3.969999999999999918e-02 0.000000000000000000e+00
-3.955000000000000182e-02 0.000000000000000000e+00
-3.939999999999999752e-02 0.000000000000000000e+00
-3.925000000000000017e-02 0.000000000000000000e+00
-3.910000000000000281e-02 0.000000000000000000e+00
-3.894999999999999851e-02 0.000000000000000000e+00
-3.880000000000000115e-02 0.000000000000000000e+00
-3.864999999999999686e-02 0.000000000000000000e+00
-3.849999999999999950e-02 0.000000000000000000e+00
-3.835000000000000214e-02 0.000000000000000000e+00
-3.819999999999999785e-02 0.000000000000000000e+00
-3.805000000000000049e-02 0.000000000000000000e+00
-3.790000000000000313e-02 0.000000000000000000e+00
-3.774999999999999883e-02 0.000000000000000000e+00
-3.760000000000000148e-02 0.000000000000000000e+00
-3.744999999999999718e-02 0.000000000000000000e+00
-3.729999999999999982e-02 0.000000000000000000e+00
-3.715000000000000246e-02 0.000000000000000000e+00
-3.699999999999999817e-02 0.000000000000000000e+00
-3.685000000000000081e-02 0.000000000000000000e+00
-3.670000000000000345e-02 0.000000000000000000e+00
-3.654999999999999916e-02 0.000000000000000000e+00
-3.640000000000000180e-02 0.000000000000000000e+00
-3.624999999999999750e-02 0.000000000000000000e+00
-3.610000000000000014e-02 0.000000000000000000e+00
-3.595000000000000279e-02 0.000000000000000000e+00
-3.579999999999999849e-02 0.000000000000000000e+00
-3.565000000000000113e-02 0.000000000000000000e+00
-3.549999999999999684e-02 0.000000000000000000e+00
-3.534999999999999948e-02 0.000000000000000000e+00
-3.520000000000000212e-02 0.000000000000000000e+00
-3.504999999999999782e-02 0.000000000000000000e+00
-3.490000000000000047e-02 0.000000000000000000e+00
-3.475000000000000311e-02 0.000000000000000000e+00
-3.459999999999999881e-02 0.000000000000000000e+00
-3.445000000000000145e-02 0.000000000000000000e+00
-3.429999999999999716e-02 0.000000000000000000e+00
-3.414999999999999980e-02 0.000000000000000000e+00
-3.400000000000000244e-02 0.000000000000000000e+00
-3.384999999999999815e-02 0.000000000000000000e+00
-3.370000000000000079e-02 0.000000000000000000e+00
-3.355000000000000343e-02 0.000000000000000000e+00
-3.339999999999999913e-02 -0.000000000000000000e+00
-3.325000000000000178e-02 0.000000000000000000e+00
-3.309999999999999748e-02 7.006492321624085355e-45
-3.295000000000000012e-02 -1.064986832886860974e-43
-3.280000000000000276e-02 2.270103512206203655e-43
-3.264999999999999847e-02 9.468573723442788948e-42
-3.250000000000000111e-02 -9.821700936452642850e-41
-3.234999999999999681e-02 -1.432673536941049725e-40
-3.219999999999999946e-02 8.802263310148660055e-39
-3.205000000000000210e-02 -3.740628923265595339e-38
-3.189999999999999780e-02 -4.120740772647136524e-37
-3.175000000000000044e-02 3.967516206849884842e-36
-3.160000000000000309e-02 9.300759690024453580e-36
-3.144999999999999879e-02 -2.312044711555076868e-34
-3.130000000000000143e-02 1.201194055244620559e-34
-3.115000000000000061e-02 9.814414658682395680e-33
-3.099999999999999978e-02 -1.974859896740213571e-32
-3.084999999999999895e-02 -3.400404935671677748e-31
-3.070000000000000159e-02 9.287060827146089820e-31
-3.055000000000000077e-02 1.031002434755935022e-29
-3.039999999999999994e-02 -2.790483808467865564e-29
-3.024999999999999911e-02 -2.824236874264156352e-28
-3.009999999999999828e-02 5.551669768768604875e-28
-2.995000000000000093e-02 6.884480794129122858e-27
-2.980000000000000010e-02 -4.964768136788357880e-27
-2.964999999999999927e-02 -1.406273862789199925e-25
-2.949999999999999845e-02 -1.110001495874860962e-25
-2.935000000000000109e-02 2.159680671872121050e-24
-2.920000000000000026e-02 5.622075593004000513e-24
-2.904999999999999943e-02 -1.925383539881234519e-23
-2.889999999999999861e-02 -1.144448099293924758e-22
-2.875000000000000125e-02 -3.694782457529497490e-23
-2.860000000000000042e-02 1.151949371330784117e-21
-2.844999999999999959e-02 3.382412408614829702e-21
-2.829999999999999877e-02 -1.060250261198172207e-21
-2.815000000000000141e-02 -3.075634585822031528e-20
-2.800000000000000058e-02 -8.537953426323774074e-20
-2.784999999999999976e-02 -6.470719215628653216e-20
-2.769999999999999893e-02 3.021029808647991943e-19
-2.755000000000000157e-02 1.402572513126165613e-18
-2.740000000000000074e-02 3.578860199527534542e-18
-2.724999999999999992e-02 7.063977674595659564e-18
-2.709999999999999909e-02 1.210592805823708148e-17
-2.695000000000000173e-02 1.905305158205859993e-17
-2.680000000000000090e-02 2.825705551635041164e-17
-2.665000000000000008e-02 4.002467580304004289e-17
-2.649999999999999925e-02 5.472797662729262042e-17
-2.634999999999999842e-02 7.281784752356589919e-17
-2.620000000000000107e-02 9.472679145566180545e-17
-2.605000000000000024e-02 1.209161634471481151e-16
-2.589999999999999941e-02 1.519480889725362640e-16
-2.574999999999999858e-02 1.884063193162722745e-16
-2.560000000000000123e-02 2.308967609683287891e-16
-2.545000000000000040e-02 2.801331450658859626e-16
-2.529999999999999957e-02 3.368823937682335597e-16
-2.514999999999999875e-02 4.019456943643557418e-16
-2.500000000000000139e-02 4.762428452256318740e-16
-2.485000000000000056e-02 5.607709100100986745e-16
-2.469999999999999973e-02 6.565843123881897388e-16
-2.454999999999999891e-02 7.648747747771326641e-16
-2.440000000000000155e-02 8.869329106907469871e-16
-2.425000000000000072e-02 1.024138325041873149e-15
-2.409999999999999989e-02 1.178034894195559724e-15
-2.394999999999999907e-02 1.350288255503023088e-15
-2.380000000000000171e-02 1.542695177603626427e-15
-2.365000000000000088e-02 1.757249046659614330e-15
-2.350000000000000006e-02 1.996093914818724245e-15
-2.334999999999999923e-02 2.261559334444142311e-15
-2.319999999999999840e-02 2.556207791959549600e-15
-2.305000000000000104e-02 2.882794050267653910e-15
-2.290000000000000022e-02 3.244322958748839872e-15
-2.274999999999999939e-02 3.644074652491349764e-15
-2.259999999999999856e-02 4.085579141302865883e-15
-2.245000000000000120e-02 4.572692542675763430e-15
-2.230000000000000038e-02 5.109596658270636887e-15
-2.214999999999999955e-02 5.700804479630457167e-15
-2.199999999999999872e-02 6.351237268178771753e-15
-2.185000000000000137e-02 7.066205920494865109e-15
-2.170000000000000054e-02 7.851460943257646680e-15
-2.154999999999999971e-02 8.713247510387222422e-15
-2.139999999999999888e-02 9.658293181067159616e-15
-2.125000000000000153e-02 1.069389429710510681e-14
-2.110000000000000070e-02 1.182793758227294878e-14
-2.094999999999999987e-02 1.306892301219638244e-14
-2.079999999999999905e-02 1.442605868204500930e-14
-2.065000000000000169e-02 1.590926250059822994e-14
-2.050000000000000086e-02 1.752924011727639148e-14
-2.035000000000000003e-02 1.929755014367772609e-14
-2.019999999999999921e-02 2.122662702346792690e-14
-2.004999999999999838e-02 2.332989114666329106e-14
-1.990000000000000102e-02 2.562178950721218790e-14
-1.975000000000000019e-02 2.811786346563083933e-14
-1.959999999999999937e-02 3.083485208702288483e-14
-1.944999999999999854e-02 3.379073957492442770e-14
-1.930000000000000118e-02 3.700487385591665068e-14
-1.915000000000000036e-02 4.049803773039338528e-14
-1.899999999999999953e-02 4.429253865805352075e-14
-1.884999999999999870e-02 4.841234428317256477e-14
-1.870000000000000134e-02 5.288315697350200184e-14
-1.855000000000000052e-02 5.773253918114548688e-14
-1.839999999999999969e-02 6.299005913222577302e-14
-1.824999999999999886e-02 6.868735858952049189e-14
-1.810000000000000150e-02 7.485837308102843979e-14
-1.795000000000000068e-02 8.153938272194641290e-14
-1.779999999999999985e-02 8.876922905510370443e-14
-1.764999999999999902e-02 9.658945057623366526e-14
-1.750000000000000167e-02 1.050444318117724207e-13
-1.735000000000000084e-02 1.141816269355569458e-13
-1.720000000000000001e-02 1.240516749653058914e-13
-1.704999999999999918e-02 1.347086504843719723e-13
-1.689999999999999836e-02 1.462102737059128854e-13
-1.675000000000000100e-02 1.586180188931085588e-13
-1.660000000000000017e-02 1.719974802773943656e-13
-1.644999999999999934e-02 1.864184804786783722e-13
-1.629999999999999852e-02 2.019554093185202404e-13
-1.615000000000000116e-02 2.186873728979299436e-13
-1.600000000000000033e-02 2.366986001731824496e-13
-1.584999999999999951e-02 2.560787411114151535e-13
-1.569999999999999868e-02 2.769232055038067797e-13
-1.554999999999999959e-02 2.993336101989735321e-13
-1.540000000000000049e-02 3.234181043636208397e-13
-1.524999999999999967e-02 3.492915321128692296e-13
-1.510000000000000057e-02 3.770744838333534021e-13
-1.494999999999999975e-02 4.068918325102893752e-13
-1.480000000000000066e-02 4.388699961169889585e-13
-1.464999999999999983e-02 4.731347150004061586e-13
-1.450000000000000074e-02 5.098128950248304037e-13
-1.434999999999999991e-02 5.490449674766528787e-13
-1.420000000000000082e-02 5.910162767172599807e-13
-1.404999999999999999e-02 6.360126726494275129e-13
-1.389999999999999916e-02 6.844941280448324505e-13
-1.375000000000000007e-02 7.371491654931117132e-13
-1.359999999999999924e-02 7.948488872297487795e-13
-1.345000000000000015e-02 8.583658415127481955e-13
-1.329999999999999932e-02 9.276988899298288516e-13
-1.315000000000000023e-02 1.000907039541698573e-12
-1.299999999999999940e-02 1.072593077723615895e-12
-1.285000000000000031e-02 1.132656793877140355e-12
-1.269999999999999948e-02 1.166664963421493173e-12
-1.255000000000000039e-02 1.159976086538561102e-12
-1.239999999999999956e-02 1.108178978269369619e-12
-1.225000000000000047e-02 1.035687919974381810e-12
-1.209999999999999964e-02 1.021545803676915387e-12
-1.195000000000000055e-02 1.225835839085975820e-12
-1.179999999999999973e-02 1.901620787919666711e-12
-1.165000000000000063e-02 3.367682651841952257e-12
-1.149999999999999981e-02 5.910524240176906474e-12
-1.135000000000000071e-02 9.586548568862873765e-12
-1.119999999999999989e-02 1.391473394840581079e-11
-1.105000000000000079e-02 1.749273469131562564e-11
-1.089999999999999997e-02 1.763551110700589675e-11
-1.074999999999999914e-02 1.021534506290278088e-11
-1.060000000000000005e-02 -1.004837966306348918e-11
-1.044999999999999922e-02 -4.857817620385063151e-11
-1.030000000000000013e-02 -1.089987752833643242e-10
-1.014999999999999930e-02 -1.902425716959754709e-10
-1.000000000000000021e-02 -2.829718404040448831e-10
-9.850001000000000589e-03 -3.659552938461985150e-10
-9.700001999999999236e-03 -4.033689215976465903e-10
-9.550001000000000670e-03 -3.441439633267151521e-10
-9.400000999999999843e-03 -1.243248975990596250e-10
-9.250002000000000224e-03 3.271587722952773447e-10
-9.100000999999999923e-03 1.079817013582839991e-09
-8.950001000000000831e-03 2.191601344847526889e-09
-8.800001999999999477e-03 3.700055373201394104e-09
-8.650000999999999177e-03 5.617401654944842448e-09
-8.500001999999999558e-03 7.931806322858392377e-09
-8.349999999999999784e-03 1.061559729009786679e-08
-8.200001000000000165e-03 1.363910406837476330e-08
-8.050002000000000546e-03 1.698672313921179011e-08
-7.900000000000000772e-03 2.067046800391381112e-08
-7.750001000000000285e-03 2.473649551859580242e-08
-7.600001999999999799e-03 2.926193332086768351e-08
-7.449998999999999684e-03 3.434253059708680667e-08
-7.300001000000000406e-03 4.007505083336582175e-08
-7.150001999999999920e-03 4.654068064269267779e-08
-7.000003000000000301e-03 5.379586553999615717e-08
-6.850000000000000186e-03 6.187454459904984105e-08
-6.700002000000000041e-03 7.080146247062657494e-08
-6.550003000000000422e-03 8.061175549300969578e-08
-6.400000000000000307e-03 9.136894618677615654e-08
-6.250000999999999821e-03 1.031740382018142554e-07
-6.100002999999999675e-03 1.161617149136873195e-07
-5.950000000000000427e-03 1.304852759176355903e-07
-5.800000999999999941e-03 1.462972818444541190e-07
-5.650002999999999796e-03 1.637347395444521680e-07
-5.499999999999999681e-03 1.829163522870658198e-07
-5.350001000000000062e-03 2.039534336972792516e-07
-5.200001999999999576e-03 2.269701298018844682e-07
-5.049999999999999802e-03 2.521232715935184387e-07
-4.900001000000000183e-03 2.796128910631523468e-07
-4.750001999999999697e-03 3.096784553235920612e-07
-4.599999999999999922e-03 3.425832062475819839e-07
-4.450001000000000304e-03 3.785949900247942423e-07
-4.300001999999999817e-03 4.179745189958339324e-07
-4.149998999999999702e-03 4.609774748587369686e-07
-4.000001000000000424e-03 5.078703679828322493e-07
-3.850001999999999938e-03 5.589526494986785110e-07
-3.699998999999999823e-03 6.145735369500471279e-07
-3.550000000000000204e-03 6.751357659595669247e-07
-3.400002000000000059e-03 7.410848184008500539e-07
-3.250003000000000006e-03 8.128910735649697017e-07
-3.099999999999999891e-03 8.910354267754883040e-07
-2.950002000000000180e-03 9.760086641108500771e-07
-2.800003000000000127e-03 1.068325445885420777e-06
-2.650000000000000012e-03 1.168546418739424553e-06
-2.500000999999999959e-03 1.277297542401356623e-06
-2.350002999999999814e-03 1.395275376125937328e-06
-2.200000000000000133e-03 1.523239234302309342e-06
-2.050001000000000080e-03 1.661994588175730314e-06
-1.900002000000000028e-03 1.812381128729612101e-06
-1.750000000000000036e-03 1.975273107746033929e-06
-1.600000999999999984e-03 2.151595708710374311e-06
-1.450001999999999932e-03 2.342348125239368528e-06
-1.299999999999999940e-03 2.548622660469845869e-06
-1.150001000000000105e-03 2.771608251350698993e-06
-1.000002000000000052e-03 3.012582283190567978e-06
-8.499994999999999990e-04 3.272896265116287395e-06
-7.000007000000000148e-04 3.553966962499544024e-06
-5.500019000000000305e-04 3.857286174024920911e-06
-3.999992999999999973e-04 4.184439603704959154e-06
-2.500005000000000131e-04 4.537131644610781223e-06
-1.000017000000000017e-04 4.917197657050564885e-06
5.000085000000000087e-05 5.326606697053648531e-06
1.999996999999999886e-04 5.767454240412916988e-06
3.499985000000000270e-04 6.241950359253678471e-06
4.999972999999999571e-04 6.752418357791611925e-06
6.499998000000000104e-04 7.301310688490048051e-06
7.999985999999999946e-04 7.891234417911618948e-06
9.499975000000000129e-04 8.524974873580504209e-06
1.100000000000000066e-03 9.205509741150308400e-06
1.249998999999999902e-03 9.935996786225587130e-06
1.399997999999999954e-03 1.071976294042542577e-05
1.549999999999999946e-03 1.156030612037284300e-05
1.699998999999999998e-03 1.246131523657822981e-05
1.849998000000000050e-03 1.342669111181749031e-05
2.000000000000000042e-03 1.446056649001548067e-05
2.149999000000000094e-03 1.556731513119302690e-05
2.299998000000000146e-03 1.675156090641394258e-05
2.449999999999999921e-03 1.801818143576383591e-05
2.599998999999999973e-03 1.937231536430772394e-05
2.749998000000000026e-03 2.081934144371189177e-05
2.900001000000000141e-03 2.236490399809554219e-05
3.049998999999999853e-03 2.401494020887184888e-05
3.199997999999999905e-03 2.577573468443006277e-05
3.350001000000000020e-03 2.765392673609312624e-05
3.500000000000000073e-03 2.965647217934019864e-05
3.649997999999999784e-03 3.179061604896560311e-05
3.800000999999999900e-03 3.406392715987749398e-05
3.950000000000000386e-03 3.648437268566340208e-05
4.099999000000000005e-03 3.906035271938890219e-05
4.249997000000000150e-03 4.180064206593669951e-05
4.400000000000000265e-03 4.471436841413378716e-05
4.549998999999999884e-03 4.781105599249713123e-05
4.699998000000000370e-03 5.110071288072504103e-05
4.850000000000000144e-03 5.459386011352762580e-05
4.999998999999999763e-03 5.830140798934735358e-05
5.149998000000000249e-03 6.223461241461336613e-05
5.300000000000000024e-03 6.640517676714807749e-05
5.449998999999999642e-03 7.082546653691679239e-05
5.599998000000000128e-03 7.550846203230321407e-05
5.749999999999999903e-03 8.046756556723266840e-05
5.899999000000000389e-03 8.571646321797743440e-05
6.049998000000000008e-03 9.126930672209709883e-05
6.200001000000000123e-03 9.714103362057358027e-05
6.349999000000000268e-03 1.033473818097263575e-04
6.499997999999999887e-03 1.099044893635436893e-04
6.650001000000000002e-03 1.168286980828270316e-04
6.799999999999999621e-03 1.241368299815803766e-04
6.949997999999999766e-03 1.318466966040432453e-04
7.100000999999999882e-03 1.399770117131993175e-04
7.250000000000000368e-03 1.485468528699129820e-04
7.399998999999999987e-03 1.575752685312181711e-04
7.550000999999999761e-03 1.670818164711818099e-04
7.700000000000000247e-03 1.770873495843261480e-04
7.849998999999999866e-03 1.876138267107307911e-04
7.999997999999999485e-03 1.986833667615428567e-04
8.149999999999999259e-03 2.103176520904526114e-04
8.299999000000000612e-03 2.225389180239289999e-04
8.449998000000000231e-03 2.353711170144379139e-04
8.600000000000000006e-03 2.488395257387310266e-04
8.749998999999999624e-03 2.629692316986620426e-04
8.899997999999999243e-03 2.777844201773405075e-04
9.050000000000000752e-03 2.933098294306546450e-04
9.199999000000000371e-03 3.095723513979464769e-04
9.349997999999999990e-03 3.266004496254026890e-04
9.500000999999999238e-03 3.444218600634485483e-04
9.649998999999999383e-03 3.630628343671560287e-04
9.799998000000000736e-03 3.825500316452234983e-04
9.950000999999999984e-03 4.029129631817340851e-04
1.009999999999999960e-02 4.241826827637851238e-04
1.025000000000000043e-02 4.463888180907815695e-04
1.039999999999999952e-02 4.695584357250481844e-04
1.055000000000000035e-02 4.937191260978579521e-04
1.069999999999999944e-02 5.189018556848168373e-04
1.085000000000000027e-02 5.451392498798668385e-04
1.099999999999999936e-02 5.724612274207174778e-04
1.115000000000000019e-02 6.008943310007452965e-04
1.129999999999999928e-02 6.304654525592923164e-04
1.145000000000000011e-02 6.612057331949472427e-04
1.159999999999999920e-02 6.931478856131434441e-04
1.175000000000000003e-02 7.263208972290158272e-04
1.190000000000000085e-02 7.607495062984526157e-04
1.204999999999999995e-02 7.964594406075775623e-04
1.220000000000000077e-02 8.334813755936920643e-04
1.234999999999999987e-02 8.718476165086030960e-04
1.250000000000000069e-02 9.115858119912445545e-04
1.264999999999999979e-02 9.527189540676772594e-04
1.280000000000000061e-02 9.952714899554848671e-04
1.294999999999999971e-02 1.039273454807698727e-03
1.310000000000000053e-02 1.084756106138229370e-03
1.324999999999999963e-02 1.131744589656591415e-03
1.340000000000000045e-02 1.180258812382817268e-03
1.354999999999999954e-02 1.230320078320801258e-03
1.370000000000000037e-02 1.281954580917954445e-03
1.384999999999999946e-02 1.335188164375722408e-03
1.400000000000000029e-02 1.390039222314953804e-03
1.414999999999999938e-02 1.446520094759762287e-03
1.430000000000000021e-02 1.504643354564905167e-03
1.444999999999999930e-02 1.564425765536725521e-03
1.460000000000000013e-02 1.625881646759808064e-03
1.474999999999999922e-02 1.689017866738140583e-03
1.490000000000000005e-02 1.753835240378975868e-03
1.504999999999999914e-02 1.820334931835532188e-03
1.519999999999999997e-02 1.888520782813429832e-03
1.535000000000000080e-02 1.958394655957818031e-03
1.549999999999999989e-02 2.029951894655823708e-03
1.565000000000000072e-02 2.103182952851057053e-03
1.580000000000000154e-02 2.178078517317771912e-03
1.594999999999999890e-02 2.254630904644727707e-03
1.609999999999999973e-02 2.332828938961029053e-03
1.625000000000000056e-02 2.412656787782907486e-03
1.640000000000000138e-02 2.494093962013721466e-03
1.654999999999999874e-02 2.577117877081036568e-03
1.669999999999999957e-02 2.661703852936625481e-03
1.685000000000000039e-02 2.747823018580675125e-03
1.700000000000000122e-02 2.835441846400499344e-03
1.714999999999999858e-02 2.924521686509251595e-03
1.729999999999999941e-02 3.015019465237855911e-03
1.745000000000000023e-02 3.106887219473719597e-03
1.760000000000000106e-02 3.200072562322020531e-03
1.774999999999999842e-02 3.294521011412143707e-03
1.789999999999999925e-02 3.390173660591244698e-03
1.805000000000000007e-02 3.486966714262962341e-03
1.820000000000000090e-02 3.584829624742269516e-03
1.835000000000000173e-02 3.683689283207058907e-03
1.849999999999999908e-02 3.783472115173935890e-03
1.864999999999999991e-02 3.884101519361138344e-03
1.880000000000000074e-02 3.985492512583732605e-03
1.895000000000000157e-02 4.087552893906831741e-03
1.909999999999999892e-02 4.190187435597181320e-03
1.924999999999999975e-02 4.293300211429595947e-03
1.940000000000000058e-02 4.396790172904729843e-03
1.955000000000000140e-02 4.500546492636203766e-03
1.969999999999999876e-02 4.604449961334466934e-03
1.984999999999999959e-02 4.708378575742244720e-03
2.000000000000000042e-02 4.812208935618400574e-03
2.015000000000000124e-02 4.915812984108924866e-03
2.029999999999999860e-02 5.019053351134061813e-03
2.044999999999999943e-02 5.121787544339895248e-03
2.060000000000000026e-02 5.223869811743497849e-03
2.075000000000000108e-02 5.325153470039367676e-03
2.089999999999999844e-02 5.425486247986555099e-03
2.104999999999999927e-02 5.524710752069950104e-03
2.120000000000000009e-02 5.622662603855133057e-03
2.135000000000000092e-02 5.719175096601247787e-03
2.149999999999999828e-02 5.814075935631990433e-03
2.164999999999999911e-02 5.907187238335609436e-03
2.179999999999999993e-02 5.998326465487480164e-03
2.195000000000000076e-02 6.087306886911392212e-03
2.210000000000000159e-02 6.173934787511825562e-03
2.224999999999999895e-02 6.258011795580387115e-03
2.239999999999999977e-02 6.339333485811948776e-03
2.255000000000000060e-02 6.417696364223957062e-03
2.270000000000000143e-02 6.492893677204847336e-03
2.284999999999999878e-02 6.564712151885032654e-03
2.299999999999999961e-02 6.632932461798191071e-03
2.315000000000000044e-02 6.697333883494138718e-03
2.330000000000000127e-02 6.757696159183979034e-03
2.344999999999999862e-02 6.813795771449804306e-03
2.359999999999999945e-02 6.865401286631822586e-03
2.375000000000000028e-02 6.912276148796081543e-03
2.390000000000000110e-02 6.954181008040904999e-03
2.404999999999999846e-02 6.990876048803329468e-03
2.419999999999999929e-02 7.022118661552667618e-03
2.435000000000000012e-02 7.047661114484071732e-03
2.450000000000000094e-02 7.067250087857246399e-03
2.464999999999999830e-02 7.080631796270608902e-03
2.479999999999999913e-02 7.087552919983863831e-03
2.494999999999999996e-02 7.087758742272853851e-03
2.510000000000000078e-02 7.080991752445697784e-03
2.525000000000000161e-02 7.066992577165365219e-03
2.539999999999999897e-02 7.045500446110963821e-03
2.554999999999999979e-02 7.016253191977739334e-03
2.570000000000000062e-02 6.978987250477075577e-03
2.585000000000000145e-02 6.933438591659069061e-03
2.599999999999999881e-02 6.879341788589954376e-03
2.614999999999999963e-02 6.816428620368242264e-03
2.630000000000000046e-02 6.744429469108581543e-03
2.645000000000000129e-02 6.663072854280471802e-03
2.659999999999999865e-02 6.572091486304998398e-03
2.674999999999999947e-02 6.471219472587108612e-03
2.690000000000000030e-02 6.360189523547887802e-03
2.705000000000000113e-02 6.238732486963272095e-03
2.719999999999999848e-02 6.106581538915634155e-03
2.734999999999999931e-02 5.963476374745368958e-03
2.750000000000000014e-02 5.809157621115446091e-03
2.765000000000000097e-02 5.643365439027547836e-03
2.779999999999999832e-02 5.465837661176919937e-03
2.794999999999999915e-02 5.276316776871681213e-03
2.809999999999999998e-02 5.074550397694110870e-03
2.825000000000000080e-02 4.860287532210350037e-03
2.840000000000000163e-02 4.633279982954263687e-03
2.854999999999999899e-02 4.393281415104866028e-03
2.869999999999999982e-02 4.140050150454044342e-03
2.885000000000000064e-02 3.873351961374282837e-03
2.900000000000000147e-02 3.592957044020295143e-03
2.914999999999999883e-02 3.298642346635460854e-03
2.929999999999999966e-02 2.990191569551825523e-03
2.945000000000000048e-02 2.667393768206238747e-03
2.960000000000000131e-02 2.330044284462928772e-03
2.974999999999999867e-02 1.977945212274789810e-03
2.989999999999999949e-02 1.610908308066427708e-03
3.005000000000000032e-02 1.228754874318838120e-03
3.020000000000000115e-02 8.313122671097517014e-04
3.034999999999999851e-02 4.184152639936655760e-04
3.049999999999999933e-02 -1.008953768177889287e-05
3.065000000000000016e-02 -4.543406830634921789e-04
3.080000000000000099e-02 -9.144632495008409023e-04
3.094999999999999835e-02 -1.390571822412312031e-03
3.109999999999999917e-02 -1.882769865915179253e-03
3.125000000000000000e-02 -2.391144866123795509e-03
3.139999999999999736e-02 -2.915766090154647827e-03
3.155000000000000165e-02 -3.456687321886420250e-03
3.169999999999999901e-02 -4.013946745544672012e-03
3.185000000000000331e-02 -4.587567877024412155e-03
3.200000000000000067e-02 -5.177555140107870102e-03
3.214999999999999802e-02 -5.783893167972564697e-03
3.230000000000000232e-02 -6.406546570360660553e-03
3.244999999999999968e-02 -7.045458536595106125e-03
3.259999999999999704e-02 -7.700549438595771790e-03
3.275000000000000133e-02 -8.371716365218162537e-03
3.289999999999999869e-02 -9.058833122253417969e-03
3.305000000000000299e-02 -9.761746972799301147e-03
3.320000000000000034e-02 -1.048027724027633667e-02
3.334999999999999770e-02 -1.121421344578266144e-02
3.350000000000000200e-02 -1.196332182735204697e-02
3.364999999999999936e-02 -1.272734161466360092e-02
3.379999999999999671e-02 -1.350598037242889404e-02
3.395000000000000101e-02 -1.429891493171453476e-02
3.409999999999999837e-02 -1.510578766465187073e-02
3.425000000000000266e-02 -1.592620834708213806e-02
3.440000000000000002e-02 -1.675975881516933441e-02
3.454999999999999738e-02 -1.760598458349704742e-02
3.470000000000000168e-02 -1.846439018845558167e-02
3.484999999999999903e-02 -1.933444291353225708e-02
3.500000000000000333e-02 -2.021557651460170746e-02
3.515000000000000069e-02 -2.110718749463558197e-02
3.529999999999999805e-02 -2.200863137841224670e-02
3.545000000000000234e-02 -2.291922643780708313e-02
3.559999999999999970e-02 -2.383825182914733887e-02
3.574999999999999706e-02 -2.476494759321212769e-02
3.590000000000000135e-02 -2.569851092994213104e-02
3.604999999999999871e-02 -2.663809992372989655e-02
3.620000000000000301e-02 -2.758283540606498718e-02
3.635000000000000037e-02 -2.853179536759853363e-02
3.649999999999999772e-02 -2.948401495814323425e-02
3.665000000000000202e-02 -3.043848462402820587e-02
3.679999999999999938e-02 -3.139415755867958069e-02
3.694999999999999674e-02 -3.234994783997535706e-02
3.710000000000000103e-02 -3.330472484230995178e-02
3.724999999999999839e-02 -3.425732254981994629e-02
3.740000000000000269e-02 -3.520653396844863892e-02
3.755000000000000004e-02 -3.615111112594604492e-02
3.769999999999999740e-02 -3.708977997303009033e-02
3.785000000000000170e-02 -3.802122920751571655e-02
3.799999999999999906e-02 -3.894409909844398499e-02
3.815000000000000335e-02 -3.985700383782386780e-02
3.830000000000000071e-02 -4.075852409005165100e-02
3.844999999999999807e-02 -4.164721071720123291e-02
3.860000000000000236e-02 -4.252158850431442261e-02
3.874999999999999972e-02 -4.338015243411064148e-02
3.889999999999999708e-02 -4.422136396169662476e-02
3.905000000000000138e-02 -4.504367336630821228e-02
3.919999999999999873e-02 -4.584550112485885620e-02
3.935000000000000303e-02 -4.662525653839111328e-02
3.950000000000000039e-02 -4.738133400678634644e-02
3.964999999999999775e-02 -4.811211675405502319e-02
3.980000000000000204e-02 -4.881597310304641724e-02
3.994999999999999940e-02 -4.949125647544860840e-02
4.009999999999999676e-02 -5.013633146882057190e-02
4.025000000000000105e-02 -5.074955895543098450e-02
4.039999999999999841e-02 -5.132929980754852295e-02
4.055000000000000271e-02 -5.187391862273216248e-02
4.070000000000000007e-02 -5.238178372383117676e-02
4.084999999999999742e-02 -5.285128951072692871e-02
4.100000000000000172e-02 -5.328084155917167664e-02
4.114999999999999908e-02 -5.366886779665946960e-02
4.130000000000000338e-02 -5.401382222771644592e-02
4.145000000000000073e-02 -5.431419610977172852e-02
4.159999999999999809e-02 -5.456849560141563416e-02
4.175000000000000239e-02 -5.477527901530265808e-02
4.189999999999999974e-02 -5.493313446640968323e-02
4.204999999999999710e-02 -5.504070967435836792e-02
4.220000000000000140e-02 -5.509668961167335510e-02
4.234999999999999876e-02 -5.509981513023376465e-02
4.250000000000000305e-02 -5.504888668656349182e-02
4.265000000000000041e-02 -5.494276434183120728e-02
4.279999999999999777e-02 -5.478037148714065552e-02
4.295000000000000207e-02 -5.456071719527244568e-02
4.309999999999999942e-02 -5.428286641836166382e-02
4.324999999999999678e-02 -5.394597351551055908e-02
4.340000000000000108e-02 -5.354925990104675293e-02
4.354999999999999843e-02 -5.309205129742622375e-02
4.370000000000000273e-02 -5.257375165820121765e-02
4.385000000000000009e-02 -5.199385434389114380e-02
4.399999999999999745e-02 -5.135194584727287292e-02
4.415000000000000174e-02 -5.064772069454193115e-02
4.429999999999999910e-02 -4.988096281886100769e-02
4.445000000000000340e-02 -4.905156791210174561e-02
4.460000000000000075e-02 -4.815952479839324951e-02
4.474999999999999811e-02 -4.720494896173477173e-02
4.490000000000000241e-02 -4.618805646896362305e-02
4.504999999999999977e-02 -4.510917514562606812e-02
4.519999999999999712e-02 -4.396874830126762390e-02
4.535000000000000142e-02 -4.276733472943305969e-02
4.549999999999999878e-02 -4.150560498237609863e-02
4.565000000000000308e-02 -4.018434882164001465e-02
4.580000000000000043e-02 -3.880446776747703552e-02
4.594999999999999779e-02 -3.736697509884834290e-02
4.610000000000000209e-02 -3.587301447987556458e-02
4.624999999999999944e-02 -3.432383760809898376e-02
4.639999999999999680e-02 -3.272081539034843445e-02
4.655000000000000110e-02 -3.106542862951755524e-02
4.669999999999999846e-02 -2.935927174985408783e-02
4.685000000000000275e-02 -2.760405093431472778e-02
4.700000000000000011e-02 -2.580158226191997528e-02
4.714999999999999747e-02 -2.395378984510898590e-02
4.730000000000000177e-02 -2.206270024180412292e-02
4.744999999999999912e-02 -2.013043500483036041e-02
4.760000000000000342e-02 -1.815921813249588013e-02
4.775000000000000078e-02 -1.615136303007602692e-02
4.789999999999999813e-02 -1.410927716642618179e-02
4.805000000000000243e-02 -1.203545555472373962e-02
4.819999999999999979e-02 -9.932473301887512207e-03
4.834999999999999715e-02 -7.802980486303567886e-03
4.850000000000000144e-02 -5.649697966873645782e-03