-4.000000000000000083e-02 0.000000000000000000e+00
-3.984999999999999654e-02 0.000000000000000000e+00
-3.969999999999999918e-02 0.000000000000000000e+00
-3.955000000000000182e-02 0.000000000000000000e+00
-3.939999999999999752e-02 0.000000000000000000e+00
-3.925000000000000017e-02 0.000000000000000000e+00
-3.910000000000000281e-02 0.000000000000000000e+00
-3.894999999999999851e-02 0.000000000000000000e+00
-3.880000000000000115e-02 0.000000000000000000e+00
-3.864999999999999686e-02 0.000000000000000000e+00
-3.849999999999999950e-02 0.000000000000000000e+00
-3.835000000000000214e-02 0.000000000000000000e+00
-3.819999999999999785e-02 0.000000000000000000e+00
-3.805000000000000049e-02 0.000000000000000000e+00
-3.790000000000000313e-02 0.000000000000000000e+00
-3.774999999999999883e-02 0.000000000000000000e+00
-3.760000000000000148e-02 0.000000000000000000e+00
-3.744999999999999718e-02 0.000000000000000000e+00
-3.729999999999999982e-02 0.000000000000000000e+00
-3.715000000000000246e-02 0.000000000000000000e+00
-3.699999999999999817e-02 0.000000000000000000e+00
-3.685000000000000081e-02 0.000000000000000000e+00
-3.670000000000000345e-02 0.000000000000000000e+00
-3.654999999999999916e-02 0.000000000000000000e+00
-3.640000000000000180e-02 0.000000000000000000e+00
-3.624999999999999750e-02 0.000000000000000000e+00
-3.610000000000000014e-02 0.000000000000000000e+00
-3.595000000000000279e-02 0.000000000000000000e+00
-3.579999999999999849e-02 0.000000000000000000e+00
-3.565000000000000113e-02 0.000000000000000000e+00
-3.549999999999999684e-02 0.000000000000000000e+00
-3.534999999999999948e-02 0.000000000000000000e+00
-3.520000000000000212e-02 0.000000000000000000e+00
-3.504999999999999782e-02 0.000000000000000000e+00
-3.490000000000000047e-02 0.000000000000000000e+00
-3.475000000000000311e-02 0.000000000000000000e+00
-3.459999999999999881e-02 0.000000000000000000e+00
-3.445000000000000145e-02 0.000000000000000000e+00
-3.429999999999999716e-02 0.000000000000000000e+00
-3.414999999999999980e-02 0.000000000000000000e+00
-3.400000000000000244e-02 0.000000000000000000e+00
-3.384999999999999815e-02 0.000000000000000000e+00
-3.370000000000000079e-02 0.000000000000000000e+00
-3.355000000000000343e-02 0.000000000000000000e+00
-3.339999999999999913e-02 0.000000000000000000e+00
-3.325000000000000178e-02 0.000000000000000000e+00
-3.309999999999999748e-02 0.000000000000000000e+00
-3.295000000000000012e-02 0.000000000000000000e+00
-3.280000000000000276e-02 0.000000000000000000e+00
-3.264999999999999847e-02 0.000000000000000000e+00
-3.250000000000000111e-02 -0.000000000000000000e+00
-3.234999999999999681e-02 -0.000000000000000000e+00
-3.219999999999999946e-02 0.000000000000000000e+00
-3.205000000000000210e-02 -0.000000000000000000e+00
-3.189999999999999780e-02 -2.802596928649634142e-45
-3.175000000000000044e-02 1.401298464324817071e-44
-3.160000000000000309e-02 8.828180325246347547e-44
-3.144999999999999879e-02 -1.703978932618977558e-42
-3.130000000000000143e-02 3.136105963158940605e-42
-3.115000000000000061e-02 1.001956427961530702e-40
-3.099999999999999978e-02 -6.379747570470167671e-40
-3.084999999999999895e-02 -3.348510580485903402e-39
-3.070000000000000159e-02 4.543794348481078841e-38
-3.055000000000000077e-02 3.566309916640823880e-38
-3.039999999999999994e-02 -2.181961345543113219e-36
-3.024999999999999911e-02 2.908727373122671107e-36
-3.009999999999999828e-02 8.200583216925403336e-35
-2.995000000000000093e-02 -2.140742353450393096e-34
-2.980000000000000010e-02 -2.617597983579770146e-33
-2.964999999999999927e-02 8.581681079814755409e-33
-2.949999999999999845e-02 7.508889229613429603e-32
-2.935000000000000109e-02 -2.457969972315171073e-31
-2.920000000000000026e-02 -1.989780916732941195e-30
-2.904999999999999943e-02 5.136744427330608369e-30
-2.889999999999999861e-02 4.813905530346198538e-29
-2.875000000000000125e-02 -6.709546314312745571e-29
-2.860000000000000042e-02 -1.013306469823967007e-27
-2.844999999999999959e-02 -3.548645089448791019e-29
-2.829999999999999877e-02 1.714799026824609592e-26
-2.815000000000000141e-02 2.790119978634658941e-26
-2.800000000000000058e-02 -2.024116749550733495e-25
-2.784999999999999976e-02 -7.663134363089519644e-25
-2.769999999999999893e-02 9.750447992352672803e-25
-2.755000000000000157e-02 1.107709805641387346e-23
-2.740000000000000074e-02 1.531557512496308956e-23
-2.724999999999999992e-02 -7.220123903504763413e-23
-2.709999999999999909e-02 -3.259889814477267868e-22
-2.695000000000000173e-02 -2.777010762560444097e-22
-2.680000000000000090e-02 1.705691457575700323e-21
-2.665000000000000008e-02 6.942550307171002718e-21
-2.649999999999999925e-02 1.042035445226134768e-20
-2.634999999999999842e-02 -6.827681254157669624e-21
-2.620000000000000107e-02 -7.737524998003447717e-20
-2.605000000000000024e-02 -2.352183456058919215e-19
-2.589999999999999941e-02 -5.051736757468536790e-19
-2.574999999999999858e-02 -9.084702362880279327e-19
-2.560000000000000123e-02 -1.474196221210754035e-18
-2.545000000000000040e-02 -2.236651501795155831e-18
-2.529999999999999957e-02 -3.226596857070549038e-18
-2.514999999999999875e-02 -4.475977692101001877e-18
-2.500000000000000139e-02 -6.025381691592960034e-18
-2.485000000000000056e-02 -7.918094596615864032e-18
-2.469999999999999973e-02 -1.019672489411262660e-17
-2.454999999999999891e-02 -1.291112800037273755e-17
-2.440000000000000155e-02 -1.611812708757552712e-17
-2.425000000000000072e-02 -1.987554869798335237e-17
-2.409999999999999989e-02 -2.424754234246092569e-17
-2.394999999999999907e-02 -2.930759143790500785e-17
-2.380000000000000171e-02 -3.513277598251574019e-17
-2.365000000000000088e-02 -4.180704819102235459e-17
-2.350000000000000006e-02 -4.942551398153374796e-17
-2.334999999999999923e-02 -5.808953275758971810e-17
-2.319999999999999840e-02 -6.790917248021902108e-17
-2.305000000000000104e-02 -7.900769960430430909e-17
-2.290000000000000022e-02 -9.151738361851526147e-17
-2.274999999999999939e-02 -1.055820546877625987e-16
-2.259999999999999856e-02 -1.213612660260404491e-16
-2.245000000000000120e-02 -1.390267469459597217e-16
-2.230000000000000038e-02 -1.587656057020799113e-16
-2.214999999999999955e-02 -1.807838698239308257e-16
-2.199999999999999872e-02 -2.053035281181420958e-16
-2.185000000000000137e-02 -2.325669246518570574e-16
-2.170000000000000054e-02 -2.628391675026765057e-16
-2.154999999999999971e-02 -2.964062626391967756e-16
-2.139999999999999888e-02 -3.335804475815994834e-16
-2.125000000000000153e-02 -3.747015413604112138e-16
-2.110000000000000070e-02 -4.201366798187075027e-16
-2.094999999999999987e-02 -4.702862977823028204e-16
-2.079999999999999905e-02 -5.255844202273261909e-16
-2.065000000000000169e-02 -5.865005945741321152e-16
-2.050000000000000086e-02 -6.535459522668293601e-16
-2.035000000000000003e-02 -7.272728646661461363e-16
-2.019999999999999921e-02 -8.082797076097584035e-16
-2.004999999999999838e-02 -8.972153083352629559e-16
-1.990000000000000102e-02 -9.947800572109206929e-16
-1.975000000000000019e-02 -1.101732895757471468e-15
-1.959999999999999937e-02 -1.218894387142567884e-15
-1.944999999999999854e-02 -1.347150316070801126e-15
-1.930000000000000118e-02 -1.487459100321989434e-15
-1.915000000000000036e-02 -1.640854225970901463e-15
-1.899999999999999953e-02 -1.808450917771715905e-15
-1.884999999999999870e-02 -1.991453021300717934e-15
-1.870000000000000134e-02 -2.191157132241917070e-15
-1.855000000000000052e-02 -2.408961278474756537e-15
-1.839999999999999969e-02 -2.646372119854164921e-15
-1.824999999999999886e-02 -2.905011300957660580e-15
-1.810000000000000150e-02 -3.186624556689534628e-15
-1.795000000000000068e-02 -3.493090394368560288e-15
-1.779999999999999985e-02 -3.826426869991570931e-15
-1.764999999999999902e-02 -4.188804929002379329e-15
-1.750000000000000167e-02 -4.582552429698277113e-15
-1.735000000000000084e-02 -5.010174048504295249e-15
-1.720000000000000001e-02 -5.474354032830282615e-15
-1.704999999999999918e-02 -5.977975259312219222e-15
-1.689999999999999836e-02 -6.524126857108741503e-15
-1.675000000000000100e-02 -7.116119454494192892e-15
-1.660000000000000017e-02 -7.757502966550516160e-15
-1.644999999999999934e-02 -8.452074218463778710e-15
-1.629999999999999852e-02 -9.203900662446695691e-15
-1.615000000000000116e-02 -1.001732588345278716e-14
-1.600000000000000033e-02 -1.089700432752721548e-14
-1.584999999999999951e-02 -1.184789791367499637e-14
-1.569999999999999868e-02 -1.287532346770604505e-14
-1.554999999999999959e-02 -1.398494509893865104e-14
-1.540000000000000049e-02 -1.518281824591273532e-14
-1.524999999999999967e-02 -1.647539221748869215e-14
-1.510000000000000057e-02 -1.786954746229706820e-14
-1.494999999999999975e-02 -1.937261420346340218e-14
-1.480000000000000066e-02 -2.099240547289316777e-14
-1.464999999999999983e-02 -2.273723913412840220e-14
-1.450000000000000074e-02 -2.461597345773149093e-14
-1.434999999999999991e-02 -2.663802575601000727e-14
-1.420000000000000082e-02 -2.881340457026870805e-14
-1.404999999999999999e-02 -3.115273338773205669e-14
-1.389999999999999916e-02 -3.366730993385053106e-14
-1.375000000000000007e-02 -3.636911464263009597e-14
-1.359999999999999924e-02 -3.927088350146566709e-14
-1.345000000000000015e-02 -4.238614532059079010e-14
-1.329999999999999932e-02 -4.572932337703131123e-14
-1.315000000000000023e-02 -4.931577607218684545e-14
-1.299999999999999940e-02 -5.316188163512550191e-14
-1.285000000000000031e-02 -5.728490598544411228e-14
-1.269999999999999948e-02 -6.170263681503501685e-14
-1.255000000000000039e-02 -6.643251622634807618e-14
-1.239999999999999956e-02 -7.149042778121020292e-14
-1.225000000000000047e-02 -7.688970039007939072e-14
-1.209999999999999964e-02 -8.264205698894563912e-14
-1.195000000000000055e-02 -8.876388935940421332e-14
-1.179999999999999973e-02 -9.529213491421897886e-14
-1.165000000000000063e-02 -1.023131300276376721e-13
-1.149999999999999981e-02 -1.100008755958170603e-13
-1.135000000000000071e-02 -1.186444741280504034e-13
-1.119999999999999989e-02 -1.286161390064155530e-13
-1.105000000000000079e-02 -1.401951742630719311e-13
-1.089999999999999997e-02 -1.531395588680664610e-13
-1.074999999999999914e-02 -1.659273846793540841e-13
-1.060000000000000005e-02 -1.747412707153034317e-13
-1.044999999999999922e-02 -1.726155026207654153e-13
-1.030000000000000013e-02 -1.497466565894903234e-13
-1.014999999999999930e-02 -9.670209240569133113e-14
-1.000000000000000021e-02 -1.282965907448661846e-14
-9.850001000000000589e-03 7.808133344533105258e-14
-9.700001999999999236e-03 1.049278258681216047e-13
-9.550001000000000670e-03 -7.566048617702395007e-14
-9.400000999999999843e-03 -6.923699352560930276e-13
-9.250002000000000224e-03 -2.034340361098396777e-12
-9.100000999999999923e-03 -4.350414559844972828e-12
-8.950001000000000831e-03 -7.629570586420442169e-12
-8.800001999999999477e-03 -1.123259991964165039e-11
-8.650000999999999177e-03 -1.338928447280895995e-11
-8.500001999999999558e-03 -1.066175880221065242e-11
-8.349999999999999784e-03 2.395280588457504578e-12
-8.200001000000000165e-03 3.299086698271835871e-11
-8.050002000000000546e-03 8.874651014068035693e-11
-7.900000000000000772e-03 1.746671002278432638e-10
-7.750001000000000285e-03 2.879987914816695138e-10
-7.600001999999999799e-03 4.109350359993158008e-10
-7.449998999999999684e-03 5.018200854856047499e-10
-7.300001000000000406e-03 4.864066371901287766e-10
-7.150001999999999920e-03 2.516532537910620704e-10
-7.000003000000000301e-03 -3.548416005472176948e-10
-6.850000000000000186e-03 -1.516773040499685976e-09
-6.700002000000000041e-03 -3.430601580589609512e-09
-6.550003000000000422e-03 -6.277072639448988411e-09
-6.400000000000000307e-03 -1.018654138817964849e-08
-6.250000999999999821e-03 -1.520524683940038813e-08
-6.100002999999999675e-03 -2.127208453828188794e-08
-5.950000000000000427e-03 -2.821554900833689317e-08
-5.800000999999999941e-03 -3.577753560080054740e-08
-5.650002999999999796e-03 -4.366440009562211344e-08
-5.499999999999999681e-03 -5.161735927572408400e-08
-5.350001000000000062e-03 -5.948628256646770751e-08
-5.200001999999999576e-03 -6.728605939088083687e-08
-5.049999999999999802e-03 -7.521585843051070697e-08
-4.900001000000000183e-03 -8.362976444686864852e-08
-4.750001999999999697e-03 -9.296136482817018987e-08
-4.599999999999999922e-03 -1.036207208926498424e-07
-4.450001000000000304e-03 -1.158945295287594490e-07
-4.300001999999999817e-03 -1.298833609553184942e-07
-4.149998999999999702e-03 -1.455009623896330595e-07
-4.000001000000000424e-03 -1.625408145855544717e-07
-3.850001999999999938e-03 -1.807908915907319169e-07
-3.699998999999999823e-03 -2.001573164989167708e-07
-3.550000000000000204e-03 -2.207505218621008680e-07
-3.400002000000000059e-03 -2.428990626412996789e-07
-3.250003000000000006e-03 -2.670819867489626631e-07
-3.099999999999999891e-03 -2.938041632205568021e-07
-2.950002000000000180e-03 -3.234640075788774993e-07
-2.800003000000000127e-03 -3.562695383152458817e-07
-2.650000000000000012e-03 -3.922410201084858272e-07
-2.500000999999999959e-03 -4.313024533075804356e-07
-2.350002999999999814e-03 -4.734246772386541124e-07
-2.200000000000000133e-03 -5.187575311538239475e-07
-2.050001000000000080e-03 -5.676910745933128055e-07
-1.900002000000000028e-03 -6.208157401488278992e-07
-1.750000000000000036e-03 -6.787990969314705580e-07
-1.600000999999999984e-03 -7.422362955367134418e-07
-1.450001999999999932e-03 -8.115471246128436178e-07
-1.299999999999999940e-03 -8.869719181348045822e-07
-1.150001000000000105e-03 -9.686708608569460921e-07
-1.000002000000000052e-03 -1.056880023497797083e-06
-8.499994999999999990e-04 -1.152046706920373254e-06
-7.000007000000000148e-04 -1.254875201084360015e-06
-5.500019000000000305e-04 -1.366259084534249268e-06
-3.999992999999999973e-04 -1.487136046307568904e-06
-2.500005000000000131e-04 -1.618340775166871026e-06
-1.000017000000000017e-04 -1.760537202244449873e-06
5.000085000000000087e-05 -1.914269432745641097e-06
1.999996999999999886e-04 -2.080103968182811514e-06
3.499985000000000270e-04 -2.258791482745436952e-06
4.999972999999999571e-04 -2.451355840094038285e-06
6.499998000000000104e-04 -2.659066467458615080e-06
7.999985999999999946e-04 -2.883306024159537628e-06
9.499975000000000129e-04 -3.125413741145166568e-06
1.100000000000000066e-03 -3.386593107279622927e-06
1.249998999999999902e-03 -3.667941655294271186e-06
1.399997999999999954e-03 -3.970587840740336105e-06
1.549999999999999946e-03 -4.295856342650949955e-06
1.699998999999999998e-03 -4.645372428058180958e-06
1.849998000000000050e-03 -5.021036031394032761e-06
2.000000000000000042e-03 -5.424894879979547113e-06
2.149999000000000094e-03 -5.858986241946695372e-06
2.299998000000000146e-03 -6.325247795757604763e-06
2.449999999999999921e-03 -6.825560376455541700e-06
2.599998999999999973e-03 -7.361894859059248120e-06
2.749998000000000026e-03 -7.936476322356611490e-06
2.900001000000000141e-03 -8.551865903427824378e-06
3.049998999999999853e-03 -9.210922144120559096e-06
3.199997999999999905e-03 -9.916653652908280492e-06
3.350001000000000020e-03 -1.067207267624326050e-05
3.500000000000000073e-03 -1.148014143836917356e-05
3.649997999999999784e-03 -1.234384581039194018e-05
3.800000999999999900e-03 -1.326636174781015143e-05
3.950000000000000386e-03 -1.425119990017265081e-05
4.099999000000000005e-03 -1.530225381429772824e-05
4.249997000000000150e-03 -1.642370261834003031e-05
4.400000000000000265e-03 -1.761986641213297844e-05
4.549998999999999884e-03 -1.889507620944641531e-05
4.699998000000000370e-03 -2.025368848990183324e-05
4.850000000000000144e-03 -2.170020161429420114e-05
4.999998999999999763e-03 -2.323942862858530134e-05
5.149998000000000249e-03 -2.487660276528913528e-05
5.300000000000000024e-03 -2.661734288267325610e-05
5.449998999999999642e-03 -2.846752795448992401e-05
5.599998000000000128e-03 -3.043313881789799780e-05
5.749999999999999903e-03 -3.252020906074903905e-05
5.899999000000000389e-03 -3.473491597105748951e-05
6.049998000000000008e-03 -3.708371878019534051e-05
6.200001000000000123e-03 -3.957350054406560957e-05
6.349999000000000268e-03 -4.221159906592220068e-05
6.499997999999999887e-03 -4.500570867094211280e-05
6.650001000000000002e-03 -4.796370194526389241e-05
6.799999999999999621e-03 -5.109355333843268454e-05
6.949997999999999766e-03 -5.440335735329426825e-05
7.100000999999999882e-03 -5.790148861706256866e-05
7.250000000000000368e-03 -6.159675103845074773e-05
7.399998999999999987e-03 -6.549841054948046803e-05
7.550000999999999761e-03 -6.961614417377859354e-05
7.700000000000000247e-03 -7.395985448965802789e-05
7.849998999999999866e-03 -7.853956776671111584e-05
7.999997999999999485e-03 -8.336544124176725745e-05
8.149999999999999259e-03 -8.844787225825712085e-05
8.299999000000000612e-03 -9.379765106132254004e-05
8.449998000000000231e-03 -9.942601172951981425e-05
8.600000000000000006e-03 -1.053445957950316370e-04
8.749998999999999624e-03 -1.115652921725995839e-04
8.899997999999999243e-03 -1.181001061922870576e-04
9.050000000000000752e-03 -1.249611086677759886e-04
9.199999000000000371e-03 -1.321605232078582048e-04
9.349997999999999990e-03 -1.397109299432486296e-04
9.500000999999999238e-03 -1.476253237342461944e-04
9.649998999999999383e-03 -1.559170341352000833e-04
9.799998000000000736e-03 -1.645995507715269923e-04
9.950000999999999984e-03 -1.736863341648131609e-04
1.009999999999999960e-02 -1.831908593885600567e-04
1.025000000000000043e-02 -1.931267324835062027e-04
1.039999999999999952e-02 -2.035078068729490042e-04
1.055000000000000035e-02 -2.143480960512533784e-04
1.069999999999999944e-02 -2.256617299281060696e-04
1.085000000000000027e-02 -2.374629402766004205e-04
1.099999999999999936e-02 -2.497659297659993172e-04
1.115000000000000019e-02 -2.625847409944981337e-04
1.129999999999999928e-02 -2.759332419373095036e-04
1.145000000000000011e-02 -2.898250822909176350e-04
1.159999999999999920e-02 -3.042741736862808466e-04
1.175000000000000003e-02 -3.192944277543574572e-04
1.190000000000000085e-02 -3.348997561261057854e-04
1.204999999999999995e-02 -3.511033719405531883e-04
1.220000000000000077e-02 -3.679178480524569750e-04
1.234999999999999987e-02 -3.853556700050830841e-04
1.250000000000000069e-02 -4.034292651340365410e-04
1.264999999999999979e-02 -4.221509443596005440e-04
1.280000000000000061e-02 -4.415321454871445894e-04
1.294999999999999971e-02 -4.615836369339376688e-04
1.310000000000000053e-02 -4.823156923521310091e-04
1.324999999999999963e-02 -5.037382943555712700e-04
1.340000000000000045e-02 -5.258608725853264332e-04
1.354999999999999954e-02 -5.486914888024330139e-04
1.370000000000000037e-02 -5.722373607568442822e-04
1.384999999999999946e-02 -5.965052987448871136e-04
1.400000000000000029e-02 -6.215018802322447300e-04
1.414999999999999938e-02 -6.472325767390429974e-04
1.430000000000000021e-02 -6.737007643096148968e-04
1.444999999999999930e-02 -7.009083637967705727e-04
1.460000000000000013e-02 -7.288570050150156021e-04
1.474999999999999922e-02 -7.575483177788555622e-04
1.490000000000000005e-02 -7.869823020882904530e-04
1.504999999999999914e-02 -8.171564550139009953e-04
1.519999999999999997e-02 -8.480661781504750252e-04
1.535000000000000080e-02 -8.797064656391739845e-04
1.549999999999999989e-02 -9.120721369981765747e-04
1.565000000000000072e-02 -9.451561491005122662e-04
1.580000000000000154e-02 -9.789481991901993752e-04
1.594999999999999890e-02 -1.013435772620141506e-03
1.609999999999999973e-02 -1.048606121912598610e-03
1.625000000000000056e-02 -1.084446208551526070e-03
1.640000000000000138e-02 -1.120940432883799076e-03
1.654999999999999874e-02 -1.158068771474063396e-03
1.669999999999999957e-02 -1.195809221826493740e-03
1.685000000000000039e-02 -1.234140014275908470e-03
1.700000000000000122e-02 -1.273039262741804123e-03
1.714999999999999858e-02 -1.312481705099344254e-03
1.729999999999999941e-02 -1.352437073364853859e-03
1.745000000000000023e-02 -1.392872654832899570e-03
1.760000000000000106e-02 -1.433756668120622635e-03
1.774999999999999842e-02 -1.475057215429842472e-03
1.789999999999999925e-02 -1.516738440841436386e-03
1.805000000000000007e-02 -1.558759366162121296e-03
1.820000000000000090e-02 -1.601076568476855755e-03
1.835000000000000173e-02 -1.643647789023816586e-03
1.849999999999999908e-02 -1.686430769041180611e-03
1.864999999999999991e-02 -1.729378942400217056e-03
1.880000000000000074e-02 -1.772440155036747456e-03
1.895000000000000157e-02 -1.815560623072087765e-03
1.909999999999999892e-02 -1.858688308857381344e-03
1.924999999999999975e-02 -1.901770825497806072e-03
1.940000000000000058e-02 -1.944750896655023098e-03
1.955000000000000140e-02 -1.987565774470567703e-03
1.969999999999999876e-02 -2.030152129009366035e-03
1.984999999999999959e-02 -2.072448609396815300e-03
2.000000000000000042e-02 -2.114393748342990875e-03
2.015000000000000124e-02 -2.155920723453164101e-03
2.029999999999999860e-02 -2.196958288550376892e-03
2.044999999999999943e-02 -2.237434731796383858e-03
2.060000000000000026e-02 -2.277281368151307106e-03
2.075000000000000108e-02 -2.316428348422050476e-03
2.089999999999999844e-02 -2.354801865294575691e-03
2.104999999999999927e-02 -2.392324618995189667e-03
2.120000000000000009e-02 -2.428920473903417587e-03
2.135000000000000092e-02 -2.464514691382646561e-03
2.149999999999999828e-02 -2.499032299965620041e-03
2.164999999999999911e-02 -2.532395534217357635e-03
2.179999999999999993e-02 -2.564525231719017029e-03
2.195000000000000076e-02 -2.595343394204974174e-03
2.210000000000000159e-02 -2.624773420393466949e-03
2.224999999999999895e-02 -2.652738709002733231e-03
2.239999999999999977e-02 -2.679161261767148972e-03
2.255000000000000060e-02 -2.703963080421090126e-03
2.270000000000000143e-02 -2.727068727836012840e-03
2.284999999999999878e-02 -2.748403465375304222e-03
2.299999999999999961e-02 -2.767892787232995033e-03
2.315000000000000044e-02 -2.785463118925690651e-03
2.330000000000000127e-02 -2.801043214276432991e-03
2.344999999999999862e-02 -2.814562991261482239e-03
2.359999999999999945e-02 -2.825953764840960503e-03
2.375000000000000028e-02 -2.835148246958851814e-03
2.390000000000000110e-02 -2.842082642018795013e-03
2.404999999999999846e-02 -2.846696181222796440e-03
2.419999999999999929e-02 -2.848929958418011665e-03
2.435000000000000012e-02 -2.848725998774170876e-03
2.450000000000000094e-02 -2.846028655767440796e-03
2.464999999999999830e-02 -2.840788336470723152e-03
2.479999999999999913e-02 -2.832960104569792747e-03
2.494999999999999996e-02 -2.822499955072999001e-03
2.510000000000000078e-02 -2.809364814311265945e-03
2.525000000000000161e-02 -2.793516730889678001e-03
2.539999999999999897e-02 -2.774923807010054588e-03
2.554999999999999979e-02 -2.753559267148375511e-03
2.570000000000000062e-02 -2.729397965595126152e-03
2.585000000000000145e-02 -2.702417317777872086e-03
2.599999999999999881e-02 -2.672599628567695618e-03
2.614999999999999963e-02 -2.639934420585632324e-03
2.630000000000000046e-02 -2.604416338726878166e-03
2.645000000000000129e-02 -2.566041890531778336e-03
2.659999999999999865e-02 -2.524811541661620140e-03
2.674999999999999947e-02 -2.480732277035713196e-03
2.690000000000000030e-02 -2.433816669508814812e-03
2.705000000000000113e-02 -2.384082181379199028e-03
2.719999999999999848e-02 -2.331549534574151039e-03
2.734999999999999931e-02 -2.276243874803185463e-03
2.750000000000000014e-02 -2.218197332695126534e-03
2.765000000000000097e-02 -2.157446229830384254e-03
2.779999999999999832e-02 -2.094031311571598053e-03
2.794999999999999915e-02 -2.027997747063636780e-03
2.809999999999999998e-02 -1.959396759048104286e-03
2.825000000000000080e-02 -1.888283761218190193e-03
2.840000000000000163e-02 -1.814717776142060757e-03
2.854999999999999899e-02 -1.738761784508824348e-03
2.869999999999999982e-02 -1.660484937019646168e-03
2.885000000000000064e-02 -1.579961855895817280e-03
2.900000000000000147e-02 -1.497269491665065289e-03
2.914999999999999883e-02 -1.412487123161554337e-03
2.929999999999999966e-02 -1.325698336586356163e-03
2.945000000000000048e-02 -1.236992422491312027e-03
2.960000000000000131e-02 -1.146463095210492611e-03
2.974999999999999867e-02 -1.054205349646508694e-03
2.989999999999999949e-02 -9.603150538168847561e-04
3.005000000000000032e-02 -8.648918592371046543e-04
3.020000000000000115e-02 -7.680403650738298893e-04
3.034999999999999851e-02 -6.698674405924975872e-04
3.049999999999999933e-02 -5.704803625121712685e-04
3.065000000000000016e-02 -4.699869896285235882e-04
3.080000000000000099e-02 -3.684981202241033316e-04
3.094999999999999835e-02 -2.661267935764044523e-04
3.109999999999999917e-02 -1.629865873837843537e-04
3.125000000000000000e-02 -5.919082468608394265e-05
3.139999999999999736e-02 4.514640750130638480e-05
3.155000000000000165e-02 1.499101635999977589e-04
3.169999999999999901e-02 2.549859636928886175e-04
3.185000000000000331e-02 3.602606884669512510e-04
3.200000000000000067e-02 4.656216478906571865e-04
3.214999999999999802e-02 5.709562101401388645e-04
3.230000000000000232e-02 6.761531112715601921e-04
3.244999999999999968e-02 7.811040850356221199e-04
3.259999999999999704e-02 8.857030188664793968e-04
3.275000000000000133e-02 9.898443240672349930e-04
3.289999999999999869e-02 1.093423808924853802e-03
3.305000000000000299e-02 1.196341356262564659e-03
3.320000000000000034e-02 1.298501738347113132e-03
3.334999999999999770e-02 1.399812288582324982e-03
3.350000000000000200e-02 1.500181504525244236e-03
3.364999999999999936e-02 1.599521143361926079e-03
3.379999999999999671e-02 1.697748666629195213e-03
3.395000000000000101e-02 1.794787123799324036e-03
3.409999999999999837e-02 1.890562591142952442e-03
3.425000000000000266e-02 1.985004171729087830e-03
3.440000000000000002e-02 2.078045159578323364e-03
3.454999999999999738e-02 2.169625135138630867e-03
3.470000000000000168e-02 2.259689616039395332e-03
3.484999999999999903e-02 2.348187379539012909e-03
3.500000000000000333e-02 2.435072558000683784e-03
3.515000000000000069e-02 2.520304638892412186e-03
3.529999999999999805e-02 2.603847999125719070e-03
3.545000000000000234e-02 2.685672603547573090e-03
3.559999999999999970e-02 2.765752607956528664e-03
3.574999999999999706e-02 2.844069153070449829e-03
3.590000000000000135e-02 2.920609433203935623e-03
3.604999999999999871e-02 2.995364135131239891e-03
3.620000000000000301e-02 3.068327903747558594e-03
3.635000000000000037e-02 3.139501903206110001e-03
3.649999999999999772e-02 3.208893351256847382e-03
3.665000000000000202e-02 3.276514820754528046e-03
3.679999999999999938e-02 3.342381678521633148e-03
3.694999999999999674e-02 3.406513249501585960e-03
3.710000000000000103e-02 3.468934912234544754e-03
3.724999999999999839e-02 3.529678098857402802e-03
3.740000000000000269e-02 3.588777501136064529e-03
3.755000000000000004e-02 3.646269906312227249e-03
3.769999999999999740e-02 3.702195361256599426e-03
3.785000000000000170e-02 3.756598569452762604e-03
3.799999999999999906e-02 3.809528890997171402e-03
3.815000000000000335e-02 3.861037548631429672e-03
3.830000000000000071e-02 3.911178093403577805e-03
3.844999999999999807e-02 3.960006870329380035e-03
3.860000000000000236e-02 4.007583484053611755e-03
3.874999999999999972e-02 4.053967073559761047e-03
3.889999999999999708e-02 4.099219106137752533e-03
3.905000000000000138e-02 4.143401049077510834e-03
3.919999999999999873e-02 4.186577629297971725e-03
3.935000000000000303e-02 4.228812642395496368e-03
3.950000000000000039e-02 4.270169418305158615e-03
3.964999999999999775e-02 4.310712218284606934e-03
3.980000000000000204e-02 4.350505769252777100e-03
3.994999999999999940e-02 4.389613866806030273e-03
4.009999999999999676e-02 4.428097046911716461e-03
4.025000000000000105e-02 4.466012120246887207e-03
4.039999999999999841e-02 4.503416363149881363e-03
4.055000000000000271e-02 4.540366120636463165e-03
4.070000000000000007e-02 4.576915875077247620e-03
4.084999999999999742e-02 4.613114986568689346e-03
4.100000000000000172e-02 4.649009089916944504e-03
4.114999999999999908e-02 4.684641957283020020e-03
4.130000000000000338e-02 4.720053635537624359e-03
4.145000000000000073e-02 4.755278583616018295e-03
4.159999999999999809e-02 4.790346138179302216e-03
4.175000000000000239e-02 4.825281444936990738e-03
4.189999999999999974e-02 4.860105924308300018e-03
4.204999999999999710e-02 4.894836340099573135e-03
4.220000000000000140e-02 4.929482936859130859e-03
4.234999999999999876e-02 4.964052233844995499e-03
4.250000000000000305e-02 4.998543765395879745e-03
4.265000000000000041e-02 5.032950546592473984e-03
4.279999999999999777e-02 5.067258141934871674e-03
4.295000000000000207e-02 5.101445596665143967e-03
4.309999999999999942e-02 5.135488696396350861e-03
4.324999999999999678e-02 5.169357638806104660e-03
4.340000000000000108e-02 5.203015170991420746e-03
4.354999999999999843e-02 5.236416589468717575e-03
4.370000000000000273e-02 5.269510671496391296e-03
4.385000000000000009e-02 5.302242469042539597e-03
4.399999999999999745e-02 5.334547720849514008e-03
4.415000000000000174e-02 5.366355646401643753e-03
4.429999999999999910e-02 5.397588945925235748e-03
4.445000000000000340e-02 5.428165663033723831e-03
4.460000000000000075e-02 5.458000116050243378e-03
4.474999999999999811e-02 5.486999638378620148e-03
4.490000000000000241e-02 5.515065509825944901e-03
4.504999999999999977e-02 5.542092956602573395e-03
4.519999999999999712e-02 5.567972082644701004e-03
4.535000000000000142e-02 5.592588335275650024e-03
4.549999999999999878e-02 5.615821108222007751e-03
4.565000000000000308e-02 5.637547001242637634e-03
4.580000000000000043e-02 5.657640751451253891e-03
4.594999999999999779e-02 5.675972439348697662e-03
4.610000000000000209e-02 5.692407488822937012e-03
4.624999999999999944e-02 5.706808529794216156e-03
4.639999999999999680e-02 5.719037260860204697e-03
4.655000000000000110e-02 5.728952120989561081e-03
4.669999999999999846e-02 5.736409220844507217e-03
4.685000000000000275e-02 5.741262808442115784e-03
4.700000000000000011e-02 5.743369460105895996e-03
4.714999999999999747e-02 5.742585752159357071e-03
4.730000000000000177e-02 5.738766863942146301e-03
4.744999999999999912e-02 5.731768906116485596e-03
4.760000000000000342e-02 5.721447989344596863e-03
4.775000000000000078e-02 5.707662552595138550e-03