-4.000000000000000083e-02 0.000000000000000000e+00
-3.984999999999999654e-02 0.000000000000000000e+00
-3.969999999999999918e-02 0.000000000000000000e+00
-3.955000000000000182e-02 0.000000000000000000e+00
-3.939999999999999752e-02 0.000000000000000000e+00
-3.925000000000000017e-02 0.000000000000000000e+00
-3.910000000000000281e-02 0.000000000000000000e+00
-3.894999999999999851e-02 0.000000000000000000e+00
-3.880000000000000115e-02 0.000000000000000000e+00
-3.864999999999999686e-02 0.000000000000000000e+00
-3.849999999999999950e-02 0.000000000000000000e+00
-3.835000000000000214e-02 0.000000000000000000e+00
-3.819999999999999785e-02 0.000000000000000000e+00
-3.805000000000000049e-02 0.000000000000000000e+00
-3.790000000000000313e-02 0.000000000000000000e+00
-3.774999999999999883e-02 0.000000000000000000e+00
-3.760000000000000148e-02 0.000000000000000000e+00
-3.744999999999999718e-02 0.000000000000000000e+00
-3.729999999999999982e-02 0.000000000000000000e+00
-3.715000000000000246e-02 0.000000000000000000e+00
-3.699999999999999817e-02 0.000000000000000000e+00
-3.685000000000000081e-02 0.000000000000000000e+00
-3.670000000000000345e-02 0.000000000000000000e+00
-3.654999999999999916e-02 0.000000000000000000e+00
-3.640000000000000180e-02 0.000000000000000000e+00
-3.624999999999999750e-02 0.000000000000000000e+00
-3.610000000000000014e-02 0.000000000000000000e+00
-3.595000000000000279e-02 0.000000000000000000e+00
-3.579999999999999849e-02 0.000000000000000000e+00
-3.565000000000000113e-02 0.000000000000000000e+00
-3.549999999999999684e-02 0.000000000000000000e+00
-3.534999999999999948e-02 0.000000000000000000e+00
-3.520000000000000212e-02 0.000000000000000000e+00
-3.504999999999999782e-02 0.000000000000000000e+00
-3.490000000000000047e-02 0.000000000000000000e+00
-3.475000000000000311e-02 0.000000000000000000e+00
-3.459999999999999881e-02 0.000000000000000000e+00
-3.445000000000000145e-02 0.000000000000000000e+00
-3.429999999999999716e-02 0.000000000000000000e+00
-3.414999999999999980e-02 0.000000000000000000e+00
-3.400000000000000244e-02 0.000000000000000000e+00
-3.384999999999999815e-02 0.000000000000000000e+00
-3.370000000000000079e-02 0.000000000000000000e+00
-3.355000000000000343e-02 0.000000000000000000e+00
-3.339999999999999913e-02 0.000000000000000000e+00
-3.325000000000000178e-02 0.000000000000000000e+00
-3.309999999999999748e-02 0.000000000000000000e+00
-3.295000000000000012e-02 0.000000000000000000e+00
-3.280000000000000276e-02 0.000000000000000000e+00
-3.264999999999999847e-02 0.000000000000000000e+00
-3.250000000000000111e-02 0.000000000000000000e+00
-3.234999999999999681e-02 0.000000000000000000e+00
-3.219999999999999946e-02 0.000000000000000000e+00
-3.205000000000000210e-02 0.000000000000000000e+00
-3.189999999999999780e-02 0.000000000000000000e+00
-3.175000000000000044e-02 0.000000000000000000e+00
-3.160000000000000309e-02 0.000000000000000000e+00
-3.144999999999999879e-02 0.000000000000000000e+00
-3.130000000000000143e-02 -0.000000000000000000e+00
-3.115000000000000061e-02 0.000000000000000000e+00
-3.099999999999999978e-02 0.000000000000000000e+00
-3.084999999999999895e-02 -0.000000000000000000e+00
-3.070000000000000159e-02 0.000000000000000000e+00
-3.055000000000000077e-02 9.809089250273719496e-45
-3.039999999999999994e-02 -4.624284932271896334e-44
-3.024999999999999911e-02 -4.358038224050181091e-43
-3.009999999999999828e-02 4.189882408331203042e-42
-2.995000000000000093e-02 1.084605011387408413e-41
-2.980000000000000010e-02 -2.380932207749653437e-40
-2.964999999999999927e-02 2.200458978529260246e-41
-2.949999999999999845e-02 1.040153862281175161e-38
-2.935000000000000109e-02 -1.699093866042494813e-38
-2.920000000000000026e-02 -3.796043999712521679e-37
-2.904999999999999943e-02 9.717081562560432051e-37
-2.889999999999999861e-02 1.221901840383138151e-35
-2.875000000000000125e-02 -3.586798023470101708e-35
-2.860000000000000042e-02 -3.594031503722170985e-34
-2.844999999999999959e-02 9.792482321818951903e-34
-2.829999999999999877e-02 9.765702172784320085e-33
-2.815000000000000141e-02 -1.929319629284625772e-32
-2.800000000000000058e-02 -2.408533381896988950e-31
-2.784999999999999976e-02 2.056801962243944082e-31
-2.769999999999999893e-02 5.165230511072503092e-30
-2.755000000000000157e-02 2.484009335095490254e-30
-2.740000000000000074e-02 -8.991953252490798739e-29
-2.724999999999999992e-02 -1.830798273672363765e-28
-2.709999999999999909e-02 1.116172121490639222e-27
-2.695000000000000173e-02 4.801959263753594020e-27
-2.680000000000000090e-02 -5.993327971771871795e-27
-2.665000000000000008e-02 -7.535657275774682274e-26
-2.649999999999999925e-02 -9.650105254987109424e-26
-2.634999999999999842e-02 6.274935892088778357e-25
-2.620000000000000107e-02 2.581463101434128790e-24
-2.605000000000000024e-02 5.343740320700673628e-25
-2.589999999999999941e-02 -2.214213442958691765e-23
-2.574999999999999858e-02 -6.692589265900678276e-23
-2.560000000000000123e-02 -2.222414125385007315e-23
-2.545000000000000040e-02 4.175612427467791578e-22
-2.529999999999999957e-02 1.461779401726610599e-21
-2.514999999999999875e-02 2.179516102861916639e-21
-2.500000000000000139e-02 -1.023763134546969924e-21
-2.485000000000000056e-02 -1.528854661727032998e-20
-2.469999999999999973e-02 -5.080644134937850879e-20
-2.454999999999999891e-02 -1.198882751103797614e-19
-2.440000000000000155e-02 -2.370811046465730552e-19
-2.425000000000000072e-02 -4.200221266776023310e-19
-2.409999999999999989e-02 -6.895640733074407130e-19
-2.394999999999999907e-02 -1.069372685258806892e-18
-2.380000000000000171e-02 -1.586326653699334515e-18
-2.365000000000000088e-02 -2.271289689945813865e-18
-2.350000000000000006e-02 -3.159127250022201921e-18
-2.334999999999999923e-02 -4.288743706088398957e-18
-2.319999999999999840e-02 -5.703877267008912002e-18
-2.305000000000000104e-02 -7.453590496456098788e-18
-2.290000000000000022e-02 -9.592332144660956083e-18
-2.274999999999999939e-02 -1.218063735680164584e-17
-2.259999999999999856e-02 -1.528592548870430257e-17
-2.245000000000000120e-02 -1.898276108232629385e-17
-2.230000000000000038e-02 -2.335356358672179082e-17
-2.214999999999999955e-02 -2.848960576504111963e-17
-2.199999999999999872e-02 -3.449153233677483229e-17
-2.185000000000000137e-02 -4.147019377581116003e-17
-2.170000000000000054e-02 -4.954784075924053991e-17
-2.154999999999999971e-02 -5.885890998893754020e-17
-2.139999999999999888e-02 -6.955107305657757762e-17
-2.125000000000000153e-02 -8.178670882512726172e-17
-2.110000000000000070e-02 -9.574392582408151040e-17
-2.094999999999999987e-02 -1.116179783826722408e-16
-2.079999999999999905e-02 -1.296229871655424793e-16
-2.065000000000000169e-02 -1.499933883931795549e-16
-2.050000000000000086e-02 -1.729856742299239105e-16
-2.035000000000000003e-02 -1.988805302186719397e-16
-2.019999999999999921e-02 -2.279846881654481062e-16
-2.004999999999999838e-02 -2.606331760706710873e-16
-1.990000000000000102e-02 -2.971919651071139442e-16
-1.975000000000000019e-02 -3.380602724907294694e-16
-1.959999999999999937e-02 -3.836734996261859749e-16
-1.944999999999999854e-02 -4.345063555408602927e-16
-1.930000000000000118e-02 -4.910759803188307748e-16
-1.915000000000000036e-02 -5.539455185211235224e-16
-1.899999999999999953e-02 -6.237279573037546321e-16
-1.884999999999999870e-02 -7.010899645357724416e-16
-1.870000000000000134e-02 -7.867567062991450387e-16
-1.855000000000000052e-02 -8.815160291139373296e-16
-1.839999999999999969e-02 -9.862239656524681916e-16
-1.824999999999999886e-02 -1.101809869876553202e-15
-1.810000000000000150e-02 -1.229282293328576216e-15
-1.795000000000000068e-02 -1.369735284939034570e-15
-1.779999999999999985e-02 -1.524355326108794723e-15
-1.764999999999999902e-02 -1.694427683456196671e-15
-1.750000000000000167e-02 -1.881345302663000110e-15
-1.735000000000000084e-02 -2.086615902375317695e-15
-1.720000000000000001e-02 -2.311871820961626869e-15
-1.704999999999999918e-02 -2.558878275084005595e-15
-1.689999999999999836e-02 -2.829544053489091437e-15
-1.675000000000000100e-02 -3.125932740194632686e-15
-1.660000000000000017e-02 -3.450272878884855406e-15
-1.644999999999999934e-02 -3.804971525437619503e-15
-1.629999999999999852e-02 -4.192625894627443478e-15
-1.615000000000000116e-02 -4.616040300784449504e-15
-1.600000000000000033e-02 -5.078235686915020045e-15
-1.584999999999999951e-02 -5.582471012283716019e-15
-1.569999999999999868e-02 -6.132255534391011995e-15
-1.554999999999999959e-02 -6.731369984796977540e-15
-1.540000000000000049e-02 -7.383883509780222315e-15
-1.524999999999999967e-02 -8.094174846161577425e-15
-1.510000000000000057e-02 -8.866955191193671287e-15
-1.494999999999999975e-02 -9.707284719703401094e-15
-1.480000000000000066e-02 -1.062060477134392847e-14
-1.464999999999999983e-02 -1.161275733235246632e-14
-1.450000000000000074e-02 -1.269001722280227451e-14
-1.434999999999999991e-02 -1.385911411945928845e-14
-1.420000000000000082e-02 -1.512727490742948183e-14
-1.404999999999999999e-02 -1.650223469158718093e-14
-1.389999999999999916e-02 -1.799229778294726689e-14
-1.375000000000000007e-02 -1.960634616899464833e-14
-1.359999999999999924e-02 -2.135390219412235807e-14
-1.345000000000000015e-02 -2.324514888842228733e-14
-1.329999999999999932e-02 -2.529098756592559893e-14
-1.315000000000000023e-02 -2.750306662372293404e-14
-1.299999999999999940e-02 -2.989384252833661437e-14
-1.285000000000000031e-02 -3.247662216736800500e-14
-1.269999999999999948e-02 -3.526561367147434956e-14
-1.255000000000000039e-02 -3.827598909480686706e-14
-1.239999999999999956e-02 -4.152392676665811466e-14
-1.225000000000000047e-02 -4.502668244222955696e-14
-1.209999999999999964e-02 -4.880265706526734637e-14
-1.195000000000000055e-02 -5.287144759003915839e-14
-1.179999999999999973e-02 -5.725393846089249505e-14
-1.165000000000000063e-02 -6.197235243423152018e-14
-1.149999999999999981e-02 -6.705033528181178482e-14
-1.135000000000000071e-02 -7.251304727029853070e-14
-1.119999999999999989e-02 -7.838722075950710355e-14
-1.105000000000000079e-02 -8.470122796503873341e-14
-1.089999999999999997e-02 -9.148516904970704910e-14
-1.074999999999999914e-02 -9.877093988617385856e-14
-1.060000000000000005e-02 -1.065923811347478656e-13
-1.044999999999999922e-02 -1.149855628464549473e-13
-1.030000000000000013e-02 -1.239893062353336628e-13
-1.014999999999999930e-02 -1.336458613047930566e-13
-1.000000000000000021e-02 -1.440016590128698204e-13
-9.850001000000000589e-03 -1.551071418656388423e-13
-9.700001999999999236e-03 -1.670142295946350219e-13
-9.550001000000000670e-03 -1.797690821073519296e-13
-9.400000999999999843e-03 -1.933984927499771134e-13
-9.250002000000000224e-03 -2.078913348977154407e-13
-9.100000999999999923e-03 -2.231859038944253304e-13
-8.950001000000000831e-03 -2.391885517774583469e-13
-8.800001999999999477e-03 -2.558690022011478327e-13
-8.650000999999999177e-03 -2.734889138072960080e-13
-8.500001999999999558e-03 -2.929979392787829262e-13
-8.349999999999999784e-03 -3.165346945058905570e-13
-8.200001000000000165e-03 -3.477528594947321139e-13
-8.050002000000000546e-03 -3.913386812954416927e-13
-7.900000000000000772e-03 -4.506691244146598940e-13
-7.750001000000000285e-03 -5.223277322816133328e-13
-7.600001999999999799e-03 -5.866465624913830279e-13
-7.449998999999999684e-03 -5.953217519644171674e-13
-7.300001000000000406e-03 -4.612385777133520826e-13
-7.150001999999999920e-03 -6.225089074860662430e-14
-7.000003000000000301e-03 7.212954192259424246e-13
-6.850000000000000186e-03 1.909639330346935004e-12
-6.700002000000000041e-03 3.245101670018568640e-12
-6.550003000000000422e-03 3.933223104851668595e-12
-6.400000000000000307e-03 2.359798988160743960e-12
-6.250000999999999821e-03 -4.066283768033862600e-12
-6.100002999999999675e-03 -1.866967344610337420e-11
-5.950000000000000427e-03 -4.446778362199310664e-11
-5.800000999999999941e-03 -8.188705963307896241e-11
-5.650002999999999796e-03 -1.249238490430570891e-10
-5.499999999999999681e-03 -1.558808637724951041e-10
-5.350001000000000062e-03 -1.396676940768060149e-10
-5.200001999999999576e-03 -1.993330674132653968e-11
-5.049999999999999802e-03 2.791771813726029450e-10
-4.900001000000000183e-03 8.405105500486342862e-10
-4.750001999999999697e-03 1.725051990142389968e-09
-4.599999999999999922e-03 2.922428077312133610e-09
-4.450001000000000304e-03 4.280249488175513761e-09
-4.300001999999999817e-03 5.418351101127427683e-09
-4.149998999999999702e-03 5.642690759088964114e-09
-4.000001000000000424e-03 3.882651977704654200e-09
-3.850001999999999938e-03 -1.318399500682687631e-09
-3.699998999999999823e-03 -1.172998587151141692e-08
-3.550000000000000204e-03 -2.926002018455164944e-08
-3.400002000000000059e-03 -5.568195149407983990e-08
-3.250003000000000006e-03 -9.229732711446558824e-08
-3.099999999999999891e-03 -1.396005444576076115e-07
-2.950002000000000180e-03 -1.970370675508092972e-07
-2.800003000000000127e-03 -2.629507207529968582e-07
-2.650000000000000012e-03 -3.347897461480897618e-07
-2.500000999999999959e-03 -4.095849419627484167e-07
-2.350002999999999814e-03 -4.846328351959527936e-07
-2.200000000000000133e-03 -5.582370476986397989e-07
-2.050001000000000080e-03 -6.303066584223415703e-07
-1.900002000000000028e-03 -7.026117714303836692e-07
-1.750000000000000036e-03 -7.785620255162939429e-07
-1.600000999999999984e-03 -8.625085001767729409e-07
-1.450001999999999932e-03 -9.587228078089538030e-07
-1.299999999999999940e-03 -1.070343500941817183e-06
-1.150001000000000105e-03 -1.198635345645016059e-06
-1.000002000000000052e-03 -1.342840960205649026e-06
-8.499994999999999990e-04 -1.500734924775315449e-06
-7.000007000000000148e-04 -1.669740640863892622e-06
-5.500019000000000305e-04 -1.848252395575400442e-06
-3.999992999999999973e-04 -2.036686737483250909e-06
-2.500005000000000131e-04 -2.237849457742413506e-06
-1.000017000000000017e-04 -2.456435822750790976e-06
5.000085000000000087e-05 -2.697813897611922584e-06
1.999996999999999886e-04 -2.966548663607682101e-06
3.499985000000000270e-04 -3.265260147600201890e-06
4.999972999999999571e-04 -3.594316240196349099e-06
6.499998000000000104e-04 -3.952533916162792593e-06
7.999985999999999946e-04 -4.338631697464734316e-06
9.499975000000000129e-04 -4.752841050503775477e-06
1.100000000000000066e-03 -5.197955488256411627e-06
1.249998999999999902e-03 -5.679341484210453928e-06
1.399997999999999954e-03 -6.203867997101042420e-06
1.549999999999999946e-03 -6.778214810765348375e-06
1.699998999999999998e-03 -7.407354132737964392e-06
1.849998000000000050e-03 -8.093930773611646146e-06
2.000000000000000042e-03 -8.838882422423921525e-06
2.149999000000000094e-03 -9.643038538342807442e-06
2.299998000000000146e-03 -1.050894934451207519e-05
2.449999999999999921e-03 -1.144204361480660737e-05
2.599998999999999973e-03 -1.245053044840460643e-05
2.749998000000000026e-03 -1.354406140308128670e-05
2.900001000000000141e-03 -1.473183965572388843e-05
3.049998999999999853e-03 -1.602114025445189327e-05
3.199997999999999905e-03 -1.741705091262701899e-05
3.350001000000000020e-03 -1.892360705824103206e-05
3.500000000000000073e-03 -2.054575634247157723e-05
3.649997999999999784e-03 -2.229112942586652935e-05
3.800000999999999900e-03 -2.417067116766702384e-05
3.950000000000000386e-03 -2.619776751089375466e-05
4.099999000000000005e-03 -2.838634645740967244e-05
4.249997000000000150e-03 -3.074902633670717478e-05
4.400000000000000265e-03 -3.329632454551756382e-05
4.549998999999999884e-03 -3.603747245506383479e-05
4.699998000000000370e-03 -3.898235445376485586e-05
4.850000000000000144e-03 -4.214355794829316437e-05
4.999998999999999763e-03 -4.553733742795884609e-05
5.149998000000000249e-03 -4.918294143863022327e-05
5.300000000000000024e-03 -5.310073174769058824e-05
5.449998999999999642e-03 -5.731015698984265327e-05
5.599998000000000128e-03 -6.182884681038558483e-05
5.749999999999999903e-03 -6.667337584076449275e-05
5.899999000000000389e-03 -7.186133734649047256e-05
6.049998000000000008e-03 -7.741346053080633283e-05
6.200001000000000123e-03 -8.335452730534598231e-05
6.349999000000000268e-03 -8.971261559054255486e-05
6.499997999999999887e-03 -9.651706204749643803e-05
6.650001000000000002e-03 -1.037964102579280734e-04
6.799999999999999621e-03 -1.115777558879926801e-04
6.949997999999999766e-03 -1.198878235300071537e-04
7.100000999999999882e-03 -1.287552004214376211e-04
7.250000000000000368e-03 -1.382124028168618679e-04
7.399998999999999987e-03 -1.482964580645784736e-04
7.550000999999999761e-03 -1.590475585544481874e-04
7.700000000000000247e-03 -1.705069298623129725e-04
7.849998999999999866e-03 -1.827150117605924606e-04
7.999997999999999485e-03 -1.957113563548773527e-04
8.149999999999999259e-03 -2.095362433465197682e-04
8.299999000000000612e-03 -2.242331102024763823e-04
8.449998000000000231e-03 -2.398501674178987741e-04
8.600000000000000006e-03 -2.564402238931506872e-04
8.749998999999999624e-03 -2.740588097367435694e-04
8.899997999999999243e-03 -2.927618334069848061e-04
9.050000000000000752e-03 -3.126045630779117346e-04
9.199999000000000371e-03 -3.336422087159007788e-04
9.349997999999999990e-03 -3.559323376975953579e-04
9.500000999999999238e-03 -3.795370284933596849e-04
9.649998999999999383e-03 -4.045235982630401850e-04
9.799998000000000736e-03 -4.309632931835949421e-04
9.950000999999999984e-03 -4.589290765579789877e-04
1.009999999999999960e-02 -4.884936497546732426e-04
1.025000000000000043e-02 -5.197294522076845169e-04
1.039999999999999952e-02 -5.527103785425424576e-04
1.055000000000000035e-02 -5.875141941942274570e-04
1.069999999999999944e-02 -6.242240779101848602e-04
1.085000000000000027e-02 -6.629278650507330894e-04
1.099999999999999936e-02 -7.037158356979489326e-04
1.115000000000000019e-02 -7.466785609722137451e-04
1.129999999999999928e-02 -7.919059717096388340e-04
1.145000000000000011e-02 -8.394887554459273815e-04
1.159999999999999920e-02 -8.895206265151500702e-04
1.175000000000000003e-02 -9.421001886948943138e-04
1.190000000000000085e-02 -9.973308769986033440e-04
1.204999999999999995e-02 -1.055318629369139671e-03
1.220000000000000077e-02 -1.116170082241296768e-03
1.234999999999999987e-02 -1.179990358650684357e-03
1.250000000000000069e-02 -1.246884581632912159e-03
1.264999999999999979e-02 -1.316959736868739128e-03
1.280000000000000061e-02 -1.390326535329222679e-03
1.294999999999999971e-02 -1.467099995352327824e-03
1.310000000000000053e-02 -1.547397696413099766e-03
1.324999999999999963e-02 -1.631336286664009094e-03
1.340000000000000045e-02 -1.719030900858342648e-03
1.354999999999999954e-02 -1.810594578273594379e-03
1.370000000000000037e-02 -1.906140823848545551e-03
1.384999999999999946e-02 -2.005785703659057617e-03
1.400000000000000029e-02 -2.109647961333394051e-03
1.414999999999999938e-02 -2.217847155407071114e-03
1.430000000000000021e-02 -2.330501563847064972e-03
1.444999999999999930e-02 -2.447724808007478714e-03
1.460000000000000013e-02 -2.569627715274691582e-03
1.474999999999999922e-02 -2.696318784728646278e-03
1.490000000000000005e-02 -2.827906981110572815e-03
1.504999999999999914e-02 -2.964502200484275818e-03
1.519999999999999997e-02 -3.106212709099054337e-03
1.535000000000000080e-02 -3.253142116591334343e-03
1.549999999999999989e-02 -3.405388910323381424e-03
1.565000000000000072e-02 -3.563044359907507896e-03
1.580000000000000154e-02 -3.726196009665727615e-03
1.594999999999999890e-02 -3.894928377121686935e-03
1.609999999999999973e-02 -4.069323651492595673e-03
1.625000000000000056e-02 -4.249460063874721527e-03
1.640000000000000138e-02 -4.435407929122447968e-03
1.654999999999999874e-02 -4.627228714525699615e-03
1.669999999999999957e-02 -4.824974108487367630e-03
1.685000000000000039e-02 -5.028688348829746246e-03
1.700000000000000122e-02 -5.238409154117107391e-03
1.714999999999999858e-02 -5.454169120639562607e-03
1.729999999999999941e-02 -5.675992928445339203e-03
1.745000000000000023e-02 -5.903893150389194489e-03
1.760000000000000106e-02 -6.137869786471128464e-03
1.774999999999999842e-02 -6.377910263836383820e-03
1.789999999999999925e-02 -6.623990368098020554e-03
1.805000000000000007e-02 -6.876076571643352509e-03
1.820000000000000090e-02 -7.134125567972660065e-03
1.835000000000000173e-02 -7.398082874715328217e-03
1.849999999999999908e-02 -7.667877245694398880e-03
1.864999999999999991e-02 -7.943422533571720123e-03
1.880000000000000074e-02 -8.224614895880222321e-03
1.895000000000000157e-02 -8.511335588991641998e-03
1.909999999999999892e-02 -8.803454227745532990e-03
1.924999999999999975e-02 -9.100827388465404510e-03
1.940000000000000058e-02 -9.403296746313571930e-03
1.955000000000000140e-02 -9.710684418678283691e-03
1.969999999999999876e-02 -1.002279017120599747e-02
1.984999999999999959e-02 -1.033939793705940247e-02
2.000000000000000042e-02 -1.066027395427227020e-02
2.015000000000000124e-02 -1.098517142236232758e-02
2.029999999999999860e-02 -1.131382398307323456e-02
2.044999999999999943e-02 -1.164594944566488266e-02
2.060000000000000026e-02 -1.198124233633279800e-02
2.075000000000000108e-02 -1.231937762349843979e-02
2.089999999999999844e-02 -1.266001071780920029e-02
2.104999999999999927e-02 -1.300278026610612869e-02
2.120000000000000009e-02 -1.334730628877878189e-02
2.135000000000000092e-02 -1.369319297373294830e-02
2.149999999999999828e-02 -1.404002495110034943e-02
2.164999999999999911e-02 -1.438736822456121445e-02
2.179999999999999993e-02 -1.473476365208625793e-02
2.195000000000000076e-02 -1.508173719048500061e-02
2.210000000000000159e-02 -1.542779617011547089e-02
2.224999999999999895e-02 -1.577243581414222717e-02
2.239999999999999977e-02 -1.611513458192348480e-02
2.255000000000000060e-02 -1.645535789430141449e-02
2.270000000000000143e-02 -1.679254136979579926e-02
2.284999999999999878e-02 -1.712611317634582520e-02
2.299999999999999961e-02 -1.745548471808433533e-02
2.315000000000000044e-02 -1.778005622327327728e-02
2.330000000000000127e-02 -1.809921860694885254e-02
2.344999999999999862e-02 -1.841234788298606873e-02
2.359999999999999945e-02 -1.871880702674388885e-02
2.375000000000000028e-02 -1.901794970035552979e-02
2.390000000000000110e-02 -1.930911839008331299e-02
2.404999999999999846e-02 -1.959164999425411224e-02
2.419999999999999929e-02 -1.986487396061420441e-02
2.435000000000000012e-02 -2.012811601161956787e-02
2.450000000000000094e-02 -2.038070373237133026e-02
2.464999999999999830e-02 -2.062195353209972382e-02
2.479999999999999913e-02 -2.085117995738983154e-02
2.494999999999999996e-02 -2.106769755482673645e-02
2.510000000000000078e-02 -2.127082087099552155e-02
2.525000000000000161e-02 -2.145987935364246368e-02
2.539999999999999897e-02 -2.163420245051383972e-02
2.554999999999999979e-02 -2.179312705993652344e-02
2.570000000000000062e-02 -2.193598635494709015e-02
2.585000000000000145e-02 -2.206213213503360748e-02
2.599999999999999881e-02 -2.217092365026473999e-02
2.614999999999999963e-02 -2.226174250245094299e-02
2.630000000000000046e-02 -2.233397960662841797e-02
2.645000000000000129e-02 -2.238704636693000793e-02
2.659999999999999865e-02 -2.242036908864974976e-02
2.674999999999999947e-02 -2.243339270353317261e-02
2.690000000000000030e-02 -2.242558449506759644e-02
2.705000000000000113e-02 -2.239643223583698273e-02
2.719999999999999848e-02 -2.234545908868312836e-02
2.734999999999999931e-02 -2.227221243083477020e-02
2.750000000000000014e-02 -2.217626944184303284e-02
2.765000000000000097e-02 -2.205723337829113007e-02
2.779999999999999832e-02 -2.191473916172981262e-02
2.794999999999999915e-02 -2.174845524132251740e-02
2.809999999999999998e-02 -2.155808731913566589e-02
2.825000000000000080e-02 -2.134338207542896271e-02
2.840000000000000163e-02 -2.110412344336509705e-02
2.854999999999999899e-02 -2.084012888371944427e-02
2.869999999999999982e-02 -2.055126056075096130e-02
2.885000000000000064e-02 -2.023741602897644043e-02
2.900000000000000147e-02 -1.989854127168655396e-02
2.914999999999999883e-02 -1.953462697565555573e-02
2.929999999999999966e-02 -1.914570853114128113e-02
2.945000000000000048e-02 -1.873186975717544556e-02
2.960000000000000131e-02 -1.829323358833789825e-02
2.974999999999999867e-02 -1.782996952533721924e-02
2.989999999999999949e-02 -1.734229736030101776e-02
3.005000000000000032e-02 -1.683048158884048462e-02
3.020000000000000115e-02 -1.629484258592128754e-02
3.034999999999999851e-02 -1.573574542999267578e-02
3.049999999999999933e-02 -1.515360083431005478e-02
3.065000000000000016e-02 -1.454886794090270996e-02
3.080000000000000099e-02 -1.392204873263835907e-02
3.094999999999999835e-02 -1.327369734644889832e-02
3.109999999999999917e-02 -1.260441634804010391e-02
3.125000000000000000e-02 -1.191485207527875900e-02
3.139999999999999736e-02 -1.120569929480552673e-02
3.155000000000000165e-02 -1.047769561409950256e-02
3.169999999999999901e-02 -9.731616824865341187e-03
3.185000000000000331e-02 -8.968281559646129608e-03
3.200000000000000067e-02 -8.188552223145961761e-03
3.214999999999999802e-02 -7.393331732600927353e-03
3.230000000000000232e-02 -6.583565380424261093e-03
3.244999999999999968e-02 -5.760228727012872696e-03
3.259999999999999704e-02 -4.924329929053783417e-03
3.275000000000000133e-02 -4.076909739524126053e-03
3.289999999999999869e-02 -3.219041740521788597e-03
3.305000000000000299e-02 -2.351830014958977699e-03
3.320000000000000034e-02 -1.476405421271920204e-03
3.334999999999999770e-02 -5.939222755841910839e-04
3.350000000000000200e-02 2.944447332993149757e-04
3.364999999999999936e-02 1.187503105029463768e-03
3.379999999999999671e-02 2.084044041112065315e-03
3.395000000000000101e-02 2.982842037454247475e-03
3.409999999999999837e-02 3.882657270878553391e-03
3.425000000000000266e-02 4.782240372151136398e-03
3.440000000000000002e-02 5.680338479578495026e-03
3.454999999999999738e-02 6.575697101652622223e-03
3.470000000000000168e-02 7.467063609510660172e-03
3.484999999999999903e-02 8.353180252015590668e-03
3.500000000000000333e-02 9.232794865965843201e-03
3.515000000000000069e-02 1.010466273874044418e-02
3.529999999999999805e-02 1.096754986792802811e-02
3.545000000000000234e-02 1.182023808360099792e-02
3.559999999999999970e-02 1.266152225434780121e-02
3.574999999999999706e-02 1.349022146314382553e-02
3.590000000000000135e-02 1.430517062544822693e-02
3.604999999999999871e-02 1.510522700846195221e-02
3.620000000000000301e-02 1.588927209377288818e-02
3.635000000000000037e-02 1.665621809661388397e-02
3.649999999999999772e-02 1.740501448512077332e-02
3.665000000000000202e-02 1.813464425504207611e-02
3.679999999999999938e-02 1.884412206709384918e-02
3.694999999999999674e-02 1.953249983489513397e-02
3.710000000000000103e-02 2.019886858761310577e-02
3.724999999999999839e-02 2.084236033260822296e-02
3.740000000000000269e-02 2.146215923130512238e-02
3.755000000000000004e-02 2.205748856067657471e-02
3.769999999999999740e-02 2.262762375175952911e-02
3.785000000000000170e-02 2.317188307642936707e-02
3.799999999999999906e-02 2.368963882327079773e-02
3.815000000000000335e-02 2.418030798435211182e-02
3.830000000000000071e-02 2.464336901903152466e-02
3.844999999999999807e-02 2.507835254073143005e-02
3.860000000000000236e-02 2.548484317958354950e-02
3.874999999999999972e-02 2.586247585713863373e-02
3.889999999999999708e-02 2.621094137430191040e-02
3.905000000000000138e-02 2.652998454868793488e-02
3.919999999999999873e-02 2.681941166520118713e-02
3.935000000000000303e-02 2.707908488810062408e-02
3.950000000000000039e-02 2.730892226099967957e-02
3.964999999999999775e-02 2.750889770686626434e-02
3.980000000000000204e-02 2.767903730273246765e-02
3.994999999999999940e-02 2.781942114233970642e-02
4.009999999999999676e-02 2.793018147349357605e-02
4.025000000000000105e-02 2.801151201128959656e-02
4.039999999999999841e-02 2.806365676224231720e-02
4.055000000000000271e-02 2.808691374957561493e-02
4.070000000000000007e-02 2.808162756264209747e-02
4.084999999999999742e-02 2.804818935692310333e-02
4.100000000000000172e-02 2.798704244196414948e-02
4.114999999999999908e-02 2.789867296814918518e-02
4.130000000000000338e-02 2.778361551463603973e-02
4.145000000000000073e-02 2.764244377613067627e-02
4.159999999999999809e-02 2.747577615082263947e-02
4.175000000000000239e-02 2.728426828980445862e-02
4.189999999999999974e-02 2.706861682236194611e-02
4.204999999999999710e-02 2.682955004274845123e-02
4.220000000000000140e-02 2.656783349812030792e-02
4.234999999999999876e-02 2.628426253795623779e-02
4.250000000000000305e-02 2.597966045141220093e-02
4.265000000000000041e-02 2.565487287938594818e-02
4.279999999999999777e-02 2.531077153980731964e-02
4.295000000000000207e-02 2.494825236499309540e-02
4.309999999999999942e-02 2.456823550164699554e-02
4.324999999999999678e-02 2.417166158556938171e-02
4.340000000000000108e-02 2.375948429107666016e-02
4.354999999999999843e-02 2.333266474306583405e-02
4.370000000000000273e-02 2.289217151701450348e-02
4.385000000000000009e-02 2.243898250162601471e-02
4.399999999999999745e-02 2.197408117353916168e-02
4.415000000000000174e-02 2.149846591055393219e-02
4.429999999999999910e-02 2.101312950253486633e-02
4.445000000000000340e-02 2.051907032728195190e-02
4.460000000000000075e-02 2.001728117465972900e-02
4.474999999999999811e-02 1.950874365866184235e-02
4.490000000000000241e-02 1.899443194270133972e-02
4.504999999999999977e-02 1.847531646490097046e-02
4.519999999999999712e-02 1.795235276222229004e-02
4.535000000000000142e-02 1.742648519575595856e-02
4.549999999999999878e-02 1.689864136278629303e-02
4.565000000000000308e-02 1.636973768472671509e-02
4.580000000000000043e-02 1.584067195653915405e-02
4.594999999999999779e-02 1.531232800334692001e-02
4.610000000000000209e-02 1.478556450456380844e-02
4.624999999999999944e-02 1.426120847463607788e-02
4.639999999999999680e-02 1.374006457626819611e-02
4.655000000000000110e-02 1.322291512042284012e-02
4.669999999999999846e-02 1.271051540970802307e-02
4.685000000000000275e-02 1.220359839498996735e-02
4.700000000000000011e-02 1.170287374407052994e-02
4.714999999999999747e-02 1.120902225375175476e-02
4.730000000000000177e-02 1.072268839925527573e-02
4.744999999999999912e-02 1.024448312819004059e-02
4.760000000000000342e-02 9.774981997907161713e-03
4.775000000000000078e-02 9.314731694757938385e-03