-4.000000000000000083e-02 0.000000000000000000e+00
-3.984999999999999654e-02 0.000000000000000000e+00
-3.969999999999999918e-02 0.000000000000000000e+00
-3.955000000000000182e-02 0.000000000000000000e+00
-3.939999999999999752e-02 0.000000000000000000e+00
-3.925000000000000017e-02 0.000000000000000000e+00
-3.910000000000000281e-02 0.000000000000000000e+00
-3.894999999999999851e-02 0.000000000000000000e+00
-3.880000000000000115e-02 0.000000000000000000e+00
-3.864999999999999686e-02 0.000000000000000000e+00
-3.849999999999999950e-02 0.000000000000000000e+00
-3.835000000000000214e-02 0.000000000000000000e+00
-3.819999999999999785e-02 0.000000000000000000e+00
-3.805000000000000049e-02 0.000000000000000000e+00
-3.790000000000000313e-02 0.000000000000000000e+00
-3.774999999999999883e-02 0.000000000000000000e+00
-3.760000000000000148e-02 0.000000000000000000e+00
-3.744999999999999718e-02 0.000000000000000000e+00
-3.729999999999999982e-02 0.000000000000000000e+00
-3.715000000000000246e-02 0.000000000000000000e+00
-3.699999999999999817e-02 0.000000000000000000e+00
-3.685000000000000081e-02 0.000000000000000000e+00
-3.670000000000000345e-02 0.000000000000000000e+00
-3.654999999999999916e-02 0.000000000000000000e+00
-3.640000000000000180e-02 0.000000000000000000e+00
-3.624999999999999750e-02 0.000000000000000000e+00
-3.610000000000000014e-02 0.000000000000000000e+00
-3.595000000000000279e-02 0.000000000000000000e+00
-3.579999999999999849e-02 0.000000000000000000e+00
-3.565000000000000113e-02 0.000000000000000000e+00
-3.549999999999999684e-02 0.000000000000000000e+00
-3.534999999999999948e-02 0.000000000000000000e+00
-3.520000000000000212e-02 0.000000000000000000e+00
-3.504999999999999782e-02 0.000000000000000000e+00
-3.490000000000000047e-02 0.000000000000000000e+00
-3.475000000000000311e-02 0.000000000000000000e+00
-3.459999999999999881e-02 0.000000000000000000e+00
-3.445000000000000145e-02 0.000000000000000000e+00
-3.429999999999999716e-02 0.000000000000000000e+00
-3.414999999999999980e-02 0.000000000000000000e+00
-3.400000000000000244e-02 0.000000000000000000e+00
-3.384999999999999815e-02 0.000000000000000000e+00
-3.370000000000000079e-02 0.000000000000000000e+00
-3.355000000000000343e-02 0.000000000000000000e+00
-3.339999999999999913e-02 0.000000000000000000e+00
-3.325000000000000178e-02 0.000000000000000000e+00
-3.309999999999999748e-02 0.000000000000000000e+00
-3.295000000000000012e-02 0.000000000000000000e+00
-3.280000000000000276e-02 0.000000000000000000e+00
-3.264999999999999847e-02 0.000000000000000000e+00
-3.250000000000000111e-02 0.000000000000000000e+00
-3.234999999999999681e-02 0.000000000000000000e+00
-3.219999999999999946e-02 0.000000000000000000e+00
-3.205000000000000210e-02 0.000000000000000000e+00
-3.189999999999999780e-02 0.000000000000000000e+00
-3.175000000000000044e-02 0.000000000000000000e+00
-3.160000000000000309e-02 0.000000000000000000e+00
-3.144999999999999879e-02 0.000000000000000000e+00
-3.130000000000000143e-02 0.000000000000000000e+00
-3.115000000000000061e-02 0.000000000000000000e+00
-3.099999999999999978e-02 0.000000000000000000e+00
-3.084999999999999895e-02 0.000000000000000000e+00
-3.070000000000000159e-02 -0.000000000000000000e+00
-3.055000000000000077e-02 0.000000000000000000e+00
-3.039999999999999994e-02 -4.203895392974451213e-45
-3.024999999999999911e-02 4.624284932271896334e-44
-3.009999999999999828e-02 -5.563154903369523772e-43
-2.995000000000000093e-02 4.435109639588046029e-42
-2.980000000000000010e-02 -1.755826975798995790e-42
-2.964999999999999927e-02 -7.032584499029813448e-40
-2.949999999999999845e-02 1.462450008269180628e-38
-2.935000000000000109e-02 -1.819297276338246908e-37
-2.920000000000000026e-02 1.412098462165959584e-36
-2.904999999999999943e-02 -2.979084663250508690e-36
-2.889999999999999861e-02 -9.451379804737988700e-35
-2.875000000000000125e-02 1.562914329979273973e-33
-2.860000000000000042e-02 -1.216033844904286516e-32
-2.844999999999999959e-02 2.783826292768480666e-32
-2.829999999999999877e-02 4.957173935468486347e-31
-2.815000000000000141e-02 -6.370512829140108023e-30
-2.800000000000000058e-02 2.911377440342590464e-29
-2.784999999999999976e-02 7.373526310821043277e-29
-2.769999999999999893e-02 -1.742811177123936397e-27
-2.755000000000000157e-02 7.941404954961594228e-27
-2.740000000000000074e-02 1.593352657870670417e-26
-2.724999999999999992e-02 -3.127496004645296944e-25
-2.709999999999999909e-02 8.188800208930658834e-25
-2.695000000000000173e-02 4.638463862945646197e-24
-2.680000000000000090e-02 -2.924049575910464536e-23
-2.665000000000000008e-02 -2.380201768102952008e-23
-2.649999999999999925e-02 4.907231818357539072e-22
-2.634999999999999842e-02 -1.025632204777815414e-22
-2.620000000000000107e-02 -5.573397564540250136e-21
-2.605000000000000024e-02 -5.432806041948841367e-22
-2.589999999999999941e-02 4.420212471000429892e-20
-2.574999999999999858e-02 6.639893806767086302e-20
-2.560000000000000123e-02 -1.116170764456118282e-19
-2.545000000000000040e-02 -6.318001899764845461e-19
-2.529999999999999957e-02 -1.613658045306581948e-18
-2.514999999999999875e-02 -3.218495656946357823e-18
-2.500000000000000139e-02 -5.570560154093434255e-18
-2.485000000000000056e-02 -8.821800169178009956e-18
-2.469999999999999973e-02 -1.313899227089333264e-17
-2.454999999999999891e-02 -1.867926355249691268e-17
-2.440000000000000155e-02 -2.564407798807910273e-17
-2.425000000000000072e-02 -3.422452836121006559e-17
-2.409999999999999989e-02 -4.464745737435389336e-17
-2.394999999999999907e-02 -5.715522894698862313e-17
-2.380000000000000171e-02 -7.200633040309217564e-17
-2.365000000000000088e-02 -8.949811001182021285e-17
-2.350000000000000006e-02 -1.099382657261526602e-16
-2.334999999999999923e-02 -1.336787397356736795e-16
-2.319999999999999840e-02 -1.610957668701968899e-16
-2.305000000000000104e-02 -1.926003367801529384e-16
-2.290000000000000022e-02 -2.286525207047989186e-16
-2.274999999999999939e-02 -2.697352597729677903e-16
-2.259999999999999856e-02 -3.164034664442295268e-16
-2.245000000000000120e-02 -3.692319849221941796e-16
-2.230000000000000038e-02 -4.288810244496872722e-16
-2.214999999999999955e-02 -4.960401757248922121e-16
-2.199999999999999872e-02 -5.714895296224506080e-16
-2.185000000000000137e-02 -6.560567696807279199e-16
-2.170000000000000054e-02 -7.506628854111855893e-16
-2.154999999999999971e-02 -8.562963113237101812e-16
-2.139999999999999888e-02 -9.740469141236219631e-16
-2.125000000000000153e-02 -1.105088840294493006e-15
-2.110000000000000070e-02 -1.250712968047938863e-15
-2.094999999999999987e-02 -1.412308537296574993e-15
-2.079999999999999905e-02 -1.591403383719011341e-15
-2.065000000000000169e-02 -1.789639163046145148e-15
-2.050000000000000086e-02 -2.008818467268851972e-15
-2.035000000000000003e-02 -2.250881001836344160e-15
-2.019999999999999921e-02 -2.517946043182651972e-15
-2.004999999999999838e-02 -2.812304180155387849e-15
-1.990000000000000102e-02 -3.136441030938269536e-15
-1.975000000000000019e-02 -3.493056513050670116e-15
-1.959999999999999937e-02 -3.885063149281723499e-15
-1.944999999999999854e-02 -4.315632866260660228e-15
-1.930000000000000118e-02 -4.788177724457257436e-15
-1.915000000000000036e-02 -5.306411539828751606e-15
-1.899999999999999953e-02 -5.874328919754394016e-15
-1.884999999999999870e-02 -6.496267096440600311e-15
-1.870000000000000134e-02 -7.176898303624425213e-15
-1.855000000000000052e-02 -7.921273398770346114e-15
-1.839999999999999969e-02 -8.734850238673996098e-15
-1.824999999999999886e-02 -9.623504690890478247e-15
-1.810000000000000150e-02 -1.059359034955714707e-14
-1.795000000000000068e-02 -1.165193684132771398e-14
-1.779999999999999985e-02 -1.280592182317276395e-14
-1.764999999999999902e-02 -1.406347437051154448e-14
-1.750000000000000167e-02 -1.543314528094658772e-14
-1.735000000000000084e-02 -1.692412316788970833e-14
-1.720000000000000001e-02 -1.854629798803304752e-14
-1.704999999999999918e-02 -2.031029831079875225e-14
-1.689999999999999836e-02 -2.222754383438170500e-14
-1.675000000000000100e-02 -2.431030467805583156e-14
-1.660000000000000017e-02 -2.657174373382146376e-14
-1.644999999999999934e-02 -2.902599967563417038e-14
-1.629999999999999852e-02 -3.168821745259085831e-14
-1.615000000000000116e-02 -3.457464485068575955e-14
-1.600000000000000033e-02 -3.770269686731442249e-14
-1.584999999999999951e-02 -4.109101500358001979e-14
-1.569999999999999868e-02 -4.475955874385165179e-14
-1.554999999999999959e-02 -4.872968687092728290e-14
-1.540000000000000049e-02 -5.302424216932846712e-14
-1.524999999999999967e-02 -5.766764290485865141e-14
-1.510000000000000057e-02 -6.268598785668863527e-14
-1.494999999999999975e-02 -6.810714779691487419e-14
-1.480000000000000066e-02 -7.396086374638136118e-14
-1.464999999999999983e-02 -8.027888927621476545e-14
-1.450000000000000074e-02 -8.709507182298736883e-14
-1.434999999999999991e-02 -9.444551531904293862e-14
-1.420000000000000082e-02 -1.023686547313960860e-13
-1.404999999999999999e-02 -1.109054593496396068e-13
-1.389999999999999916e-02 -1.200995276536345746e-13
-1.375000000000000007e-02 -1.299972499438362128e-13
-1.359999999999999924e-02 -1.406479370903018777e-13
-1.345000000000000015e-02 -1.521040238205983997e-13
-1.329999999999999932e-02 -1.644212381263915335e-13
-1.315000000000000023e-02 -1.776587367887175195e-13
-1.299999999999999940e-02 -1.918793222184175806e-13
-1.285000000000000031e-02 -2.071495915339366389e-13
-1.269999999999999948e-02 -2.235402211643935932e-13
-1.255000000000000039e-02 -2.411261023748528798e-13
-1.239999999999999956e-02 -2.599865310017046571e-13
-1.225000000000000047e-02 -2.802054920557350837e-13
-1.209999999999999964e-02 -3.018719172201422829e-13
-1.195000000000000055e-02 -3.250798339283350602e-13
-1.179999999999999973e-02 -3.499286635195303363e-13
-1.165000000000000063e-02 -3.765234651842419566e-13
-1.149999999999999981e-02 -4.049752341198781247e-13
-1.135000000000000071e-02 -4.354011725812845235e-13
-1.119999999999999989e-02 -4.679248525110701884e-13
-1.105000000000000079e-02 -5.026767305356394377e-13
-1.089999999999999997e-02 -5.397942834904634335e-13
-1.074999999999999914e-02 -5.794223607857862390e-13
-1.060000000000000005e-02 -6.217134554571679406e-13
-1.044999999999999922e-02 -6.668281378463536413e-13
-1.030000000000000013e-02 -7.149352182315993343e-13
-1.014999999999999930e-02 -7.662121262984322723e-13
-1.000000000000000021e-02 -8.208452364003027135e-13
-9.850001000000000589e-03 -8.790310059708650314e-13
-9.700001999999999236e-03 -9.409774391969105700e-13
-9.550001000000000670e-03 -1.006906038582278118e-12
-9.400000999999999843e-03 -1.077050991796224544e-12
-9.250002000000000224e-03 -1.151648004391048197e-12
-9.100000999999999923e-03 -1.230905676864735288e-12
-8.950001000000000831e-03 -1.314962678675146712e-12
-8.800001999999999477e-03 -1.403884170372848850e-12
-8.650000999999999177e-03 -1.497828011794155589e-12
-8.500001999999999558e-03 -1.597584152641939870e-12
-8.349999999999999784e-03 -1.705554859669777823e-12
-8.200001000000000165e-03 -1.826602671201049688e-12
-8.050002000000000546e-03 -1.966772231187796649e-12
-7.900000000000000772e-03 -2.126099209881493479e-12
-7.750001000000000285e-03 -2.281618687385855715e-12
-7.600001999999999799e-03 -2.362731104516013758e-12
-7.449998999999999684e-03 -2.238919553226859094e-12
-7.300001000000000406e-03 -1.770566657698091628e-12
-7.150001999999999920e-03 -1.002556761567352517e-12
-7.000003000000000301e-03 -5.636462433941669126e-13
-6.850000000000000186e-03 -2.197875345263944347e-12
-6.700002000000000041e-03 -9.026310081317046041e-12
-6.550003000000000422e-03 -2.463919519801738289e-11
-6.400000000000000307e-03 -4.969915104457989230e-11
-6.250000999999999821e-03 -7.497844706216838517e-11
-6.100002999999999675e-03 -7.149775910209044127e-11
-5.950000000000000427e-03 1.766048245144258289e-11
-5.800000999999999941e-03 2.735897064454206884e-10
-5.650002999999999796e-03 7.704287763310446735e-10
-5.499999999999999681e-03 1.501519020230546175e-09
-5.350001000000000062e-03 2.258466080817811417e-09
-5.200001999999999576e-03 2.483722560953083303e-09
-5.049999999999999802e-03 1.152059336817501389e-09
-4.900001000000000183e-03 -3.234402079499432148e-09
-4.750001999999999697e-03 -1.245308123287713897e-08
-4.599999999999999922e-03 -2.813692567826819868e-08
-4.450001000000000304e-03 -5.119240853446171968e-08
-4.300001999999999817e-03 -8.125952888349274872e-08
-4.149998999999999702e-03 -1.164946539233824296e-07
-4.000001000000000424e-03 -1.539145983997514122e-07
-3.850001999999999938e-03 -1.903391506630214280e-07
-3.699998999999999823e-03 -2.236598248828158830e-07
-3.550000000000000204e-03 -2.538929209094931139e-07
-3.400002000000000059e-03 -2.834301255916216178e-07
-3.250003000000000006e-03 -3.161901815929013537e-07
-3.099999999999999891e-03 -3.559272272468660958e-07
-2.950002000000000180e-03 -4.044918853196577402e-07
-2.800003000000000127e-03 -4.610143946592870634e-07
-2.650000000000000012e-03 -5.225840595812769607e-07
-2.500000999999999959e-03 -5.861620024916192051e-07
-2.350002999999999814e-03 -6.506626277769100852e-07
-2.200000000000000133e-03 -7.179165777415619232e-07
-2.050001000000000080e-03 -7.918385449556808453e-07
-1.900002000000000028e-03 -8.762622769609151874e-07
-1.750000000000000036e-03 -9.728385066409828141e-07
-1.600000999999999984e-03 -1.080424453903106041e-06
-1.450001999999999932e-03 -1.196414473270124290e-06
-1.299999999999999940e-03 -1.319100988439458888e-06
-1.150001000000000105e-03 -1.449394062547071371e-06
-1.000002000000000052e-03 -1.590680540175526403e-06
-8.499994999999999990e-04 -1.746968905536050443e-06
-7.000007000000000148e-04 -1.920737759064650163e-06
-5.500019000000000305e-04 -2.112084985128603876e-06
-3.999992999999999973e-04 -2.319733312106109224e-06
-2.500005000000000131e-04 -2.543012897149310447e-06
-1.000017000000000017e-04 -2.783269337669480592e-06
5.000085000000000087e-05 -3.043724063900299370e-06
1.999996999999999886e-04 -3.328098273414070718e-06
3.499985000000000270e-04 -3.639195028881658800e-06
4.999972999999999571e-04 -3.978454515163321048e-06
6.499998000000000104e-04 -4.346584773884387687e-06
7.999985999999999946e-04 -4.744584657601080835e-06
9.499975000000000129e-04 -5.174434136279160157e-06
1.100000000000000066e-03 -5.639217761199688539e-06
1.249998999999999902e-03 -6.142843631096184254e-06
1.399997999999999954e-03 -6.689520887448452413e-06
1.549999999999999946e-03 -7.283063496288377792e-06
1.699998999999999998e-03 -7.926299986138474196e-06
1.849998000000000050e-03 -8.621168490208219737e-06
2.000000000000000042e-03 -9.369845429318957031e-06
2.149999000000000094e-03 -1.017632348521146923e-05
2.299998000000000146e-03 -1.104701459553325549e-05
2.449999999999999921e-03 -1.198939298774348572e-05
2.599998999999999973e-03 -1.300949952565133572e-05
2.749998000000000026e-03 -1.411061202816199511e-05
2.900001000000000141e-03 -1.529477958683855832e-05
3.049998999999999853e-03 -1.656625136092770845e-05
3.199997999999999905e-03 -1.793360388546716422e-05
3.350001000000000020e-03 -1.940808942890726030e-05
3.500000000000000073e-03 -2.099943776556756347e-05
3.649997999999999784e-03 -2.271316043334081769e-05
3.800000999999999900e-03 -2.455241883581038564e-05
3.950000000000000386e-03 -2.652299190231133252e-05
4.099999000000000005e-03 -2.863640293071512133e-05
4.249997000000000150e-03 -3.090777317993342876e-05
4.400000000000000265e-03 -3.335033034090884030e-05
4.549998999999999884e-03 -3.597228351281955838e-05
4.699998000000000370e-03 -3.877947892760857940e-05
4.850000000000000144e-03 -4.178130257059819996e-05
4.999998999999999763e-03 -4.499353599385358393e-05
5.149998000000000249e-03 -4.843513670493848622e-05
5.300000000000000024e-03 -5.212234827922657132e-05
5.449998999999999642e-03 -5.606661943602375686e-05
5.599998000000000128e-03 -6.027857307344675064e-05
5.749999999999999903e-03 -6.477359420387074351e-05
5.899999000000000389e-03 -6.957287405384704471e-05
6.049998000000000008e-03 -7.469889533240348101e-05
6.200001000000000123e-03 -8.017070649657398462e-05
6.349999000000000268e-03 -8.600432920502498746e-05
6.499997999999999887e-03 -9.221766231348738074e-05
6.650001000000000002e-03 -9.883401799015700817e-05
6.799999999999999621e-03 -1.058802808984182775e-04
6.949997999999999766e-03 -1.133821715484373271e-04
7.100000999999999882e-03 -1.213624200318008661e-04
7.250000000000000368e-03 -1.298439892707392573e-04
7.399998999999999987e-03 -1.388542150380089879e-04
7.550000999999999761e-03 -1.484248787164688110e-04
7.700000000000000247e-03 -1.585880672791972756e-04
7.849998999999999866e-03 -1.693733211141079664e-04
7.999997999999999485e-03 -1.808094821171835065e-04
8.149999999999999259e-03 -1.929289719555526972e-04
8.299999000000000612e-03 -2.057692181551828980e-04
8.449998000000000231e-03 -2.193694090237841010e-04
8.600000000000000006e-03 -2.337666956009343266e-04
8.749998999999999624e-03 -2.489967155270278454e-04
8.899997999999999243e-03 -2.650974201969802380e-04
9.050000000000000752e-03 -2.821117232087999582e-04
9.199999000000000371e-03 -3.000856086146086454e-04
9.349997999999999990e-03 -3.190643619745969772e-04
9.500000999999999238e-03 -3.390918427612632513e-04
9.649998999999999383e-03 -3.602128708735108376e-04
9.799998000000000736e-03 -3.824759332928806543e-04
9.950000999999999984e-03 -4.059326020069420338e-04
1.009999999999999960e-02 -4.306351474951952696e-04
1.025000000000000043e-02 -4.566354909911751747e-04
1.039999999999999952e-02 -4.839867469854652882e-04
1.055000000000000035e-02 -5.127443582750856876e-04
1.069999999999999944e-02 -5.429651937447488308e-04
1.085000000000000027e-02 -5.747064133174717426e-04
1.099999999999999936e-02 -6.080259336158633232e-04
1.115000000000000019e-02 -6.429842906072735786e-04
1.129999999999999928e-02 -6.796444067731499672e-04
1.145000000000000011e-02 -7.180694956332445145e-04
1.159999999999999920e-02 -7.583210244774818420e-04
1.175000000000000003e-02 -8.004600531421601772e-04
1.190000000000000085e-02 -8.445510757155716419e-04
1.204999999999999995e-02 -8.906628354452550411e-04
1.220000000000000077e-02 -9.388643666170537472e-04
1.234999999999999987e-02 -9.892212692648172379e-04
1.250000000000000069e-02 -1.041796756908297539e-03
1.264999999999999979e-02 -1.096655847504734993e-03
1.280000000000000061e-02 -1.153868506662547588e-03
1.294999999999999971e-02 -1.213505864143371582e-03
1.310000000000000053e-02 -1.275636488571763039e-03
1.324999999999999963e-02 -1.340324408374726772e-03
1.340000000000000045e-02 -1.407633535563945770e-03
1.354999999999999954e-02 -1.477629877626895905e-03
1.370000000000000037e-02 -1.550381421111524105e-03
1.384999999999999946e-02 -1.625954057089984417e-03
1.400000000000000029e-02 -1.704410300590097904e-03
1.414999999999999938e-02 -1.785810105502605438e-03
1.430000000000000021e-02 -1.870213192887604237e-03
1.444999999999999930e-02 -1.957678236067295074e-03
1.460000000000000013e-02 -2.048261929303407669e-03
1.474999999999999922e-02 -2.142018172889947891e-03
1.490000000000000005e-02 -2.238999353721737862e-03
1.504999999999999914e-02 -2.339255064725875854e-03
1.519999999999999997e-02 -2.442830242216587067e-03
1.535000000000000080e-02 -2.549765398725867271e-03
1.549999999999999989e-02 -2.660098019987344742e-03
1.565000000000000072e-02 -2.773865358904004097e-03
1.580000000000000154e-02 -2.891100943088531494e-03
1.594999999999999890e-02 -3.011831780895590782e-03
1.609999999999999973e-02 -3.136076731607317924e-03
1.625000000000000056e-02 -3.263849997892975807e-03
1.640000000000000138e-02 -3.395163919776678085e-03
1.654999999999999874e-02 -3.530028276145458221e-03
1.669999999999999957e-02 -3.668445162475109100e-03
1.685000000000000039e-02 -3.810406662523746490e-03
1.700000000000000122e-02 -3.955897409468889236e-03
1.714999999999999858e-02 -4.104897845536470413e-03
1.729999999999999941e-02 -4.257384222000837326e-03
1.745000000000000023e-02 -4.413325339555740356e-03
1.760000000000000106e-02 -4.572679288685321808e-03
1.774999999999999842e-02 -4.735396243631839752e-03
1.789999999999999925e-02 -4.901418462395668030e-03
1.805000000000000007e-02 -5.070682615041732788e-03
1.820000000000000090e-02 -5.243113730102777481e-03
1.835000000000000173e-02 -5.418628919869661331e-03
1.849999999999999908e-02 -5.597137846052646637e-03
1.864999999999999991e-02 -5.778540857136249542e-03
1.880000000000000074e-02 -5.962727125734090805e-03
1.895000000000000157e-02 -6.149574648588895798e-03
1.909999999999999892e-02 -6.338953040540218353e-03
1.924999999999999975e-02 -6.530724000185728073e-03
1.940000000000000058e-02 -6.724739912897348404e-03
1.955000000000000140e-02 -6.920841522514820099e-03
1.969999999999999876e-02 -7.118856068700551987e-03
1.984999999999999959e-02 -7.318601012229919434e-03
2.000000000000000042e-02 -7.519885431975126266e-03
2.015000000000000124e-02 -7.722511421889066696e-03
2.029999999999999860e-02 -7.926268503069877625e-03
2.044999999999999943e-02 -8.130931295454502106e-03
2.060000000000000026e-02 -8.336265571415424347e-03
2.075000000000000108e-02 -8.542029187083244324e-03
2.089999999999999844e-02 -8.747970685362815857e-03
2.104999999999999927e-02 -8.953827433288097382e-03
2.120000000000000009e-02 -9.159326553344726562e-03
2.135000000000000092e-02 -9.364185854792594910e-03
2.149999999999999828e-02 -9.568115696310997009e-03
2.164999999999999911e-02 -9.770815260708332062e-03
2.179999999999999993e-02 -9.971978142857551575e-03
2.195000000000000076e-02 -1.017128862440586090e-02
2.210000000000000159e-02 -1.036842726171016693e-02
2.224999999999999895e-02 -1.056306529790163040e-02
2.239999999999999977e-02 -1.075486466288566589e-02
2.255000000000000060e-02 -1.094348169863224030e-02
2.270000000000000143e-02 -1.112856809049844742e-02
2.284999999999999878e-02 -1.130977086722850800e-02
2.299999999999999961e-02 -1.148673240095376968e-02
2.315000000000000044e-02 -1.165908668190240860e-02
2.330000000000000127e-02 -1.182646397501230240e-02
2.344999999999999862e-02 -1.198849268257617950e-02
2.359999999999999945e-02 -1.214480120688676834e-02
2.375000000000000028e-02 -1.229501329362392426e-02
2.390000000000000110e-02 -1.243875641375780106e-02
2.404999999999999846e-02 -1.257565338164567947e-02
2.419999999999999929e-02 -1.270533259958028793e-02
2.435000000000000012e-02 -1.282742433249950409e-02
2.450000000000000094e-02 -1.294156163930892944e-02
2.464999999999999830e-02 -1.304738316684961319e-02
2.479999999999999913e-02 -1.314452849328517914e-02
2.494999999999999996e-02 -1.323264651000499725e-02
2.510000000000000078e-02 -1.331138983368873596e-02
2.525000000000000161e-02 -1.338041853159666061e-02
2.539999999999999897e-02 -1.343939546495676041e-02
2.554999999999999979e-02 -1.348799839615821838e-02
2.570000000000000062e-02 -1.352591346949338913e-02
2.585000000000000145e-02 -1.355283707380294800e-02
2.599999999999999881e-02 -1.356847584247589111e-02
2.614999999999999963e-02 -1.357255037873983383e-02
2.630000000000000046e-02 -1.356479898095130920e-02
2.645000000000000129e-02 -1.354497484862804413e-02
2.659999999999999865e-02 -1.351284421980381012e-02
2.674999999999999947e-02 -1.346818823367357254e-02
2.690000000000000030e-02 -1.341080758720636368e-02
2.705000000000000113e-02 -1.334051880985498428e-02
2.719999999999999848e-02 -1.325715612620115280e-02
2.734999999999999931e-02 -1.316057238727807999e-02
2.750000000000000014e-02 -1.305063907057046890e-02
2.765000000000000097e-02 -1.292725093662738800e-02
2.779999999999999832e-02 -1.279032416641712189e-02
2.794999999999999915e-02 -1.263979449868202209e-02
2.809999999999999998e-02 -1.247562281787395477e-02
2.825000000000000080e-02 -1.229779049754142761e-02
2.840000000000000163e-02 -1.210630778223276138e-02
2.854999999999999899e-02 -1.190120447427034378e-02
2.869999999999999982e-02 -1.168253272771835327e-02
2.885000000000000064e-02 -1.145036797970533371e-02
2.900000000000000147e-02 -1.120481081306934357e-02
2.914999999999999883e-02 -1.094598509371280670e-02
2.929999999999999966e-02 -1.067403983324766159e-02
2.945000000000000048e-02 -1.038914453238248825e-02
2.960000000000000131e-02 -1.009149756282567978e-02
2.974999999999999867e-02 -9.781320579349994659e-03
2.989999999999999949e-02 -9.458862245082855225e-03
3.005000000000000032e-02 -9.124390780925750732e-03
3.020000000000000115e-02 -8.778200484812259674e-03
3.034999999999999851e-02 -8.420605212450027466e-03
3.049999999999999933e-02 -8.051943965256214142e-03
3.065000000000000016e-02 -7.672573439776897430e-03
3.080000000000000099e-02 -7.282871752977371216e-03
3.094999999999999835e-02 -6.883237045258283615e-03
3.109999999999999917e-02 -6.474087946116924286e-03
3.125000000000000000e-02 -6.055864971131086349e-03
3.139999999999999736e-02 -5.629023537039756775e-03
3.155000000000000165e-02 -5.194037687033414841e-03
3.169999999999999901e-02 -4.751397762447595596e-03
3.185000000000000331e-02 -4.301609937101602554e-03
3.200000000000000067e-02 -3.845192724838852882e-03
3.214999999999999802e-02 -3.382674418389797211e-03
3.230000000000000232e-02 -2.914595650508999825e-03
3.244999999999999968e-02 -2.441507531329989433e-03
3.259999999999999704e-02 -1.963970949873328209e-03
3.275000000000000133e-02 -1.482552848756313324e-03
3.289999999999999869e-02 -9.978272719308733940e-04
3.305000000000000299e-02 -5.103749572299420834e-04
3.320000000000000034e-02 -2.078141915262676775e-05
3.334999999999999770e-02 4.703671438619494438e-04
3.350000000000000200e-02 9.624859667383134365e-04
3.364999999999999936e-02 1.454991754144430161e-03
3.379999999999999671e-02 1.947302720509469509e-03
3.395000000000000101e-02 2.438841154798865318e-03
3.409999999999999837e-02 2.929035574197769165e-03
3.425000000000000266e-02 3.417321480810642242e-03
3.440000000000000002e-02 3.903140779584646225e-03
3.454999999999999738e-02 4.385943524539470673e-03
3.470000000000000168e-02 4.865190945565700531e-03
3.484999999999999903e-02 5.340358708053827286e-03
3.500000000000000333e-02 5.810935515910387039e-03
3.515000000000000069e-02 6.276424974203109741e-03
3.529999999999999805e-02 6.736347451806068420e-03
3.545000000000000234e-02 7.190243341028690338e-03
3.559999999999999970e-02 7.637673057615756989e-03
3.574999999999999706e-02 8.078212849795818329e-03
3.590000000000000135e-02 8.511459454894065857e-03
3.604999999999999871e-02 8.937033824622631073e-03
3.620000000000000301e-02 9.354577399790287018e-03
3.635000000000000037e-02 9.763758629560470581e-03
3.649999999999999772e-02 1.016426831483840942e-02
3.665000000000000202e-02 1.055582240223884583e-02
3.679999999999999938e-02 1.093816664069890976e-02
3.694999999999999674e-02 1.131107378751039505e-02
3.710000000000000103e-02 1.167434360831975937e-02
3.724999999999999839e-02 1.202780008316040039e-02
3.740000000000000269e-02 1.237129978835582733e-02
3.755000000000000004e-02 1.270472258329391479e-02
3.769999999999999740e-02 1.302797999233007431e-02
3.785000000000000170e-02 1.334100961685180664e-02
3.799999999999999906e-02 1.364377979189157486e-02
3.815000000000000335e-02 1.393628865480422974e-02
3.830000000000000071e-02 1.421856507658958435e-02
3.844999999999999807e-02 1.449066121131181717e-02
3.860000000000000236e-02 1.475265901535749435e-02
3.874999999999999972e-02 1.500466838479042053e-02
3.889999999999999708e-02 1.524682529270648956e-02
3.905000000000000138e-02 1.547929178923368454e-02
3.919999999999999873e-02 1.570225320756435394e-02
3.935000000000000303e-02 1.591592282056808472e-02
3.950000000000000039e-02 1.612053625285625458e-02
3.964999999999999775e-02 1.631635613739490509e-02
3.980000000000000204e-02 1.650366373360157013e-02
3.994999999999999940e-02 1.668275892734527588e-02
4.009999999999999676e-02 1.685396954417228699e-02
4.025000000000000105e-02 1.701763086020946503e-02
4.039999999999999841e-02 1.717410236597061157e-02
4.055000000000000271e-02 1.732375472784042358e-02
4.070000000000000007e-02 1.746697723865509033e-02
4.084999999999999742e-02 1.760416850447654724e-02
4.100000000000000172e-02 1.773574575781822205e-02
4.114999999999999908e-02 1.786212809383869171e-02
4.130000000000000338e-02 1.798374392092227936e-02
4.145000000000000073e-02 1.810103282332420349e-02
4.159999999999999809e-02 1.821443438529968262e-02
4.175000000000000239e-02 1.832439564168453217e-02
4.189999999999999974e-02 1.843135990202426910e-02
4.204999999999999710e-02 1.853577420115470886e-02
4.220000000000000140e-02 1.863808184862136841e-02
4.234999999999999876e-02 1.873872429132461548e-02
4.250000000000000305e-02 1.883813552558422089e-02
4.265000000000000041e-02 1.893674395978450775e-02
4.279999999999999777e-02 1.903496868908405304e-02
4.295000000000000207e-02 1.913321577012538910e-02
4.309999999999999942e-02 1.923188008368015289e-02
4.324999999999999678e-02 1.933134160935878754e-02
4.340000000000000108e-02 1.943196356296539307e-02
4.354999999999999843e-02 1.953409612178802490e-02
4.370000000000000273e-02 1.963807269930839539e-02
4.385000000000000009e-02 1.974419876933097839e-02
4.399999999999999745e-02 1.985276490449905396e-02
4.415000000000000174e-02 1.996403001248836517e-02
4.429999999999999910e-02 2.007823251187801361e-02
4.445000000000000340e-02 2.019558474421501160e-02
4.460000000000000075e-02 2.031626924872398376e-02
4.474999999999999811e-02 2.044044435024261475e-02
4.490000000000000241e-02 2.056823857128620148e-02
4.504999999999999977e-02 2.069974876940250397e-02
4.519999999999999712e-02 2.083504386246204376e-02
4.535000000000000142e-02 2.097415737807750702e-02
4.549999999999999878e-02 2.111708931624889374e-02
4.565000000000000308e-02 2.126380614936351776e-02
4.580000000000000043e-02 2.141423523426055908e-02
4.594999999999999779e-02 2.156827785074710846e-02
4.610000000000000209e-02 2.172579243779182434e-02
4.624999999999999944e-02 2.188661321997642517e-02
4.639999999999999680e-02 2.205053344368934631e-02
4.655000000000000110e-02 2.221731282770633698e-02
4.669999999999999846e-02 2.238667383790016174e-02
4.685000000000000275e-02 2.255830541253089905e-02
4.700000000000000011e-02 2.273186296224594116e-02
4.714999999999999747e-02 2.290696091949939728e-02
4.730000000000000177e-02 2.308318018913269043e-02
4.744999999999999912e-02 2.326007746160030365e-02
4.760000000000000342e-02 2.343717403709888458e-02
4.775000000000000078e-02 2.361395768821239471e-02