-1.200000e-01 0.000000e+00
-1.190000e-01 0.000000e+00
-1.180000e-01 0.000000e+00
-1.170000e-01 0.000000e+00
-1.160000e-01 0.000000e+00
-1.150000e-01 0.000000e+00
-1.140000e-01 0.000000e+00
-1.130000e-01 0.000000e+00
-1.120000e-01 0.000000e+00
-1.110000e-01 0.000000e+00
-1.100000e-01 0.000000e+00
-1.090000e-01 0.000000e+00
-1.080000e-01 0.000000e+00
-1.070000e-01 0.000000e+00
-1.060000e-01 0.000000e+00
-1.050000e-01 0.000000e+00
-1.040000e-01 0.000000e+00
-1.030000e-01 0.000000e+00
-1.020000e-01 0.000000e+00
-1.010000e-01 0.000000e+00
-1.000000e-01 0.000000e+00
-9.900001e-02 0.000000e+00
-9.800000e-02 0.000000e+00
-9.700000e-02 0.000000e+00
-9.600000e-02 0.000000e+00
-9.500001e-02 0.000000e+00
-9.400000e-02 0.000000e+00
-9.300000e-02 0.000000e+00
-9.200001e-02 2.802597e-45
-9.100001e-02 1.401298e-44
-9.000000e-02 3.923636e-44
-8.900000e-02 1.961818e-44
-8.800000e-02 -5.212830e-43
-8.700000e-02 -3.150119e-42
-8.600000e-02 -9.918391e-42
-8.500001e-02 -1.376215e-41
-8.400001e-02 3.514737e-41
-8.300000e-02 2.803774e-40
-8.200000e-02 8.874059e-40
-8.100000e-02 1.407240e-39
-8.000000e-02 -9.814218e-40
-7.900000e-02 -1.338521e-38
-7.800000e-02 -4.280542e-38
-7.700001e-02 -7.066725e-38
-7.600001e-02 3.960069e-39
-7.500000e-02 4.062771e-37
-7.400000e-02 1.325411e-36
-7.300000e-02 2.229959e-36
-7.200000e-02 6.069453e-37
-7.100000e-02 -8.591433e-36
-7.000001e-02 -2.902362e-35
-6.900001e-02 -4.964405e-35
-6.800000e-02 -2.399225e-35
-6.700000e-02 1.334680e-34
-6.600000e-02 4.776793e-34
-6.500000e-02 8.348335e-34
-6.400000e-02 5.367716e-34
-6.300000e-02 -1.565691e-33
-6.200000e-02 -6.154397e-33
-6.100000e-02 -1.109083e-32
-6.000000e-02 -8.637516e-33
-5.900000e-02 1.388898e-32
-5.800000e-02 6.381607e-32
-5.700000e-02 1.200752e-31
-5.600000e-02 1.085973e-31
-5.500000e-02 -8.875943e-32
-5.400001e-02 -5.422030e-31
-5.300000e-02 -1.083026e-30
-5.200000e-02 -1.113292e-30
-5.100000e-02 3.149143e-31
-5.000000e-02 3.808587e-30
-4.900000e-02 8.265000e-30
-4.800000e-02 9.552989e-30
-4.700000e-02 1.020679e-30
-4.600000e-02 -2.206844e-29
-4.500000e-02 -5.390985e-29
-4.400000e-02 -6.982553e-29
-4.300000e-02 -2.854335e-29
-4.200000e-02 1.031626e-28
-4.100000e-02 3.020626e-28
-4.000000e-02 4.399987e-28
-3.900000e-02 2.888833e-28
-3.800000e-02 -3.600930e-28
-3.700000e-02 -1.452262e-27
-3.600000e-02 -2.409170e-27
-3.500000e-02 -2.103205e-27
-3.400000e-02 6.397759e-28
-3.300000e-02 5.926703e-27
-3.200000e-02 1.150875e-26
-3.100000e-02 1.239108e-26
-3.000000e-02 2.663856e-27
-2.900000e-02 -1.989289e-26
-2.800000e-02 -4.794866e-26
-2.700000e-02 -6.170717e-26
-2.600000e-02 -3.451164e-26
-2.500000e-02 4.990504e-26
-2.400000e-02 1.730110e-25
-2.300000e-02 2.649886e-25
-2.200000e-02 2.180022e-25
-2.100000e-02 -5.550911e-26
-2.000000e-02 -5.300363e-25
-1.900000e-02 -9.892183e-25
-1.800000e-02 -1.042097e-24
-1.700000e-02 -2.989836e-25
-1.600000e-02 1.307721e-24
-1.500000e-02 3.205339e-24
-1.400000e-02 4.128228e-24
-1.300000e-02 2.581267e-24
-1.200000e-02 -2.156944e-24
-1.100000e-02 -8.884103e-24
-9.999998e-03 -1.397611e-23
-8.999996e-03 -1.240050e-23
-8.000001e-03 -5.270509e-25
-6.999999e-03 2.016912e-23
-5.999997e-03 4.070652e-23
-5.000003e-03 4.615366e-23
-4.000001e-03 2.255319e-23
-2.999999e-03 -3.244200e-23
-1.999997e-03 -1.005855e-22
-1.000002e-03 -1.430867e-22
0.000000e+00 -1.149896e-22
1.000002e-03 7.785446e-24
2.000004e-03 2.000046e-22
2.999999e-03 3.756071e-22
4.000001e-03 4.099278e-22
4.999995e-03 1.992087e-22
5.999997e-03 -2.611710e-22
6.999999e-03 -8.195343e-22
8.000001e-03 -1.178475e-21
9.000003e-03 -1.001619e-21
1.000001e-02 -1.010182e-22
1.100001e-02 1.366720e-21
1.199999e-02 2.809616e-21
1.300000e-02 3.325726e-21
1.400000e-02 2.085703e-21
1.500000e-02 -1.118946e-21
1.600000e-02 -5.404923e-21
1.700000e-02 -8.736886e-21
1.800001e-02 -8.547536e-21
1.900001e-02 -3.035857e-21
2.000000e-02 7.291090e-21
2.100000e-02 1.867450e-20
2.200000e-02 2.469446e-20
2.300000e-02 1.886213e-20
2.400000e-02 -1.365391e-21
2.500001e-02 -3.096777e-20
2.600001e-02 -5.666360e-20
2.700000e-02 -6.105067e-20
2.800000e-02 -3.132724e-20
2.900000e-02 3.073120e-20
3.000000e-02 1.032080e-19
3.100000e-02 1.483007e-19
3.200001e-02 1.279759e-19
3.300001e-02 2.621243e-20
3.400001e-02 -1.328691e-19
3.500000e-02 -2.832045e-19
3.600000e-02 -3.382102e-19
3.700000e-02 -2.312325e-19
3.800000e-02 4.121500e-20
3.900000e-02 3.959615e-19
4.000001e-02 6.776430e-19
4.100001e-02 7.144677e-19
4.200000e-02 3.989913e-19
4.300000e-02 -2.380189e-19
4.400000e-02 -9.966460e-19
4.500000e-02 -1.545698e-18
4.600000e-02 -1.533388e-18
4.700001e-02 -7.466706e-19
4.800001e-02 7.326053e-19
4.900001e-02 2.446220e-18
5.000000e-02 3.624489e-18
5.100000e-02 3.436647e-18
5.200000e-02 1.392296e-18
5.300000e-02 -2.242327e-18
5.400001e-02 -6.235883e-18
5.500001e-02 -8.617265e-18
5.600001e-02 -7.424867e-18
5.700000e-02 -1.800610e-18
5.800000e-02 7.049535e-18
5.900000e-02 1.565442e-17
6.000000e-02 1.928638e-17
6.100000e-02 1.409522e-17
6.200001e-02 -4.245285e-19
6.300001e-02 -1.992912e-17
6.400001e-02 -3.588816e-17
6.500000e-02 -3.877756e-17
6.600000e-02 -2.283783e-17
6.700000e-02 9.738173e-18
6.800000e-02 4.760799e-17
6.900001e-02 7.349951e-17
7.000001e-02 7.127198e-17
7.100001e-02 3.412714e-17
7.200000e-02 -2.983202e-17
7.300000e-02 -9.787848e-17
7.400000e-02 -1.397174e-16
7.500000e-02 -1.293453e-16
7.600001e-02 -5.742410e-17
7.700001e-02 6.082915e-17
7.800001e-02 1.861300e-16
7.900001e-02 2.654030e-16
8.000000e-02 2.501656e-16
8.100000e-02 1.182460e-16
8.200000e-02 -1.084903e-16
8.300000e-02 -3.589408e-16
8.400001e-02 -5.271961e-16
8.500001e-02 -5.082858e-16
8.600001e-02 -2.475470e-16
8.700001e-02 2.146786e-16
8.800000e-02 7.275360e-16
8.900000e-02 1.063449e-15
9.000000e-02 1.003401e-15
9.100001e-02 4.488104e-16
9.200001e-02 -4.890175e-16
9.300001e-02 -1.476597e-15
9.400001e-02 -2.055094e-15
9.500000e-02 -1.830138e-15
9.600000e-02 -6.843316e-16
9.700000e-02 1.089684e-15
9.800000e-02 2.823653e-15
9.900001e-02 3.699965e-15
1.000000e-01 3.103300e-15
1.010000e-01 9.549299e-16
1.020000e-01 -2.132841e-15
1.030000e-01 -4.989032e-15
1.040000e-01 -6.294846e-15
1.050000e-01 -5.136973e-15
1.060000e-01 -1.484289e-15
1.070000e-01 3.628222e-15
1.080000e-01 8.331136e-15
1.090000e-01 1.053845e-14
1.100000e-01 8.766899e-15
1.110000e-01 2.868781e-15
1.120000e-01 -5.622299e-15
1.130000e-01 -1.374387e-14
1.140000e-01 -1.798774e-14
1.150000e-01 -1.561662e-14
1.160000e-01 -5.998646e-15
1.170000e-01 8.582362e-15
1.180000e-01 2.312934e-14
1.190000e-01 3.135805e-14
1.200000e-01 2.808604e-14
1.210000e-01 1.180636e-14
1.220000e-01 -1.366180e-14
1.230000e-01 -3.946590e-14
1.240000e-01 -5.436918e-14
1.250000e-01 -4.917682e-14
1.260000e-01 -2.136184e-14
1.270000e-01 2.219688e-14
1.280000e-01 6.608558e-14
1.290000e-01 9.127794e-14
1.300000e-01 8.276702e-14
1.310000e-01 3.702648e-14
1.320000e-01 -3.408827e-14
1.330000e-01 -1.054277e-13
1.340000e-01 -1.468185e-13
1.350000e-01 -1.350089e-13
1.360000e-01 -6.476946e-14
1.370000e-01 4.571439e-14
1.380000e-01 1.583293e-13
1.390000e-01 2.273249e-13
1.400000e-01 2.167083e-13
1.410000e-01 1.164678e-13
1.420000e-01 -4.903778e-14
1.430000e-01 -2.250265e-13
1.440000e-01 -3.429284e-13
1.450000e-01 -3.452191e-13
1.460000e-01 -2.101346e-13
1.470000e-01 3.335230e-14
1.480000e-01 3.078483e-13
1.490000e-01 5.094040e-13
1.500000e-01 5.440237e-13
1.510000e-01 3.671801e-13
1.520000e-01 1.111588e-14
1.530000e-01 -4.135637e-13
1.540000e-01 -7.478810e-13
1.550000e-01 -8.401482e-13
1.560000e-01 -6.094473e-13
1.570000e-01 -9.206049e-14
1.580000e-01 5.519145e-13
1.590000e-01 1.082208e-12
1.600000e-01 1.263340e-12
1.610000e-01 9.626872e-13
1.620000e-01 2.226999e-13
1.630000e-01 -7.274761e-13
1.640000e-01 -1.535870e-12
1.650000e-01 -1.852480e-12
1.660000e-01 -1.472568e-12
1.670000e-01 -4.419882e-13
1.680000e-01 9.241851e-13
1.690000e-01 2.129483e-12
1.700000e-01 2.669178e-12
1.710000e-01 2.230458e-12
1.720000e-01 8.432606e-13
1.730000e-01 -1.084234e-12
1.740000e-01 -2.873912e-12
1.750000e-01 -3.805629e-12
1.760000e-01 -3.391432e-12
1.770000e-01 -1.596339e-12
1.780000e-01 1.085673e-12
1.790000e-01 3.748266e-12
1.800000e-01 5.362910e-12
1.810000e-01 5.155781e-12
1.820000e-01 2.940158e-12
1.830000e-01 -7.282066e-13
1.840000e-01 -4.657215e-12
1.850000e-01 -7.383363e-12
1.860000e-01 -7.693536e-12
1.870000e-01 -5.126087e-12
1.880000e-01 -2.548698e-13
1.890000e-01 5.385457e-12
1.900000e-01 9.755908e-12
1.910000e-01 1.102828e-11
1.920000e-01 8.316290e-12
1.930000e-01 2.139411e-12
1.940000e-01 -5.597753e-12
1.950000e-01 -1.216483e-11
1.960000e-01 -1.495267e-11
1.970000e-01 -1.248532e-11
1.980000e-01 -5.110657e-12
1.990000e-01 4.933875e-12
2.000000e-01 1.417270e-11
2.010000e-01 1.908258e-11
2.020000e-01 1.741818e-11
2.030000e-01 9.178748e-12
2.040000e-01 -3.184057e-12
2.050000e-01 -1.546237e-11
2.060000e-01 -2.310722e-11
2.070000e-01 -2.289216e-11
2.080000e-01 -1.422514e-11
2.090000e-01 4.074602e-13
2.100000e-01 1.609935e-11
2.110000e-01 2.713235e-11
2.120000e-01 2.902077e-11
2.130000e-01 2.027712e-11
2.140000e-01 3.227109e-12
2.150000e-01 -1.651022e-11
2.160000e-01 -3.180667e-11
2.170000e-01 -3.653364e-11
2.180000e-01 -2.793723e-11
2.190000e-01 -7.986852e-12
2.200000e-01 1.690565e-11
2.210000e-01 3.785341e-11
2.220000e-01 4.658305e-11
2.230000e-01 3.859810e-11
2.240000e-01 1.523500e-11
2.250000e-01 -1.627237e-11
2.260000e-01 -4.493786e-11
2.270000e-01 -5.977901e-11
2.280000e-01 -5.391827e-11
2.290000e-01 -2.751724e-11
2.300000e-01 1.165905e-11
2.310000e-01 5.045256e-11
2.320000e-01 7.469908e-11
2.330000e-01 7.432702e-11
2.340000e-01 4.733970e-11
2.350000e-01 1.143327e-12
2.360000e-01 -4.943173e-11
2.370000e-01 -8.690569e-11
2.380000e-01 -9.717417e-11
2.390000e-01 -7.470283e-11
2.400000e-01 -2.500384e-11
2.410000e-01 3.661887e-11
2.420000e-01 8.982461e-11
2.430000e-01 1.159872e-10
2.440000e-01 1.047187e-10
2.450000e-01 5.786769e-11
2.460000e-01 -1.050358e-11
2.470000e-01 -7.838798e-11
2.480000e-01 -1.229835e-10
2.490000e-01 -1.284655e-10
2.500000e-01 -9.165813e-11
2.510000e-01 -2.358402e-11
2.520000e-01 5.375848e-11
2.530000e-01 1.146297e-10
2.540000e-01 1.382544e-10
2.550000e-01 1.161723e-10
2.560000e-01 5.536726e-11
2.570000e-01 -2.385003e-11
2.580000e-01 -9.450849e-11
2.590000e-01 -1.323120e-10
2.600000e-01 -1.239858e-10
2.610000e-01 -7.235003e-11
2.620000e-01 4.287553e-12
2.630000e-01 7.874221e-11
2.640000e-01 1.245051e-10
2.650000e-01 1.247239e-10
2.660000e-01 7.954064e-11
2.670000e-01 5.013118e-12
2.680000e-01 -7.073150e-11
2.690000e-01 -1.195355e-10
2.700000e-01 -1.225941e-10
2.710000e-01 -7.661487e-11
2.720000e-01 2.267706e-12
2.730000e-01 8.723303e-11
2.740000e-01 1.483725e-10
2.750000e-01 1.622431e-10
2.760000e-01 1.225120e-10
2.770000e-01 3.834921e-11
2.780000e-01 -6.294521e-11
2.790000e-01 -1.457298e-10
2.800000e-01 -1.800590e-10
2.810000e-01 -1.449729e-10
2.820000e-01 -4.987514e-11
2.830000e-01 7.944378e-11
2.840000e-01 2.041829e-10
2.850000e-01 2.909345e-10
2.860000e-01 3.005149e-10
2.870000e-01 2.194420e-10
2.880000e-01 8.726261e-11
2.890000e-01 -5.346135e-11
2.900000e-01 -1.572888e-10
2.910000e-01 -1.824264e-10
2.920000e-01 -1.342358e-10
2.930000e-01 -1.820989e-11
2.940000e-01 1.619632e-10
2.950000e-01 3.427239e-10
2.960000e-01 4.253620e-10
2.970000e-01 4.367798e-10
2.980000e-01 3.898393e-10
2.990000e-01 3.094759e-10
3.000000e-01 1.909606e-10
3.010000e-01 7.217160e-11
3.020000e-01 5.140322e-11
3.030000e-01 1.244203e-10
3.040000e-01 2.570361e-10
3.050000e-01 3.300116e-10
3.060000e-01 3.772156e-10
3.070000e-01 5.067384e-10
3.080000e-01 5.539765e-10
3.090000e-01 6.048509e-10
3.100000e-01 5.589940e-10
3.110000e-01 4.918373e-10
3.120000e-01 5.016432e-10
3.130000e-01 6.132870e-10
3.140000e-01 7.283985e-10
3.150000e-01 7.112224e-10
3.160000e-01 5.010169e-10
3.170000e-01 4.537580e-10
3.180000e-01 7.128663e-10
3.190000e-01 9.834241e-10
3.200000e-01 8.269541e-10
3.210000e-01 5.131182e-10
3.220000e-01 4.513244e-10
3.230000e-01 6.283802e-10
3.240000e-01 7.793378e-10
3.250000e-01 5.809423e-10
3.260000e-01 4.994675e-10
3.270000e-01 6.901465e-10
3.280000e-01 1.305638e-09
3.290000e-01 9.674421e-10
3.300000e-01 1.418922e-10
3.310000e-01 -3.070575e-10
3.320000e-01 1.312170e-10
3.330000e-01 6.590853e-10
3.340000e-01 2.740141e-10
3.350000e-01 -3.251308e-10
3.360000e-01 -4.118621e-10
3.370000e-01 1.444820e-10
3.380000e-01 3.084226e-10
3.390000e-01 -1.810934e-10
3.400000e-01 -7.814251e-10
3.410000e-01 -6.659442e-10
3.420000e-01 -5.309286e-10
3.430000e-01 -7.270277e-10
3.440000e-01 -1.060434e-09
3.450000e-01 -1.366524e-09
3.460000e-01 -1.449192e-09
3.470000e-01 -1.212053e-09
3.480000e-01 -1.138918e-09
3.490000e-01 -1.358789e-09
3.500000e-01 -1.532416e-09
3.510000e-01 -1.444004e-09
3.520000e-01 -1.648920e-09
3.530000e-01 -2.177241e-09
3.540000e-01 -2.674123e-09
3.550000e-01 -2.696519e-09
3.560000e-01 -2.170334e-09
3.570000e-01 -1.529117e-09
3.580000e-01 -1.225092e-09
3.590000e-01 -1.282088e-09
3.600000e-01 -1.609612e-09
3.610000e-01 -1.924833e-09
3.620000e-01 -2.250565e-09
3.630000e-01 -2.309215e-09
3.640000e-01 -2.059255e-09
3.650000e-01 -1.673128e-09
3.660000e-01 -1.531375e-09
3.670000e-01 -1.405980e-09
3.680000e-01 -1.361939e-09
3.690000e-01 -1.382562e-09
3.700000e-01 -1.112949e-09
3.710000e-01 -5.712741e-10
3.720000e-01 1.094029e-10
3.730000e-01 3.127743e-11
3.740000e-01 -1.090825e-10
3.750000e-01 -7.773778e-10
3.760000e-01 -6.022369e-10
3.770000e-01 -4.598478e-10
3.780000e-01 -3.395489e-11
3.790000e-01 -6.474632e-11
3.800000e-01 2.609052e-10
3.810000e-01 9.327730e-10
3.820000e-01 1.323387e-09
3.830000e-01 1.204428e-09
3.840000e-01 9.209143e-10
3.850000e-01 8.547332e-10
3.860000e-01 1.166019e-09
3.870000e-01 1.303840e-09
3.880000e-01 7.880876e-10
3.890000e-01 2.873966e-10
3.900000e-01 9.499062e-10
3.910000e-01 1.524737e-09
3.920000e-01 1.580465e-09
3.930000e-01 1.532850e-09
3.940000e-01 1.580867e-09
3.950000e-01 2.204736e-09
3.960000e-01 2.225182e-09
3.970000e-01 1.390897e-09
3.980000e-01 6.209454e-10
3.990000e-01 7.228916e-10
4.000000e-01 1.228167e-09
4.010000e-01 9.928338e-10
4.020000e-01 1.279510e-10
4.030000e-01 -9.645207e-11
4.040000e-01 9.008871e-10
4.050000e-01 2.059894e-09
4.060000e-01 2.092545e-09
4.070000e-01 1.274217e-09
4.080000e-01 7.598123e-10
4.090000e-01 8.631397e-10
4.100000e-01 7.356220e-10
4.110000e-01 -5.998158e-11
4.120000e-01 -6.809265e-10
4.130000e-01 -3.655142e-10
4.140000e-01 3.344861e-10
4.150000e-01 4.692594e-10
4.160000e-01 1.230588e-11
4.170000e-01 -9.297549e-12
4.180000e-01 9.666243e-10
4.190000e-01 1.698058e-09
4.200000e-01 1.151054e-09
4.210000e-01 -2.612648e-10
4.220001e-01 -1.006678e-09
4.230000e-01 -6.222384e-10
4.240000e-01 -1.584532e-10
4.250000e-01 -5.491431e-10
4.260000e-01 -1.232385e-09
4.270000e-01 -1.052676e-09
4.280000e-01 -2.804507e-11
4.290000e-01 6.622647e-10
4.300000e-01 4.911919e-10
4.310000e-01 2.257262e-10
4.320000e-01 6.010734e-10
4.330000e-01 8.955583e-10
4.340000e-01 2.082803e-10
4.350000e-01 -9.616594e-10
4.360000e-01 -1.150109e-09
4.370000e-01 -2.261525e-10
4.380000e-01 2.567237e-10
4.390000e-01 -6.430187e-10
4.400000e-01 -1.847307e-09
4.410000e-01 -1.658603e-09
4.420000e-01 -4.242728e-11
4.430000e-01 1.409229e-09
4.440000e-01 1.625781e-09
4.450000e-01 1.054744e-09
4.460000e-01 6.025194e-10
4.470000e-01 2.373939e-10
4.480000e-01 -5.668396e-10
4.490000e-01 -1.463753e-09
4.500000e-01 -1.431520e-09
4.510000e-01 -4.536472e-10
4.520000e-01 1.840805e-10
4.530000e-01 -4.466960e-10
4.540000e-01 -1.379493e-09
4.550000e-01 -8.962670e-10
4.560000e-01 9.844611e-10
4.570000e-01 2.482655e-09
4.580000e-01 2.203397e-09
4.590001e-01 8.111880e-10
4.600000e-01 -3.010038e-10
4.610000e-01 -8.282315e-10
4.620000e-01 -1.456653e-09
4.630000e-01 -2.194098e-09
4.640000e-01 -2.014088e-09
4.650000e-01 -5.135772e-10
4.660000e-01 1.145276e-09
4.670000e-01 1.651870e-09
4.680000e-01 1.230243e-09
4.690000e-01 1.055946e-09
4.700000e-01 1.262650e-09
4.710000e-01 7.441906e-10
4.720000e-01 -9.203447e-10
4.730000e-01 -2.428794e-09
4.740000e-01 -2.263650e-09
4.750000e-01 -7.443702e-10
4.760000e-01 4.648196e-10
4.770000e-01 5.983374e-10
4.780000e-01 4.942371e-10
4.790000e-01 9.861835e-10
4.800000e-01 1.469103e-09
4.810000e-01 8.890262e-10
4.820001e-01 -5.208981e-10
4.830000e-01 -1.424721e-09
4.840000e-01 -1.254427e-09
4.850000e-01 -7.728370e-10
4.860000e-01 -6.241299e-10
4.870000e-01 -2.288877e-10
4.880000e-01 1.036005e-09
4.890000e-01 2.300139e-09
4.900000e-01 1.930130e-09
4.910000e-01 -2.371237e-10
4.920000e-01 -2.358540e-09
4.930000e-01 -2.669559e-09
4.940000e-01 -1.402388e-09
4.950000e-01 -7.809087e-12
4.960001e-01 8.771363e-10
4.970000e-01 1.707672e-09
4.980000e-01 2.512740e-09
4.990000e-01 2.362776e-09
5.000000e-01 7.109873e-10
5.010000e-01 -1.376110e-09
5.020000e-01 -2.343132e-09
5.030000e-01 -2.020464e-09
5.040000e-01 -1.514435e-09
5.050000e-01 -1.348970e-09
5.060000e-01 -7.188083e-10
5.070000e-01 1.021740e-09
5.080000e-01 2.905769e-09
5.090000e-01 3.331511e-09
5.100001e-01 2.079768e-09
5.110000e-01 4.400512e-10
5.120000e-01 -6.790155e-10
5.130000e-01 -1.706937e-09
5.140000e-01 -3.089929e-09
5.150000e-01 -3.887204e-09
5.160000e-01 -2.693078e-09
5.170000e-01 3.059019e-10
5.180000e-01 3.165829e-09
5.190001e-01 4.248870e-09
5.200000e-01 3.638216e-09
5.210000e-01 2.209742e-09
5.220000e-01 1.721497e-10
5.230000e-01 -2.520991e-09
5.240000e-01 -4.829921e-09
5.250000e-01 -4.976112e-09
5.260000e-01 -2.501403e-09
5.270000e-01 8.704967e-10
5.280000e-01 3.016150e-09
5.290000e-01 3.570674e-09
5.300000e-01 3.512225e-09
5.310000e-01 3.152530e-09
5.320000e-01 1.641725e-09
5.330001e-01 -1.279025e-09
5.340000e-01 -4.146661e-09
5.350000e-01 -5.096357e-09
5.360000e-01 -3.875235e-09
5.370000e-01 -1.679011e-09
5.380000e-01 6.104048e-10
5.390000e-01 3.011996e-09
5.400000e-01 5.139262e-09
5.410000e-01 5.514898e-09
5.420001e-01 3.100601e-09
5.430000e-01 -9.567800e-10
5.440000e-01 -4.129611e-09
5.450000e-01 -5.017518e-09
5.460000e-01 -4.251381e-09
5.470001e-01 -2.848296e-09
5.480000e-01 -7.241401e-10
5.490000e-01 2.383488e-09
5.500000e-01 5.292344e-09
5.510000e-01 5.951356e-09
5.520000e-01 3.725128e-09
5.530000e-01 2.018653e-10
5.540000e-01 -2.624748e-09
5.550000e-01 -4.204621e-09
5.560001e-01 -4.880051e-09
5.570000e-01 -4.316379e-09
5.580000e-01 -1.738202e-09
5.590000e-01 2.276158e-09
5.600000e-01 5.456892e-09
5.610000e-01 5.942223e-09
5.620000e-01 4.074763e-09
5.630000e-01 1.492552e-09
5.640000e-01 -1.015773e-09
5.650001e-01 -3.683752e-09
5.660000e-01 -6.023002e-09
5.670000e-01 -6.277298e-09
5.680000e-01 -3.384309e-09
5.690000e-01 1.247892e-09
5.700001e-01 4.867160e-09
5.710000e-01 6.039270e-09
5.720000e-01 5.351747e-09
5.730000e-01 3.657073e-09
5.740000e-01 8.695881e-10
5.750000e-01 -2.921321e-09
5.760000e-01 -6.151901e-09
5.770000e-01 -6.836429e-09
5.780000e-01 -4.774718e-09
5.790001e-01 -1.701903e-09
5.800000e-01 9.007005e-10
5.810000e-01 3.138919e-09
5.820000e-01 5.358144e-09
5.830000e-01 6.466928e-09
5.840001e-01 4.846433e-09
5.850000e-01 7.235602e-10
5.860000e-01 -3.503103e-09
5.870000e-01 -5.694752e-09
5.880000e-01 -5.837497e-09
5.890000e-01 -4.990442e-09
5.900000e-01 -3.288351e-09
5.910000e-01 -1.796414e-10
5.920000e-01 3.713182e-09
5.930001e-01 6.223366e-09
5.940000e-01 5.802468e-09
5.950000e-01 3.188917e-09
5.960000e-01 2.335447e-10
5.970000e-01 -2.282709e-09
5.980000e-01 -4.654929e-09
5.990000e-01 -6.407149e-09
6.000000e-01 -5.943095e-09
6.010000e-01 -2.664674e-09
6.020001e-01 1.531664e-09
6.030000e-01 3.979506e-09
6.040000e-01 3.973209e-09
6.050000e-01 2.879357e-09
6.060000e-01 1.789195e-09
6.070001e-01 2.076094e-10
6.080000e-01 -2.370689e-09
6.090000e-01 -4.677498e-09
6.100000e-01 -4.851983e-09
6.110000e-01 -2.743088e-09
6.120000e-01 -1.038087e-10
6.130000e-01 1.580137e-09
6.140000e-01 2.580799e-09
6.150000e-01 3.475789e-09
6.160001e-01 3.541443e-09
6.170000e-01 1.755830e-09
6.180000e-01 -1.165573e-09
6.190000e-01 -2.975286e-09
6.200000e-01 -2.476041e-09
6.210001e-01 -7.867735e-10
6.220000e-01 1.930374e-10
6.230000e-01 4.720596e-10
6.240000e-01 1.442173e-09
6.250001e-01 3.334907e-09
6.260000e-01 4.477199e-09
6.270000e-01 3.523960e-09
6.280000e-01 1.364931e-09
6.290000e-01 -1.916031e-10
6.300001e-01 -7.582314e-10
6.310000e-01 -1.229330e-09
6.320000e-01 -1.869759e-09
6.330000e-01 -1.511028e-09
6.340000e-01 4.262850e-10
6.350001e-01 2.555944e-09
6.360000e-01 3.034722e-09
6.370000e-01 2.038351e-09
6.380000e-01 1.320963e-09
6.390001e-01 1.574905e-09
6.400000e-01 1.430783e-09
6.410000e-01 -2.898688e-10
6.420000e-01 -2.546919e-09
6.430000e-01 -3.259923e-09
6.440001e-01 -2.008879e-09
6.450000e-01 -4.798245e-10
6.460000e-01 4.531264e-11
6.470000e-01 1.903449e-10
6.480000e-01 1.018003e-09
6.490000e-01 2.067700e-09
6.500000e-01 1.965392e-09
6.510000e-01 6.185434e-10
6.520000e-01 -5.457567e-10
6.530001e-01 -7.621728e-10
6.540000e-01 -1.038136e-09
6.550000e-01 -2.346073e-09
6.560000e-01 -3.610528e-09
6.570000e-01 -2.821792e-09
6.580001e-01 9.954190e-11
6.590000e-01 2.790129e-09
6.600000e-01 3.241161e-09
6.610000e-01 2.008617e-09
6.620001e-01 9.323513e-10
6.630000e-01 4.705291e-10
6.640000e-01 -4.784221e-10
6.650000e-01 -2.314101e-09
6.660000e-01 -3.721654e-09
6.670001e-01 -3.428260e-09
6.680000e-01 -1.909124e-09
6.690000e-01 -4.479611e-10
6.700000e-01 7.957864e-10
6.710000e-01 2.580599e-09
6.720001e-01 4.411852e-09
6.730000e-01 4.222124e-09
6.740000e-01 9.467599e-10
6.750000e-01 -3.525424e-09
6.760001e-01 -6.031842e-09
6.770000e-01 -5.484738e-09
6.780000e-01 -3.486231e-09
6.790000e-01 -1.627145e-09
6.800000e-01 2.170910e-10
6.810001e-01 2.689988e-09
6.820000e-01 4.924400e-09
6.830000e-01 5.173842e-09
6.840000e-01 3.114464e-09
6.850001e-01 2.647850e-10
6.860000e-01 -2.023700e-09
6.870000e-01 -3.822575e-09
6.880000e-01 -5.325940e-09
6.890000e-01 -5.405631e-09
6.900001e-01 -2.727976e-09
6.910000e-01 1.927225e-09
6.920000e-01 5.697229e-09
6.930000e-01 6.537485e-09
6.940000e-01 5.168088e-09
6.950001e-01 3.507707e-09
6.960000e-01 2.052657e-09
6.970000e-01 -1.784472e-10
6.980000e-01 -3.263681e-09
6.990001e-01 -5.468657e-09
7.000000e-01 -5.165123e-09
7.010000e-01 -2.745923e-09
7.020000e-01 1.450466e-10
7.030000e-01 2.614648e-09
7.040001e-01 4.711344e-09
7.050000e-01 5.928177e-09
7.060000e-01 4.999523e-09
7.070000e-01 1.664248e-09
7.080001e-01 -2.200894e-09
7.090001e-01 -4.256509e-09
7.100000e-01 -4.220540e-09
7.110000e-01 -3.700337e-09
7.120000e-01 -3.652416e-09
7.130001e-01 -3.092525e-09
7.140000e-01 -8.686399e-10
7.150000e-01 2.241484e-09
7.160000e-01 4.163386e-09
7.170000e-01 3.877359e-09
7.180001e-01 2.232711e-09
7.190000e-01 3.650782e-10
7.200000e-01 -1.571749e-09
7.210000e-01 -3.582833e-09
7.220001e-01 -4.731571e-09
7.230000e-01 -3.918348e-09
7.240000e-01 -1.542950e-09
7.250000e-01 6.687974e-10
7.260000e-01 1.735014e-09
7.270001e-01 2.460796e-09
7.280000e-01 3.808569e-09
7.290000e-01 5.029453e-09
7.300000e-01 4.391129e-09
7.310000e-01 1.569917e-09
7.320001e-01 -1.637264e-09
7.330000e-01 -3.303609e-09
7.340000e-01 -3.230457e-09
7.350000e-01 -2.373773e-09
7.360001e-01 -1.156365e-09
7.370000e-01 7.039741e-10
7.380000e-01 2.925750e-09
7.390000e-01 4.319732e-09
7.400000e-01 4.116094e-09
7.410001e-01 2.894522e-09
7.420000e-01 1.554747e-09
7.430000e-01 -3.194084e-11
7.440000e-01 -2.512653e-09
7.450001e-01 -5.324609e-09
7.460001e-01 -6.534380e-09
7.470000e-01 -4.881937e-09
7.480000e-01 -1.375259e-09
7.490000e-01 1.755322e-09
7.500001e-01 3.306415e-09
7.510000e-01 3.647010e-09
7.520000e-01 3.299943e-09
7.530000e-01 1.979771e-09
7.540000e-01 -5.551567e-10
7.550001e-01 -3.476303e-09
7.560000e-01 -5.450314e-09
7.570000e-01 -5.941918e-09
7.580000e-01 -5.280606e-09
7.590001e-01 -3.573766e-09
7.600001e-01 -4.889559e-10
7.610000e-01 3.543996e-09
7.620000e-01 6.681677e-09
7.630000e-01 7.055359e-09
7.640001e-01 4.691727e-09
7.650000e-01 1.440859e-09
7.660000e-01 -1.030545e-09
7.670000e-01 -2.525582e-09
7.680001e-01 -3.497903e-09
7.690001e-01 -3.704675e-09
7.700000e-01 -2.444148e-09
7.710000e-01 2.121765e-10
7.720000e-01 3.161409e-09
7.730001e-01 5.350674e-09
7.740000e-01 6.457437e-09
7.750000e-01 6.341598e-09
7.760000e-01 4.528258e-09
7.770000e-01 9.704235e-10
7.780001e-01 -3.011439e-09
7.790000e-01 -5.385751e-09
7.800000e-01 -5.271419e-09
7.810000e-01 -3.628944e-09
7.820001e-01 -1.893338e-09
7.830001e-01 -4.357795e-10
7.840000e-01 1.167624e-09
7.850000e-01 2.774163e-09
7.860000e-01 3.387465e-09
7.870001e-01 2.320547e-09
7.880000e-01 4.341877e-11
7.890000e-01 -2.455229e-09
7.900000e-01 -4.606020e-09
7.910001e-01 -6.112044e-09
7.920001e-01 -6.331650e-09
7.930000e-01 -4.640515e-09
7.940000e-01 -1.541429e-09
7.950000e-01 1.309353e-09
7.960001e-01 2.621863e-09
7.970001e-01 2.639623e-09
7.980000e-01 2.409613e-09
7.990000e-01 2.207752e-09
8.000000e-01 1.373041e-09
8.010001e-01 -3.680772e-10
8.020000e-01 -2.126188e-09
8.030000e-01 -2.760936e-09
8.040000e-01 -2.071812e-09
8.050001e-01 -6.140125e-10
8.060001e-01 1.278072e-09
8.070000e-01 3.572589e-09
8.080000e-01 5.712477e-09
8.090000e-01 6.533061e-09
8.100001e-01 5.447900e-09
8.110000e-01 3.265846e-09
8.120000e-01 1.276137e-09
8.130000e-01 -1.886968e-10
8.140000e-01 -1.678906e-09
8.150001e-01 -3.204286e-09
8.160000e-01 -3.700114e-09
8.170000e-01 -2.300611e-09
8.180000e-01 3.813244e-10
8.190001e-01 2.798178e-09
8.200001e-01 4.015341e-09
8.210000e-01 4.099509e-09
8.220000e-01 3.153888e-09
8.230000e-01 8.620534e-10
8.240001e-01 -2.605978e-09
8.250000e-01 -5.903629e-09
8.260000e-01 -7.490506e-09
8.270000e-01 -7.142673e-09
8.280001e-01 -5.846700e-09
8.290001e-01 -4.253680e-09
8.300000e-01 -2.014967e-09
8.310000e-01 1.028336e-09
8.320000e-01 3.727498e-09
8.330001e-01 4.474361e-09
8.340001e-01 2.961267e-09
8.350000e-01 3.982117e-10
8.360000e-01 -2.023310e-09
8.370000e-01 -4.094284e-09
8.380001e-01 -5.739789e-09
8.390000e-01 -6.044329e-09
8.400000e-01 -4.032089e-09
8.410000e-01 -1.999467e-10
8.420001e-01 3.607118e-09
8.430001e-01 6.024611e-09
8.440000e-01 7.184335e-09
8.450000e-01 7.618920e-09
8.460000e-01 6.935788e-09
8.470001e-01 4.446305e-09
8.480000e-01 7.865685e-10
8.490000e-01 -2.102297e-09
8.500000e-01 -2.905997e-09
8.510001e-01 -2.116525e-09
8.520001e-01 -8.797688e-10
8.530000e-01 6.290342e-10
8.540000e-01 2.861068e-09
8.550000e-01 5.292355e-09
8.560001e-01 6.309850e-09
8.570001e-01 5.032969e-09
8.580000e-01 2.438030e-09
8.590000e-01 5.799422e-11
8.600000e-01 -1.833641e-09
8.610001e-01 -3.911321e-09
8.620000e-01 -5.991308e-09
8.630000e-01 -6.693362e-09
8.640000e-01 -5.258072e-09
8.650001e-01 -2.801333e-09
8.660001e-01 -1.037300e-09
8.670000e-01 -2.814178e-10
8.680000e-01 3.549173e-10
8.690000e-01 1.025436e-09
8.700001e-01 5.738220e-10
8.710001e-01 -1.678134e-09
8.720000e-01 -4.501512e-09
8.730000e-01 -5.969162e-09
8.740000e-01 -5.641269e-09
8.750001e-01 -4.591932e-09
8.760000e-01 -3.439175e-09
8.770000e-01 -1.517665e-09
8.780000e-01 1.538779e-09
8.790001e-01 4.414640e-09
