-4.000000000000000083e-02 0.000000000000000000e+00
-3.984999999999999654e-02 0.000000000000000000e+00
-3.969999999999999918e-02 0.000000000000000000e+00
-3.955000000000000182e-02 0.000000000000000000e+00
-3.939999999999999752e-02 0.000000000000000000e+00
-3.925000000000000017e-02 0.000000000000000000e+00
-3.910000000000000281e-02 0.000000000000000000e+00
-3.894999999999999851e-02 0.000000000000000000e+00
-3.880000000000000115e-02 0.000000000000000000e+00
-3.864999999999999686e-02 0.000000000000000000e+00
-3.849999999999999950e-02 0.000000000000000000e+00
-3.835000000000000214e-02 0.000000000000000000e+00
-3.819999999999999785e-02 0.000000000000000000e+00
-3.805000000000000049e-02 0.000000000000000000e+00
-3.790000000000000313e-02 0.000000000000000000e+00
-3.774999999999999883e-02 0.000000000000000000e+00
-3.760000000000000148e-02 0.000000000000000000e+00
-3.744999999999999718e-02 0.000000000000000000e+00
-3.729999999999999982e-02 0.000000000000000000e+00
-3.715000000000000246e-02 0.000000000000000000e+00
-3.699999999999999817e-02 0.000000000000000000e+00
-3.685000000000000081e-02 0.000000000000000000e+00
-3.670000000000000345e-02 0.000000000000000000e+00
-3.654999999999999916e-02 0.000000000000000000e+00
-3.640000000000000180e-02 0.000000000000000000e+00
-3.624999999999999750e-02 0.000000000000000000e+00
-3.610000000000000014e-02 0.000000000000000000e+00
-3.595000000000000279e-02 0.000000000000000000e+00
-3.579999999999999849e-02 0.000000000000000000e+00
-3.565000000000000113e-02 0.000000000000000000e+00
-3.549999999999999684e-02 0.000000000000000000e+00
-3.534999999999999948e-02 0.000000000000000000e+00
-3.520000000000000212e-02 0.000000000000000000e+00
-3.504999999999999782e-02 0.000000000000000000e+00
-3.490000000000000047e-02 0.000000000000000000e+00
-3.475000000000000311e-02 0.000000000000000000e+00
-3.459999999999999881e-02 0.000000000000000000e+00
-3.445000000000000145e-02 0.000000000000000000e+00
-3.429999999999999716e-02 0.000000000000000000e+00
-3.414999999999999980e-02 0.000000000000000000e+00
-3.400000000000000244e-02 0.000000000000000000e+00
-3.384999999999999815e-02 0.000000000000000000e+00
-3.370000000000000079e-02 0.000000000000000000e+00
-3.355000000000000343e-02 -0.000000000000000000e+00
-3.339999999999999913e-02 0.000000000000000000e+00
-3.325000000000000178e-02 0.000000000000000000e+00
-3.309999999999999748e-02 -0.000000000000000000e+00
-3.295000000000000012e-02 0.000000000000000000e+00
-3.280000000000000276e-02 2.942726775082115849e-44
-3.264999999999999847e-02 -1.681558157189780485e-43
-3.250000000000000111e-02 -1.427923135146988595e-42
-3.234999999999999681e-02 2.046736536992827814e-41
-3.219999999999999946e-02 6.876171564441877367e-42
-3.205000000000000210e-02 -1.351043697498736156e-39
-3.189999999999999780e-02 4.213745119880190352e-39
-3.175000000000000044e-02 6.148576483849274059e-38
-3.160000000000000309e-02 -3.610658042283959971e-37
-3.144999999999999879e-02 -2.130461721213264710e-36
-3.130000000000000143e-02 1.879954110356920318e-35
-3.115000000000000061e-02 6.164395116673402444e-35
-3.099999999999999978e-02 -7.387655978906716119e-34
-3.084999999999999895e-02 -1.704581603062514376e-33
-3.070000000000000159e-02 2.347739047511726802e-32
-3.055000000000000077e-02 5.136789824922437125e-32
-3.039999999999999994e-02 -6.128881313690164774e-31
-3.024999999999999911e-02 -1.649851460362152093e-30
-3.009999999999999828e-02 1.276184526190559588e-29
-2.995000000000000093e-02 4.887188067509794294e-29
-2.980000000000000010e-02 -1.907260822100696658e-28
-2.964999999999999927e-02 -1.177280434178587926e-27
-2.949999999999999845e-02 1.289094437849369336e-27
-2.935000000000000109e-02 2.084231370980155827e-26
-2.920000000000000026e-02 2.295231171232168204e-26
-2.904999999999999943e-02 -2.291443960959766923e-25
-2.889999999999999861e-02 -8.106913488740323230e-25
-2.875000000000000125e-02 6.070347774548103524e-25
-2.860000000000000042e-02 9.976538486017409365e-24
-2.844999999999999959e-02 2.134361628916419022e-23
-2.829999999999999877e-02 -2.564160502440327945e-23
-2.815000000000000141e-02 -2.443161798245035852e-22
-2.800000000000000058e-02 -5.731200946610975799e-22
-2.784999999999999976e-02 -2.632952644363583146e-22
-2.769999999999999893e-02 2.491621687735830893e-21
-2.755000000000000157e-02 1.015738695006477783e-20
-2.740000000000000074e-02 2.491482383735211001e-20
-2.724999999999999992e-02 4.836229066034623685e-20
-2.709999999999999909e-02 8.223887164904167721e-20
-2.695000000000000173e-02 1.288671267891868097e-19
-2.680000000000000090e-02 1.906255945451322586e-19
-2.665000000000000008e-02 2.697130437696661473e-19
-2.649999999999999925e-02 3.687296908689547761e-19
-2.634999999999999842e-02 4.907546768991355771e-19
-2.620000000000000107e-02 6.388628131428271501e-19
-2.605000000000000024e-02 8.163541108044156567e-19
-2.589999999999999941e-02 1.027129398556336322e-18
-2.574999999999999858e-02 1.275330421424430439e-18
-2.560000000000000123e-02 1.565323607368424020e-18
-2.545000000000000040e-02 1.902126220393757453e-18
-2.529999999999999957e-02 2.291194757411136785e-18
-2.514999999999999875e-02 2.738316484178712705e-18
-2.500000000000000139e-02 3.250012685850700145e-18
-2.485000000000000056e-02 3.833411798150927960e-18
-2.469999999999999973e-02 4.496136497219225438e-18
-2.454999999999999891e-02 5.246682961922277864e-18
-2.440000000000000155e-02 6.094323473336498402e-18
-2.425000000000000072e-02 7.049041274274789543e-18
-2.409999999999999989e-02 8.121887084130553460e-18
-2.394999999999999907e-02 9.324879010023573092e-18
-2.380000000000000171e-02 1.067102446708624480e-17
-2.365000000000000088e-02 1.217464856916676192e-17
-2.350000000000000006e-02 1.385128742253009541e-17
-2.334999999999999923e-02 1.571780475832436385e-17
-2.319999999999999840e-02 1.779269137196257762e-17
-2.305000000000000104e-02 2.009595924400423212e-17
-2.290000000000000022e-02 2.264937315072682261e-17
-2.274999999999999939e-02 2.547668475623919674e-17
-2.259999999999999856e-02 2.860357801856112600e-17
-2.245000000000000120e-02 3.205802653164792869e-17
-2.230000000000000038e-02 3.587041594812112773e-17
-2.214999999999999955e-02 4.007363496913583149e-17
-2.199999999999999872e-02 4.470343103204413163e-17
-2.185000000000000137e-02 4.979854927673801196e-17
-2.170000000000000054e-02 5.540090129049430928e-17
-2.154999999999999971e-02 6.155598862444834054e-17
-2.139999999999999888e-02 6.831300205526740919e-17
-2.125000000000000153e-02 7.572516238356317704e-17
-2.110000000000000070e-02 8.385014725908774159e-17
-2.094999999999999987e-02 9.275006801967648458e-17
-2.079999999999999905e-02 1.024924226033137331e-16
-2.065000000000000169e-02 1.131496257095448293e-16
-2.050000000000000086e-02 1.248005241943583280e-16
-2.035000000000000003e-02 1.375293118092223263e-16
-2.019999999999999921e-02 1.514279445684731194e-16
-2.004999999999999838e-02 1.665941621332899729e-16
-1.990000000000000102e-02 1.831349288830433440e-16
-1.975000000000000019e-02 2.011638266420041139e-16
-1.959999999999999937e-02 2.208045089855816098e-16
-1.944999999999999854e-02 2.421892983420047144e-16
-1.930000000000000118e-02 2.654602580183957347e-16
-1.915000000000000036e-02 2.907718788833999748e-16
-1.899999999999999953e-02 3.182867383233310568e-16
-1.884999999999999870e-02 3.481848308394805197e-16
-1.870000000000000134e-02 3.806519478148726737e-16
-1.855000000000000052e-02 4.158970152199037125e-16
-1.839999999999999969e-02 4.541332206594857028e-16
-1.824999999999999886e-02 4.956009362021816540e-16
-1.810000000000000150e-02 5.405457749329157114e-16
-1.795000000000000068e-02 5.892421225870390650e-16
-1.779999999999999985e-02 6.419739998996779225e-16
-1.764999999999999902e-02 6.990531679349810696e-16
-1.750000000000000167e-02 7.608075872622135308e-16
-1.735000000000000084e-02 8.275904706203803494e-16
-1.720000000000000001e-02 8.997783241545360619e-16
-1.704999999999999918e-02 9.777728003003568168e-16
-1.689999999999999836e-02 1.062004509432403019e-15
-1.675000000000000100e-02 1.152938366759598873e-15
-1.660000000000000017e-02 1.251076451061429364e-15
-1.644999999999999934e-02 1.356968063204188907e-15
-1.629999999999999852e-02 1.471192467844681037e-15
-1.615000000000000116e-02 1.594342905683338984e-15
-1.600000000000000033e-02 1.726947184125420583e-15
-1.584999999999999951e-02 1.869387950304847966e-15
-1.569999999999999868e-02 2.021822540591573618e-15
-1.554999999999999959e-02 2.184298071193288560e-15
-1.540000000000000049e-02 2.357268340011484282e-15
-1.524999999999999967e-02 2.542823189085273959e-15
-1.510000000000000057e-02 2.746679667292150490e-15
-1.494999999999999975e-02 2.980322270847461305e-15
-1.480000000000000066e-02 3.261255570880926963e-15
-1.464999999999999983e-02 3.607481135104069481e-15
-1.450000000000000074e-02 4.020699805674975494e-15
-1.434999999999999991e-02 4.453786481056678376e-15
-1.420000000000000082e-02 4.764751334235045252e-15
-1.404999999999999999e-02 4.675701066424306149e-15
-1.389999999999999916e-02 3.782045308170760983e-15
-1.375000000000000007e-02 1.689089787701718477e-15
-1.359999999999999924e-02 -1.627967466711374538e-15
-1.345000000000000015e-02 -5.172297001641715589e-15
-1.329999999999999932e-02 -6.033495727905896847e-15
-1.315000000000000023e-02 1.440490699880264854e-15
-1.299999999999999940e-02 2.571636242983902504e-14
-1.285000000000000031e-02 7.626662295407912739e-14
-1.269999999999999948e-02 1.584882263405348879e-13
-1.255000000000000039e-02 2.642287972622059389e-13
-1.239999999999999956e-02 3.580514519856831113e-13
-1.225000000000000047e-02 3.619617084359150194e-13
-1.209999999999999964e-02 1.452233244682993307e-13
-1.195000000000000055e-02 -4.696435297948942100e-13
-1.179999999999999973e-02 -1.670246298039745891e-12
-1.165000000000000063e-02 -3.573054178918066981e-12
-1.149999999999999981e-02 -6.090410727827011428e-12
-1.135000000000000071e-02 -8.754266409005673211e-12
-1.119999999999999989e-02 -1.052842014959143313e-11
-1.105000000000000079e-02 -9.667772658816797815e-12
-1.089999999999999997e-02 -3.703338850857829101e-12
-1.074999999999999914e-02 1.036633279216658821e-11
-1.060000000000000005e-02 3.562494396702753363e-11
-1.044999999999999922e-02 7.454192124667358144e-11
-1.030000000000000013e-02 1.281344891301827715e-10
-1.014999999999999930e-02 1.951942912858939394e-10
-1.000000000000000021e-02 2.718516800559456215e-10
-9.850001000000000589e-03 3.517426072630058798e-10
-9.700001999999999236e-03 4.269438691473226299e-10
-9.550001000000000670e-03 4.896342775673190317e-10
-9.400000999999999843e-03 5.341614373044478725e-10
-9.250002000000000224e-03 5.589695373231506892e-10
-9.100000999999999923e-03 5.677402437065381946e-10
-8.950001000000000831e-03 5.691861981738099985e-10
-8.800001999999999477e-03 5.752836540473538207e-10
-8.650000999999999177e-03 5.982394024606207950e-10
-8.500001999999999558e-03 6.470118329993113093e-10
-8.349999999999999784e-03 7.245181121717791939e-10
-8.200001000000000165e-03 8.266010098623155500e-10
-8.050002000000000546e-03 9.433338554742931592e-10
-7.900000000000000772e-03 1.062430587950302652e-09
-7.750001000000000285e-03 1.173725339143061319e-09
-7.600001999999999799e-03 1.273105620924752657e-09
-7.449998999999999684e-03 1.364324431207819543e-09
-7.300001000000000406e-03 1.457844511776329455e-09
-7.150001999999999920e-03 1.567015628367585123e-09
-7.000003000000000301e-03 1.703034047118023864e-09
-6.850000000000000186e-03 1.870728683073252796e-09
-6.700002000000000041e-03 2.066985249626895893e-09
-6.550003000000000422e-03 2.282587230340027418e-09
-6.400000000000000307e-03 2.506773677524165578e-09
-6.250000999999999821e-03 2.732569948094010215e-09
-6.100002999999999675e-03 2.960425016240719742e-09
-5.950000000000000427e-03 3.198498577106079210e-09
-5.800000999999999941e-03 3.459385444770646245e-09
-5.650002999999999796e-03 3.754807131883808324e-09
-5.499999999999999681e-03 4.090829897052117303e-09
-5.350001000000000062e-03 4.465935177222490893e-09
-5.200001999999999576e-03 4.872898085039878424e-09
-5.049999999999999802e-03 5.303507411014152240e-09
-4.900001000000000183e-03 5.753778786754537578e-09
-4.750001999999999697e-03 6.227047322227008408e-09
-4.599999999999999922e-03 6.733284152460328187e-09
-4.450001000000000304e-03 7.285054781647204436e-09
-4.300001999999999817e-03 7.892276165932798904e-09
-4.149998999999999702e-03 8.558629360777558759e-09
-4.000001000000000424e-03 9.281475144007345079e-09
-3.850001999999999938e-03 1.005524730146589718e-08
-3.699998999999999823e-03 1.087653700437840598e-08
-3.550000000000000204e-03 1.174796260272614745e-08
-3.400002000000000059e-03 1.267862614895420847e-08
-3.250003000000000006e-03 1.368098789811256211e-08
-3.099999999999999891e-03 1.476616606765901452e-08
-2.950002000000000180e-03 1.594048804065550939e-08
-2.800003000000000127e-03 1.720494680057527148e-08
-2.650000000000000012e-03 1.855775799697312323e-08
-2.500000999999999959e-03 1.999855570034014818e-08
-2.350002999999999814e-03 2.153197264931350219e-08
-2.200000000000000133e-03 2.316832237170274311e-08
-2.050001000000000080e-03 2.492099859807694884e-08
-1.900002000000000028e-03 2.680221022899331729e-08
-1.750000000000000036e-03 2.881991534309236158e-08
-1.600000999999999984e-03 3.097778744631796144e-08
-1.450001999999999932e-03 3.327799191765734577e-08
-1.299999999999999940e-03 3.572483464608922077e-08
-1.150001000000000105e-03 3.832709793982758129e-08
-1.000002000000000052e-03 4.109792683948398917e-08
-8.499994999999999990e-04 4.405212195024432731e-08
-7.000007000000000148e-04 4.720305568639560079e-08
-5.500019000000000305e-04 5.056047314155875938e-08
-3.999992999999999973e-04 5.413115289343295444e-08
-2.500005000000000131e-04 5.792193746856355574e-08
-1.000017000000000017e-04 6.194281354510167148e-08
5.000085000000000087e-05 6.620773973509130883e-08
1.999996999999999886e-04 7.073302299431816209e-08
3.499985000000000270e-04 7.553451553121703910e-08
4.999972999999999571e-04 8.062588818802396418e-08
6.499998000000000104e-04 8.601972467658924870e-08
7.999985999999999946e-04 9.172956083602912258e-08
9.499975000000000129e-04 9.776965015362293343e-08
1.100000000000000066e-03 1.041538553181453608e-07
1.249998999999999902e-03 1.108970266727737908e-07
1.399997999999999954e-03 1.180176312232106284e-07
1.549999999999999946e-03 1.255371131492211134e-07
1.699998999999999998e-03 1.334741170921915909e-07
1.849998000000000050e-03 1.418412978182459483e-07
2.000000000000000042e-03 1.506509477167128352e-07
2.149999000000000094e-03 1.599234025206897059e-07
2.299998000000000146e-03 1.696844122989205061e-07
2.449999999999999921e-03 1.799548243752724375e-07
2.599998999999999973e-03 1.907459221683893702e-07
2.749998000000000026e-03 2.020703107064036885e-07
2.900001000000000141e-03 2.139551469326761435e-07
3.049998999999999853e-03 2.264361285142513225e-07
3.199997999999999905e-03 2.395348701611510478e-07
3.350001000000000020e-03 2.532502207941433880e-07
3.500000000000000073e-03 2.675845394151110668e-07
3.649997999999999784e-03 2.825733247391326586e-07
3.800000999999999900e-03 2.982696116760052973e-07
3.950000000000000386e-03 3.146952565202809637e-07
4.099999000000000005e-03 3.318297103760414757e-07
4.249997000000000150e-03 3.496665783586649923e-07
4.400000000000000265e-03 3.682583269437600393e-07
4.549998999999999884e-03 3.876761525134497788e-07
4.699998000000000370e-03 4.079286668456916232e-07
4.850000000000000144e-03 4.289586001959833084e-07
4.999998999999999763e-03 4.507467394887498813e-07
5.149998000000000249e-03 4.733811636015161639e-07
5.300000000000000024e-03 4.969714382241363637e-07
5.449998999999999642e-03 5.215037504058273043e-07
5.599998000000000128e-03 5.468542099151818547e-07
5.749999999999999903e-03 5.729788199460017495e-07
5.899999000000000389e-03 6.000157668495376129e-07
6.049998000000000008e-03 6.281184710132947657e-07
6.200001000000000123e-03 6.572275879079825245e-07
6.349999000000000268e-03 6.871264304209034890e-07
6.499997999999999887e-03 7.177575298555893824e-07
6.650001000000000002e-03 7.493563316529616714e-07
6.799999999999999621e-03 7.821445251465775073e-07
6.949997999999999766e-03 8.159751700986817013e-07
7.100000999999999882e-03 8.504792390340298880e-07
7.250000000000000368e-03 8.855841429067368153e-07
7.399998999999999987e-03 9.216650482812838163e-07
7.550000999999999761e-03 9.590215768184862100e-07
7.700000000000000247e-03 9.973693977372022346e-07
7.849998999999999866e-03 1.036138428389676847e-06
7.999997999999999485e-03 1.075265799954649992e-06
8.149999999999999259e-03 1.115341547119896859e-06
8.299999000000000612e-03 1.156766529675223865e-06
8.449998000000000231e-03 1.199046096189704258e-06
8.600000000000000006e-03 1.241338736690522637e-06
8.749998999999999624e-03 1.283622850678511895e-06
8.899997999999999243e-03 1.326780761701229494e-06
9.050000000000000752e-03 1.371300413666176610e-06
9.199999000000000371e-03 1.416365080331161153e-06
9.349997999999999990e-03 1.460804924136027694e-06
9.500000999999999238e-03 1.504738520452519879e-06
9.649998999999999383e-03 1.549462467664852738e-06
9.799998000000000736e-03 1.595500179973896593e-06
9.950000999999999984e-03 1.641556082176975906e-06
1.009999999999999960e-02 1.686114046606235206e-06
1.025000000000000043e-02 1.729563109620357864e-06
1.039999999999999952e-02 1.773676444827287924e-06
1.055000000000000035e-02 1.818921532503736671e-06
1.069999999999999944e-02 1.863439251792442519e-06
1.085000000000000027e-02 1.905406747937377077e-06
1.099999999999999936e-02 1.945563553817919455e-06
1.115000000000000019e-02 1.986124289032886736e-06
1.129999999999999928e-02 2.027364871537429281e-06
1.145000000000000011e-02 2.066797833322198130e-06
1.159999999999999920e-02 2.102391135849757120e-06
1.175000000000000003e-02 2.135361000910052098e-06
1.190000000000000085e-02 2.168326545870513655e-06
1.204999999999999995e-02 2.201222969233640470e-06
1.220000000000000077e-02 2.230914560641394928e-06
1.234999999999999987e-02 2.255324261568603106e-06
1.250000000000000069e-02 2.276233317388687283e-06
1.264999999999999979e-02 2.296512320754118264e-06
1.280000000000000061e-02 2.315603751412709244e-06
1.294999999999999971e-02 2.329849849047604948e-06
1.310000000000000053e-02 2.337348405490047298e-06
1.324999999999999963e-02 2.340369064768310636e-06
1.340000000000000045e-02 2.341737854294478893e-06
1.354999999999999954e-02 2.340375203857547604e-06
1.370000000000000037e-02 2.332467374799307436e-06
1.384999999999999946e-02 2.316590780537808314e-06
1.400000000000000029e-02 2.295355898240813985e-06
1.414999999999999938e-02 2.271209950777119957e-06
1.430000000000000021e-02 2.242538130303728394e-06
1.444999999999999930e-02 2.205661303378292359e-06
1.460000000000000013e-02 2.159692485292907804e-06
1.474999999999999922e-02 2.107222599079250358e-06
1.490000000000000005e-02 2.050059947578120045e-06
1.504999999999999914e-02 1.986361212402698584e-06
1.519999999999999997e-02 1.913100504680187441e-06
1.535000000000000080e-02 1.829944608289224561e-06
1.549999999999999989e-02 1.738937157824693713e-06
1.565000000000000072e-02 1.640926825530186761e-06
1.580000000000000154e-02 1.534154193905123975e-06
1.594999999999999890e-02 1.416661802977614570e-06
1.609999999999999973e-02 1.288544581257156096e-06
1.625000000000000056e-02 1.150927687376679387e-06
1.640000000000000138e-02 1.003784177555644419e-06
1.654999999999999874e-02 8.459527407467248850e-07
1.669999999999999957e-02 6.767743343516485766e-07
1.685000000000000039e-02 4.964416007169347722e-07
1.700000000000000122e-02 3.048407677397335647e-07
1.714999999999999858e-02 1.012799302202438412e-07
1.729999999999999941e-02 -1.144064043501202832e-07
1.745000000000000023e-02 -3.416465119698841590e-07
1.760000000000000106e-02 -5.805648584100708831e-07
1.774999999999999842e-02 -8.325620228788466193e-07
1.789999999999999925e-02 -1.098575353353226092e-06
1.805000000000000007e-02 -1.377594458062958438e-06
1.820000000000000090e-02 -1.668178697400435340e-06
1.835000000000000173e-02 -1.971003712242236361e-06
1.849999999999999908e-02 -2.288353471158188768e-06
1.864999999999999991e-02 -2.620935674713109620e-06
1.880000000000000074e-02 -2.966789907077327371e-06
1.895000000000000157e-02 -3.324205636090482585e-06
1.909999999999999892e-02 -3.694377483043354005e-06
1.924999999999999975e-02 -4.079707650816999376e-06
1.940000000000000058e-02 -4.480225470615550876e-06
1.955000000000000140e-02 -4.893516234005801380e-06
1.969999999999999876e-02 -5.318237526807934046e-06
1.984999999999999959e-02 -5.755914116889471188e-06
2.000000000000000042e-02 -6.208398190210573375e-06
2.015000000000000124e-02 -6.674980795651208609e-06
2.029999999999999860e-02 -7.153415481297997758e-06
2.044999999999999943e-02 -7.642973287147469819e-06
2.060000000000000026e-02 -8.144872481352649629e-06
2.075000000000000108e-02 -8.659835657454095781e-06
2.089999999999999844e-02 -9.186775969283189625e-06
2.104999999999999927e-02 -9.724333722260780632e-06
2.120000000000000009e-02 -1.027236339723458514e-05
2.135000000000000092e-02 -1.083110055333236232e-05
2.149999999999999828e-02 -1.139987671194830909e-05
2.164999999999999911e-02 -1.197770779981510714e-05
2.179999999999999993e-02 -1.256443010788643733e-05
2.195000000000000076e-02 -1.316002089879475534e-05
2.210000000000000159e-02 -1.376319687551585957e-05
2.224999999999999895e-02 -1.437205537513364106e-05
2.239999999999999977e-02 -1.498611618444556370e-05
2.255000000000000060e-02 -1.560630335006862879e-05
2.270000000000000143e-02 -1.623243952053599060e-05
2.284999999999999878e-02 -1.686214091023430228e-05
2.299999999999999961e-02 -1.749313014443032444e-05
2.315000000000000044e-02 -1.812548725865781307e-05
2.330000000000000127e-02 -1.876016904134303331e-05
2.344999999999999862e-02 -1.939591311383992434e-05
2.359999999999999945e-02 -2.002944529522210360e-05
2.375000000000000028e-02 -2.065875014523044229e-05
2.390000000000000110e-02 -2.128445521520916373e-05
2.404999999999999846e-02 -2.190728991990908980e-05
2.419999999999999929e-02 -2.252548983960878104e-05
2.435000000000000012e-02 -2.313594814040698111e-05
2.450000000000000094e-02 -2.373694951529614627e-05
2.464999999999999830e-02 -2.432828296150546521e-05
2.479999999999999913e-02 -2.490914994268678129e-05
2.494999999999999996e-02 -2.547750227677170187e-05
2.510000000000000078e-02 -2.603159373393282294e-05
2.525000000000000161e-02 -2.657073491718620062e-05
2.539999999999999897e-02 -2.709401087486185133e-05
2.554999999999999979e-02 -2.759939343377482146e-05
2.570000000000000062e-02 -2.808482713589910418e-05
2.585000000000000145e-02 -2.854914419003762305e-05
2.599999999999999881e-02 -2.899101309594698250e-05
2.614999999999999963e-02 -2.940798003692179918e-05
2.630000000000000046e-02 -2.979773307743016630e-05
2.645000000000000129e-02 -3.015983202203642577e-05
2.659999999999999865e-02 -3.049469341931398958e-05
2.674999999999999947e-02 -3.080082751694135368e-05
2.690000000000000030e-02 -3.107448719674721360e-05
2.705000000000000113e-02 -3.131244739051908255e-05
2.719999999999999848e-02 -3.151390774291940033e-05
2.734999999999999931e-02 -3.167878821841441095e-05
2.750000000000000014e-02 -3.180529893143102527e-05
2.765000000000000097e-02 -3.189063863828778267e-05
2.779999999999999832e-02 -3.193347583874128759e-05
2.794999999999999915e-02 -3.193406519130803645e-05
2.809999999999999998e-02 -3.189166818629018962e-05
2.825000000000000080e-02 -3.180320345563814044e-05
2.840000000000000163e-02 -3.166525857523083687e-05
2.854999999999999899e-02 -3.147619645460508764e-05
2.869999999999999982e-02 -3.123556962236762047e-05
2.885000000000000064e-02 -3.094258863711729646e-05
2.900000000000000147e-02 -3.059635128010995686e-05
2.914999999999999883e-02 -3.019657924596685916e-05
2.929999999999999966e-02 -2.974259587062988430e-05
2.945000000000000048e-02 -2.923182182712480426e-05
2.960000000000000131e-02 -2.866087379516102374e-05
2.974999999999999867e-02 -2.802823837555479258e-05
2.989999999999999949e-02 -2.733457404247019440e-05
3.005000000000000032e-02 -2.658017911016941071e-05
3.020000000000000115e-02 -2.576371116447262466e-05
3.034999999999999851e-02 -2.488401150912977755e-05
3.049999999999999933e-02 -2.394160765106789768e-05
3.065000000000000016e-02 -2.293701072630938143e-05
3.080000000000000099e-02 -2.186839628848247230e-05
3.094999999999999835e-02 -2.073264477076008916e-05
3.109999999999999917e-02 -1.952865750354249030e-05
3.125000000000000000e-02 -1.825823346734978259e-05
3.139999999999999736e-02 -1.692349724180530757e-05
3.155000000000000165e-02 -1.552477806399110705e-05
3.169999999999999901e-02 -1.406145383953116834e-05
3.185000000000000331e-02 -1.253347727470099926e-05
3.200000000000000067e-02 -1.094104300136677921e-05
3.214999999999999802e-02 -9.283792678616009653e-06
3.230000000000000232e-02 -7.561632173747057095e-06
3.244999999999999968e-02 -5.775981662736739963e-06
3.259999999999999704e-02 -3.929164904548088089e-06
3.275000000000000133e-02 -2.022883563768118620e-06
3.289999999999999869e-02 -5.822205295658022806e-08
3.305000000000000299e-02 1.963212980626849458e-06
3.320000000000000034e-02 4.039552550239022821e-06
3.334999999999999770e-02 6.170102096803020686e-06
3.350000000000000200e-02 8.354973033419810236e-06
3.364999999999999936e-02 1.059254464053083211e-05
3.379999999999999671e-02 1.287841951125301421e-05
3.395000000000000101e-02 1.520785281172720715e-05
3.409999999999999837e-02 1.757839527272153646e-05
3.425000000000000266e-02 1.998913649003952742e-05
3.440000000000000002e-02 2.243810013169422746e-05
3.454999999999999738e-02 2.492177009116858244e-05
3.470000000000000168e-02 2.743674303928855807e-05
3.484999999999999903e-02 2.998024319822434336e-05
3.500000000000000333e-02 3.254876355640590191e-05
3.515000000000000069e-02 3.513758565532043576e-05
3.529999999999999805e-02 3.774225478991866112e-05
3.545000000000000234e-02 4.035952588310465217e-05
3.559999999999999970e-02 4.298619387554936111e-05
3.574999999999999706e-02 4.561792957247234881e-05
3.590000000000000135e-02 4.825001815333962440e-05
3.604999999999999871e-02 5.087836689199320972e-05
3.620000000000000301e-02 5.349863567971624434e-05
3.635000000000000037e-02 5.610504740616306663e-05
3.649999999999999772e-02 5.869146116310730577e-05
3.665000000000000202e-02 6.125349318608641624e-05
3.679999999999999938e-02 6.378819671226665378e-05
3.694999999999999674e-02 6.629148992942646146e-05
3.710000000000000103e-02 6.875702092656865716e-05
3.724999999999999839e-02 7.117811037460342050e-05
3.740000000000000269e-02 7.354952686000615358e-05
3.755000000000000004e-02 7.586665014969184995e-05
3.769999999999999740e-02 7.812413241481408477e-05
3.785000000000000170e-02 8.031636389205232263e-05
3.799999999999999906e-02 8.243876800406724215e-05
3.815000000000000335e-02 8.448717562714591622e-05
3.830000000000000071e-02 8.645602065371349454e-05
3.844999999999999807e-02 8.833842002786695957e-05
3.860000000000000236e-02 9.012816735776141286e-05
3.874999999999999972e-02 9.182054782286286354e-05
3.889999999999999708e-02 9.341118129668757319e-05
3.905000000000000138e-02 9.489520016359165311e-05
3.919999999999999873e-02 9.626818064134567976e-05
3.935000000000000303e-02 9.752662299433723092e-05
3.950000000000000039e-02 9.866627806331962347e-05
3.964999999999999775e-02 9.968093218049034476e-05
3.980000000000000204e-02 1.005640224320814013e-04
3.994999999999999940e-02 1.013113069348037243e-04
4.009999999999999676e-02 1.019209012156352401e-04
4.025000000000000105e-02 1.023906370392069221e-04
4.039999999999999841e-02 1.027167672873474658e-04
4.055000000000000271e-02 1.028951810440048575e-04
4.070000000000000007e-02 1.029226987157016993e-04
4.084999999999999742e-02 1.027965699904598296e-04
4.100000000000000172e-02 1.025136662065051496e-04
4.114999999999999908e-02 1.020712297759018838e-04
4.130000000000000338e-02 1.014677982311695814e-04
4.145000000000000073e-02 1.007027094601653516e-04
4.159999999999999809e-02 9.977491572499275208e-05
4.175000000000000239e-02 9.868318011285737157e-05
4.189999999999999974e-02 9.742696420289576054e-05
4.204999999999999710e-02 9.600607154425233603e-05
4.220000000000000140e-02 9.441968722967430949e-05
4.234999999999999876e-02 9.266711276723071933e-05
4.250000000000000305e-02 9.074962872546166182e-05
4.265000000000000041e-02 8.867043652571737766e-05
4.279999999999999777e-02 8.643220644444227219e-05
4.295000000000000207e-02 8.403554966207593679e-05
4.309999999999999942e-02 8.148072811309248209e-05
4.324999999999999678e-02 7.877002644818276167e-05
4.340000000000000108e-02 7.590762834297493100e-05
4.354999999999999843e-02 7.289774657692760229e-05
4.370000000000000273e-02 6.974411371629685163e-05
4.385000000000000009e-02 6.645086978096514940e-05
4.399999999999999745e-02 6.302277324721217155e-05
4.415000000000000174e-02 5.946431338088586926e-05
4.429999999999999910e-02 5.577969568548724055e-05
4.445000000000000340e-02 5.197401696932502091e-05
4.460000000000000075e-02 4.805373828276060522e-05
4.474999999999999811e-02 4.402570993988774717e-05
4.490000000000000241e-02 3.989655306213535368e-05
4.504999999999999977e-02 3.567327075870707631e-05
4.519999999999999712e-02 3.136354280286468565e-05
4.535000000000000142e-02 2.697462514333892614e-05
4.549999999999999878e-02 2.251272235298529267e-05
4.565000000000000308e-02 1.798440825950819999e-05
4.580000000000000043e-02 1.339832942903740332e-05
4.594999999999999779e-02 8.764467565924860537e-06
4.610000000000000209e-02 4.091955361218424514e-06
4.624999999999999944e-02 -6.114976258686510846e-07
4.639999999999999680e-02 -5.338130449672462419e-06
4.655000000000000110e-02 -1.007920673146145418e-05
4.669999999999999846e-02 -1.482578045397531241e-05
4.685000000000000275e-02 -1.956920277734752744e-05
4.700000000000000011e-02 -2.430028143862728029e-05
4.714999999999999747e-02 -2.900890467572025955e-05
4.730000000000000177e-02 -3.368527541169896722e-05
4.744999999999999912e-02 -3.832095899269916117e-05
4.760000000000000342e-02 -4.290796641726046801e-05
4.775000000000000078e-02 -4.743743920698761940e-05
4.789999999999999813e-02 -5.190008960198611021e-05
4.805000000000000243e-02 -5.628745202557183802e-05
4.819999999999999979e-02 -6.059150473447516561e-05
4.834999999999999715e-02 -6.480329466285184026e-05
4.850000000000000144e-02 -6.891335215186700225e-05