-4.000000000000000083e-02 0.000000000000000000e+00
-3.984999999999999654e-02 0.000000000000000000e+00
-3.969999999999999918e-02 0.000000000000000000e+00
-3.955000000000000182e-02 0.000000000000000000e+00
-3.939999999999999752e-02 0.000000000000000000e+00
-3.925000000000000017e-02 0.000000000000000000e+00
-3.910000000000000281e-02 0.000000000000000000e+00
-3.894999999999999851e-02 0.000000000000000000e+00
-3.880000000000000115e-02 0.000000000000000000e+00
-3.864999999999999686e-02 0.000000000000000000e+00
-3.849999999999999950e-02 0.000000000000000000e+00
-3.835000000000000214e-02 0.000000000000000000e+00
-3.819999999999999785e-02 0.000000000000000000e+00
-3.805000000000000049e-02 0.000000000000000000e+00
-3.790000000000000313e-02 0.000000000000000000e+00
-3.774999999999999883e-02 0.000000000000000000e+00
-3.760000000000000148e-02 0.000000000000000000e+00
-3.744999999999999718e-02 0.000000000000000000e+00
-3.729999999999999982e-02 0.000000000000000000e+00
-3.715000000000000246e-02 0.000000000000000000e+00
-3.699999999999999817e-02 0.000000000000000000e+00
-3.685000000000000081e-02 0.000000000000000000e+00
-3.670000000000000345e-02 0.000000000000000000e+00
-3.654999999999999916e-02 0.000000000000000000e+00
-3.640000000000000180e-02 0.000000000000000000e+00
-3.624999999999999750e-02 0.000000000000000000e+00
-3.610000000000000014e-02 0.000000000000000000e+00
-3.595000000000000279e-02 0.000000000000000000e+00
-3.579999999999999849e-02 0.000000000000000000e+00
-3.565000000000000113e-02 0.000000000000000000e+00
-3.549999999999999684e-02 0.000000000000000000e+00
-3.534999999999999948e-02 0.000000000000000000e+00
-3.520000000000000212e-02 0.000000000000000000e+00
-3.504999999999999782e-02 0.000000000000000000e+00
-3.490000000000000047e-02 0.000000000000000000e+00
-3.475000000000000311e-02 0.000000000000000000e+00
-3.459999999999999881e-02 0.000000000000000000e+00
-3.445000000000000145e-02 0.000000000000000000e+00
-3.429999999999999716e-02 -0.000000000000000000e+00
-3.414999999999999980e-02 0.000000000000000000e+00
-3.400000000000000244e-02 0.000000000000000000e+00
-3.384999999999999815e-02 -2.802596928649634142e-45
-3.370000000000000079e-02 2.101947696487225606e-44
-3.355000000000000343e-02 1.359259510395072559e-43
-3.339999999999999913e-02 -4.559825202912954749e-42
-3.325000000000000178e-02 2.923669115967298337e-41
-3.309999999999999748e-02 2.672108015651707176e-40
-3.295000000000000012e-02 -5.285596913943778605e-39
-3.280000000000000276e-02 1.274446761620891600e-38
-3.264999999999999847e-02 3.791177794613368746e-37
-3.250000000000000111e-02 -3.166228543997372023e-36
-3.234999999999999681e-02 -1.169847759245235770e-35
-3.219999999999999946e-02 2.608788388104326365e-34
-3.205000000000000210e-02 -2.716882210913387946e-34
-3.189999999999999780e-02 -1.367433917338747754e-32
-3.175000000000000044e-02 5.126043455567219773e-32
-3.160000000000000309e-02 5.291260244520208022e-31
-3.144999999999999879e-02 -3.205564443053955982e-30
-3.130000000000000143e-02 -1.659857606818724441e-29
-3.115000000000000061e-02 1.367616094277743842e-28
-3.099999999999999978e-02 4.677125203286777140e-28
-3.084999999999999895e-02 -4.528876649521072441e-27
-3.070000000000000159e-02 -1.315737560107027918e-26
-3.055000000000000077e-02 1.207848967589597128e-25
-3.039999999999999994e-02 3.805967412575173581e-25
-3.024999999999999911e-02 -2.555162084423607646e-24
-3.009999999999999828e-02 -1.045168281986741353e-23
-2.995000000000000093e-02 3.928468616749290348e-23
-2.980000000000000010e-02 2.433122691256320838e-22
-2.964999999999999927e-02 -3.036101209045357166e-22
-2.949999999999999845e-02 -4.317556045028974678e-21
-2.935000000000000109e-02 -3.558449408052863479e-21
-2.920000000000000026e-02 5.018310582785725009e-20
-2.904999999999999943e-02 1.510501979626924830e-19
-2.889999999999999861e-02 -2.139900605791226514e-19
-2.875000000000000125e-02 -2.055923084505129335e-18
-2.860000000000000042e-02 -3.260563374563814013e-18
-2.844999999999999959e-02 8.540136071616965949e-18
-2.829999999999999877e-02 4.851408667795341953e-17
-2.815000000000000141e-02 8.299261242677646801e-17
-2.800000000000000058e-02 -4.342263449773437422e-17
-2.784999999999999976e-02 -5.842162525945056740e-16
-2.769999999999999893e-02 -1.705293422103574836e-15
-2.755000000000000157e-02 -3.335514737608474660e-15
-2.740000000000000074e-02 -5.315440911046482447e-15
-2.724999999999999992e-02 -7.665581257048584979e-15
-2.709999999999999909e-02 -1.053092007585569589e-14
-2.695000000000000173e-02 -1.392223501468867891e-14
-2.680000000000000090e-02 -1.777648903457992174e-14
-2.665000000000000008e-02 -2.218129583546162020e-14
-2.649999999999999925e-02 -2.725386783657482437e-14
-2.634999999999999842e-02 -3.297798774511140341e-14
-2.620000000000000107e-02 -3.938940373957727781e-14
-2.605000000000000024e-02 -4.663019035028130588e-14
-2.589999999999999941e-02 -5.474603653439838458e-14
-2.574999999999999858e-02 -6.376755406264228432e-14
-2.560000000000000123e-02 -7.384248919793667820e-14
-2.545000000000000040e-02 -8.506302622999714624e-14
-2.529999999999999957e-02 -9.748130173079308514e-14
-2.514999999999999875e-02 -1.112589905730328177e-13
-2.500000000000000139e-02 -1.265240895994418358e-13
-2.485000000000000056e-02 -1.433634976141448525e-13
-2.469999999999999973e-02 -1.619658861239450798e-13
-2.454999999999999891e-02 -1.824927741474885456e-13
-2.440000000000000155e-02 -2.050768951357417880e-13
-2.425000000000000072e-02 -2.299468937743548436e-13
-2.409999999999999989e-02 -2.573002303839916349e-13
-2.394999999999999907e-02 -2.873281040177699808e-13
-2.380000000000000171e-02 -3.203114314585808753e-13
-2.365000000000000088e-02 -3.564926945223007015e-13
-2.350000000000000006e-02 -3.961359235429839920e-13
-2.334999999999999923e-02 -4.395830487807783626e-13
-2.319999999999999840e-02 -4.871359392255580900e-13
-2.305000000000000104e-02 -5.391505926606587895e-13
-2.290000000000000022e-02 -5.960376506589093459e-13
-2.274999999999999939e-02 -6.581804328983920094e-13
-2.259999999999999856e-02 -7.260480194490326333e-13
-2.245000000000000120e-02 -8.001311202140981571e-13
-2.230000000000000038e-02 -8.809319376398838664e-13
-2.214999999999999955e-02 -9.690282430641072864e-13
-2.199999999999999872e-02 -1.065041284331602611e-12
-2.185000000000000137e-02 -1.169579082020699712e-12
-2.170000000000000054e-02 -1.283415214381466996e-12
-2.154999999999999971e-02 -1.407230451958008111e-12
-2.139999999999999888e-02 -1.541909828983722974e-12
-2.125000000000000153e-02 -1.688277447529917819e-12
-2.110000000000000070e-02 -1.847297705429018500e-12
-2.094999999999999987e-02 -2.020002654729013969e-12
-2.079999999999999905e-02 -2.207381413071862752e-12
-2.065000000000000169e-02 -2.410803761482283036e-12
-2.050000000000000086e-02 -2.631135543815221745e-12
-2.035000000000000003e-02 -2.870351742748078472e-12
-2.019999999999999921e-02 -3.128919432576759974e-12
-2.004999999999999838e-02 -3.409692233419248097e-12
-1.990000000000000102e-02 -3.712623090901256973e-12
-1.975000000000000019e-02 -4.041469416071752363e-12
-1.959999999999999937e-02 -4.395914188215499507e-12
-1.944999999999999854e-02 -4.780131152015698603e-12
-1.930000000000000118e-02 -5.194342352077274683e-12
-1.915000000000000036e-02 -5.642195911870206970e-12
-1.899999999999999953e-02 -6.125634288006720496e-12
-1.884999999999999870e-02 -6.646528379755656246e-12
-1.870000000000000134e-02 -7.209837327853962918e-12
-1.855000000000000052e-02 -7.814720225096660755e-12
-1.839999999999999969e-02 -8.469635583152612668e-12
-1.824999999999999886e-02 -9.171224543691458564e-12
-1.810000000000000150e-02 -9.930689950921056663e-12
-1.795000000000000068e-02 -1.074371321074796271e-11
-1.779999999999999985e-02 -1.162220406719649546e-11
-1.764999999999999902e-02 -1.256321609244270832e-11
-1.750000000000000167e-02 -1.357729293577358831e-11
-1.735000000000000084e-02 -1.466454215004464601e-11
-1.720000000000000001e-02 -1.583341444066910242e-11
-1.704999999999999918e-02 -1.708679031597881703e-11
-1.689999999999999836e-02 -1.843239970378274251e-11
-1.675000000000000100e-02 -1.987404858738717195e-11
-1.660000000000000017e-02 -2.142098998181296565e-11
-1.644999999999999934e-02 -2.307600464879211444e-11
-1.629999999999999852e-02 -2.485113850814180125e-11
-1.615000000000000116e-02 -2.674813842640233474e-11
-1.600000000000000033e-02 -2.878101229564222763e-11
-1.584999999999999951e-02 -3.095218872872784743e-11
-1.569999999999999868e-02 -3.327549000231577736e-11
-1.554999999999999959e-02 -3.575635967867363263e-11
-1.540000000000000049e-02 -3.840711429448084857e-11
-1.524999999999999967e-02 -4.123638236430693382e-11
-1.510000000000000057e-02 -4.425603980506842561e-11
-1.494999999999999975e-02 -4.747624168799369215e-11
-1.480000000000000066e-02 -5.091044946725631348e-11
-1.464999999999999983e-02 -5.456910270873471802e-11
-1.450000000000000074e-02 -5.846775841256146578e-11
-1.434999999999999991e-02 -6.261761942294441496e-11
-1.420000000000000082e-02 -6.703491928217175655e-11
-1.404999999999999999e-02 -7.173398680615505896e-11
-1.389999999999999916e-02 -7.673002511143778293e-11
-1.375000000000000007e-02 -8.204148471691041777e-11
-1.359999999999999924e-02 -8.768248627166741471e-11
-1.345000000000000015e-02 -9.367469994137067602e-11
-1.329999999999999932e-02 -1.000333565981392780e-10
-1.315000000000000023e-02 -1.067809868304792076e-10
-1.299999999999999940e-02 -1.139355484958137765e-10
-1.285000000000000031e-02 -1.215206268945223655e-10
-1.269999999999999948e-02 -1.295561435910030923e-10
-1.255000000000000039e-02 -1.380678071871699331e-10
-1.239999999999999956e-02 -1.470763372202199548e-10
-1.225000000000000047e-02 -1.566104190775519100e-10
-1.209999999999999964e-02 -1.666919796639021456e-10
-1.195000000000000055e-02 -1.773514946012966220e-10
-1.179999999999999973e-02 -1.886145545304529492e-10
-1.165000000000000063e-02 -2.005110244507335437e-10
-1.149999999999999981e-02 -2.130704640501690506e-10
-1.135000000000000071e-02 -2.263230297616658504e-10
-1.119999999999999989e-02 -2.403025833874750106e-10
-1.105000000000000079e-02 -2.550399891276811104e-10
-1.089999999999999997e-02 -2.705713431083722753e-10
-1.074999999999999914e-02 -2.869305348873751882e-10
-1.060000000000000005e-02 -3.041550900029221793e-10
-1.044999999999999922e-02 -3.222800915025914037e-10
-1.030000000000000013e-02 -3.413473947944112297e-10
-1.014999999999999930e-02 -3.613928600820770498e-10
-1.000000000000000021e-02 -3.824605632196664828e-10
-9.850001000000000589e-03 -4.045882240344411684e-10
-9.700001999999999236e-03 -4.278215282038644318e-10
-9.550001000000000670e-03 -4.522035523812917290e-10
-9.400000999999999843e-03 -4.777789275323129914e-10
-9.250002000000000224e-03 -5.045942552683868598e-10
-9.100000999999999923e-03 -5.326958874007914346e-10
-8.950001000000000831e-03 -5.621335619210299228e-10
-8.800001999999999477e-03 -5.929542967741951998e-10
-8.650000999999999177e-03 -6.252104944870495729e-10
-8.500001999999999558e-03 -6.589512824284327053e-10
-8.349999999999999784e-03 -6.942300068146778358e-10
-8.200001000000000165e-03 -7.310967942153467902e-10
-8.050002000000000546e-03 -7.696082660046954516e-10
-7.900000000000000772e-03 -8.098157144864615020e-10
-7.750001000000000285e-03 -8.517760941018082121e-10
-7.600001999999999799e-03 -8.955433061785811333e-10
-7.449998999999999684e-03 -9.411745827136996922e-10
-7.300001000000000406e-03 -9.887262120145123845e-10
-7.150001999999999920e-03 -1.038255703633694793e-09
-7.000003000000000301e-03 -1.089821566324644664e-09
-6.850000000000000186e-03 -1.143478089993266167e-09
-6.700002000000000041e-03 -1.199287891218148161e-09
-6.550003000000000422e-03 -1.257306703195126829e-09
-6.400000000000000307e-03 -1.317593478766809767e-09
-6.250000999999999821e-03 -1.380204950329755320e-09
-6.100002999999999675e-03 -1.445203512417947422e-09
-5.950000000000000427e-03 -1.512641234491240994e-09
-5.800000999999999941e-03 -1.582578845749083030e-09
-5.650002999999999796e-03 -1.655073744721846651e-09
-5.499999999999999681e-03 -1.730180221315436029e-09
-5.350001000000000062e-03 -1.807955674060224283e-09
-5.200001999999999576e-03 -1.888453615705998345e-09
-5.049999999999999802e-03 -1.971729224337082087e-09
-4.900001000000000183e-03 -2.057833459190305803e-09
-4.750001999999999697e-03 -2.146821831416900750e-09
-4.599999999999999922e-03 -2.238738749937851935e-09
-4.450001000000000304e-03 -2.333634840923082265e-09
-4.300001999999999817e-03 -2.431558954185675248e-09
-4.149998999999999702e-03 -2.532553278200566638e-09
-4.000001000000000424e-03 -2.636661111665716817e-09
-3.850001999999999938e-03 -2.743924865100666466e-09
-3.699998999999999823e-03 -2.854386060846536566e-09
-3.550000000000000204e-03 -2.968076895371041246e-09
-3.400002000000000059e-03 -3.085031341498734037e-09
-3.250003000000000006e-03 -3.205277154805230566e-09
-3.099999999999999891e-03 -3.328850750605738540e-09
-2.950002000000000180e-03 -3.455770780647071660e-09
-2.800003000000000127e-03 -3.586058339166697806e-09
-2.650000000000000012e-03 -3.719732966089850379e-09
-2.500000999999999959e-03 -3.856805541602170706e-09
-2.350002999999999814e-03 -3.997291386781398614e-09
-2.200000000000000133e-03 -4.141195830698052305e-09
-2.050001000000000080e-03 -4.288513988370823427e-09
-1.900002000000000028e-03 -4.439252965227069581e-09
-1.750000000000000036e-03 -4.593410096731531667e-09
-1.600000999999999984e-03 -4.750966287048186132e-09
-1.450001999999999932e-03 -4.911908657589947325e-09
-1.299999999999999940e-03 -5.076219444788421242e-09
-1.150001000000000105e-03 -5.243868894666547931e-09
-1.000002000000000052e-03 -5.414826809158057586e-09
-8.499994999999999990e-04 -5.589062990196680403e-09
-7.000007000000000148e-04 -5.766536581575110176e-09
-5.500019000000000305e-04 -5.947199177569473250e-09
-3.999992999999999973e-04 -6.131001040188266415e-09
-2.500005000000000131e-04 -6.317883549655789466e-09
-1.000017000000000017e-04 -6.507781424858194441e-09
5.000085000000000087e-05 -6.700631161038472783e-09
1.999996999999999886e-04 -6.896352378049641629e-09
3.499985000000000270e-04 -7.094868248458396920e-09
4.999972999999999571e-04 -7.296090398511978492e-09
6.499998000000000104e-04 -7.499926901743947383e-09
7.999985999999999946e-04 -7.706282723063395679e-09
9.499975000000000129e-04 -7.915042843364972214e-09
1.100000000000000066e-03 -8.126106898487250874e-09
1.249998999999999902e-03 -8.339361201592510042e-09
1.399997999999999954e-03 -8.554671637739375001e-09
1.549999999999999946e-03 -8.771906756521730131e-09
1.699998999999999998e-03 -8.990938660247138614e-09
1.849998000000000050e-03 -9.211619023119510530e-09
2.000000000000000042e-03 -9.433812842019051459e-09
2.149999000000000094e-03 -9.657371791149671481e-09
2.299998000000000146e-03 -9.882125340254788171e-09
2.449999999999999921e-03 -1.010790739996991761e-08
2.599998999999999973e-03 -1.033455898635793346e-08
2.749998000000000026e-03 -1.056189624648595782e-08
2.900001000000000141e-03 -1.078975131463266734e-08
3.049998999999999853e-03 -1.101792435065362952e-08
3.199997999999999905e-03 -1.124623594250806491e-08
3.350001000000000020e-03 -1.147448713822996069e-08
3.500000000000000073e-03 -1.170246655135542824e-08
3.649997999999999784e-03 -1.193000098709262602e-08
3.800000999999999900e-03 -1.215686307176611081e-08
3.950000000000000386e-03 -1.238284763616093187e-08
4.099999000000000005e-03 -1.260773352385058388e-08
4.249997000000000150e-03 -1.283130224294382060e-08
4.400000000000000265e-03 -1.305335128876095041e-08
4.549998999999999884e-03 -1.327364529402075277e-08
4.699998000000000370e-03 -1.349193468058729195e-08
4.850000000000000144e-03 -1.370801960831613542e-08
4.999998999999999763e-03 -1.392164517000082924e-08
5.149998000000000249e-03 -1.413259198557170748e-08
5.300000000000000024e-03 -1.434062379956912991e-08
5.449998999999999642e-03 -1.454551501467449270e-08
5.599998000000000128e-03 -1.474701871728711922e-08
5.749999999999999903e-03 -1.494489154652001162e-08
5.899999000000000389e-03 -1.513889813509194937e-08
6.049998000000000008e-03 -1.532881377386274835e-08
6.200001000000000123e-03 -1.551439154923173191e-08
6.349999000000000268e-03 -1.569540408752345684e-08
6.499997999999999887e-03 -1.587162046234880108e-08
6.650001000000000002e-03 -1.604278310196605162e-08
6.799999999999999621e-03 -1.620866818541344401e-08
6.949997999999999766e-03 -1.636906610258392902e-08
7.100000999999999882e-03 -1.652374415073154523e-08
7.250000000000000368e-03 -1.667246429803981300e-08
7.399998999999999987e-03 -1.681500449990380730e-08
7.550000999999999761e-03 -1.695114981714596070e-08
7.700000000000000247e-03 -1.708069952144342096e-08
7.849998999999999866e-03 -1.720343334454810247e-08
7.999997999999999485e-03 -1.731915233449399238e-08
8.149999999999999259e-03 -1.742764510481720208e-08
8.299999000000000612e-03 -1.752870382176752173e-08
8.449998000000000231e-03 -1.762215440237469011e-08
8.600000000000000006e-03 -1.770781921095476719e-08
8.749998999999999624e-03 -1.778547975561650674e-08
8.899997999999999243e-03 -1.785499215145591734e-08
9.050000000000000752e-03 -1.791617521007538016e-08
9.199999000000000371e-03 -1.796887261207302799e-08
9.349997999999999990e-03 -1.801291737990595720e-08
9.500000999999999238e-03 -1.804815141781546117e-08
9.649998999999999383e-03 -1.807445038082278188e-08
9.799998000000000736e-03 -1.809166860766708851e-08
9.950000999999999984e-03 -1.809966931887174724e-08
1.009999999999999960e-02 -1.809835659116743045e-08
1.025000000000000043e-02 -1.808757943422278913e-08
1.039999999999999952e-02 -1.806725791198005027e-08
1.055000000000000035e-02 -1.803726590310361644e-08
1.069999999999999944e-02 -1.799753412967675104e-08
1.085000000000000027e-02 -1.794798443199852045e-08
1.099999999999999936e-02 -1.788849779416068486e-08
1.115000000000000019e-02 -1.781905112352433207e-08
1.129999999999999928e-02 -1.773953961503593746e-08
1.145000000000000011e-02 -1.764993839969974943e-08
1.159999999999999920e-02 -1.755020129223794356e-08
1.175000000000000003e-02 -1.744029098915689246e-08
1.190000000000000085e-02 -1.732016130517877173e-08
1.204999999999999995e-02 -1.718978737130782974e-08
1.220000000000000077e-02 -1.704917274025774532e-08
1.234999999999999987e-02 -1.689830142481696384e-08
1.250000000000000069e-02 -1.673718230676968233e-08
1.264999999999999979e-02 -1.656581360975906136e-08
1.280000000000000061e-02 -1.638423796634924656e-08
1.294999999999999971e-02 -1.619243583661500452e-08
1.310000000000000053e-02 -1.599048005118675064e-08
1.324999999999999963e-02 -1.577837771549184254e-08
1.340000000000000045e-02 -1.555619455473333801e-08
1.354999999999999954e-02 -1.532398563597325847e-08
1.370000000000000037e-02 -1.508179181541891012e-08
1.384999999999999946e-02 -1.482971168087487968e-08
1.400000000000000029e-02 -1.456777898312111574e-08
1.414999999999999938e-02 -1.429612428438531424e-08
1.430000000000000021e-02 -1.401479643448055867e-08
1.444999999999999930e-02 -1.372391711385034796e-08
1.460000000000000013e-02 -1.342362221379289622e-08
1.474999999999999922e-02 -1.311397124226232336e-08
1.490000000000000005e-02 -1.279511341323313900e-08
1.504999999999999914e-02 -1.246714997904518896e-08
1.519999999999999997e-02 -1.213019196200093575e-08
1.535000000000000080e-02 -1.178438679971804959e-08
1.549999999999999989e-02 -1.142991035152363111e-08
1.565000000000000072e-02 -1.106687985696908072e-08
1.580000000000000154e-02 -1.069541166742737914e-08
1.594999999999999890e-02 -1.031572072207609381e-08
1.609999999999999973e-02 -9.927938471321340330e-09
1.625000000000000056e-02 -9.532285183411204343e-09
1.640000000000000138e-02 -9.128884315146024164e-09
1.654999999999999874e-02 -8.717930377599714120e-09
1.669999999999999957e-02 -8.299615217310929438e-09
1.685000000000000039e-02 -7.874151997100398148e-09
1.700000000000000122e-02 -7.441700589083666273e-09
1.714999999999999858e-02 -7.002462609762005741e-09
1.729999999999999941e-02 -6.556682752290043936e-09
1.745000000000000023e-02 -6.104556415920114887e-09
1.760000000000000106e-02 -5.646306533435563324e-09
1.774999999999999842e-02 -5.182144047211068028e-09
1.789999999999999925e-02 -4.712313650401256382e-09
1.805000000000000007e-02 -4.237050710287348920e-09
1.820000000000000090e-02 -3.756580380098739624e-09
1.835000000000000173e-02 -3.271131809867711127e-09
1.849999999999999908e-02 -2.781001207097233419e-09
1.864999999999999991e-02 -2.286381972638196203e-09
1.880000000000000074e-02 -1.787586412227426536e-09
1.895000000000000157e-02 -1.284823247793553946e-09
1.909999999999999892e-02 -7.784117794784606303e-10
1.924999999999999975e-02 -2.685889566311772114e-10
1.940000000000000058e-02 2.443822089137626108e-10
1.955000000000000140e-02 7.601849705274332791e-10
1.969999999999999876e-02 1.278554373485008000e-09
1.984999999999999959e-02 1.799227877796738539e-09
2.000000000000000042e-02 2.321891345857807210e-09
2.015000000000000124e-02 2.846254121280367144e-09
2.029999999999999860e-02 3.372004675483708525e-09
2.044999999999999943e-02 3.898876776986526238e-09
2.060000000000000026e-02 4.426521371669878135e-09
2.075000000000000108e-02 4.954653576305645402e-09
2.089999999999999844e-02 5.482967413428241343e-09
2.104999999999999927e-02 6.011152020590770917e-09
2.120000000000000009e-02 6.538850350068514672e-09
2.135000000000000092e-02 7.065800833316870921e-09
2.149999999999999828e-02 7.591648198967959615e-09
2.164999999999999911e-02 8.116098015875650162e-09
2.179999999999999993e-02 8.638796344939692062e-09
2.195000000000000076e-02 9.159450975460003974e-09
2.210000000000000159e-02 9.677679990716114844e-09
2.224999999999999895e-02 1.019320539086265853e-08
2.239999999999999977e-02 1.070567190453175499e-08
2.255000000000000060e-02 1.121476156384915157e-08
2.270000000000000143e-02 1.172012265016064703e-08
2.284999999999999878e-02 1.222146206458774031e-08
2.299999999999999961e-02 1.271843341754674839e-08
2.315000000000000044e-02 1.321070808302238220e-08
2.330000000000000127e-02 1.369795654682093300e-08
2.344999999999999862e-02 1.417983153118029804e-08
2.359999999999999945e-02 1.465606924710982639e-08
2.375000000000000028e-02 1.512628955424588639e-08
2.390000000000000110e-02 1.559019402463945880e-08
2.404999999999999846e-02 1.604745847316735308e-08
2.419999999999999929e-02 1.649781289358998038e-08
2.435000000000000012e-02 1.694091089632365765e-08
2.450000000000000094e-02 1.737643984256465046e-08
2.464999999999999830e-02 1.780409064622290316e-08
2.479999999999999913e-02 1.822361106462722091e-08
2.494999999999999996e-02 1.863466891904863587e-08
2.510000000000000078e-02 1.903700486138859560e-08
2.525000000000000161e-02 1.943035066176435066e-08
2.539999999999999897e-02 1.981439723408584541e-08
2.554999999999999979e-02 2.018889766475240322e-08
2.570000000000000062e-02 2.055359260566547164e-08
2.585000000000000145e-02 2.090818895794654964e-08
2.599999999999999881e-02 2.125247711148858798e-08
2.614999999999999963e-02 2.158623146897298284e-08
2.630000000000000046e-02 2.190917314237594837e-08
2.645000000000000129e-02 2.222114936500929616e-08
2.659999999999999865e-02 2.252189723606079497e-08
2.674999999999999947e-02 2.281120714542339556e-08
2.690000000000000030e-02 2.308892632640890952e-08
2.705000000000000113e-02 2.335487003790603922e-08
2.719999999999999848e-02 2.360881090623934142e-08
2.734999999999999931e-02 2.385062813914373692e-08
2.750000000000000014e-02 2.408014410093528568e-08
2.765000000000000097e-02 2.429727885555621469e-08
2.779999999999999832e-02 2.450176417312377453e-08
2.794999999999999915e-02 2.469360538270848338e-08
2.809999999999999998e-02 2.487261241412852542e-08
2.825000000000000080e-02 2.503871598946716404e-08
2.840000000000000163e-02 2.519183794902346563e-08
2.854999999999999899e-02 2.533181486796820536e-08
2.869999999999999982e-02 2.545866273351293785e-08
2.885000000000000064e-02 2.557226963517678087e-08
2.900000000000000147e-02 2.567263379660289502e-08
2.914999999999999883e-02 2.575971258522713470e-08
2.929999999999999966e-02 2.583343139406224509e-08
2.945000000000000048e-02 2.589382397388817481e-08
2.960000000000000131e-02 2.594085479756813584e-08
2.974999999999999867e-02 2.597449899610637658e-08
2.989999999999999949e-02 2.599484716370170645e-08
3.005000000000000032e-02 2.600185311507630104e-08
3.020000000000000115e-02 2.599561810257000616e-08
3.034999999999999851e-02 2.597613857346914301e-08
3.049999999999999933e-02 2.594351933282723621e-08
3.065000000000000016e-02 2.589777459149900096e-08
3.080000000000000099e-02 2.583896829833065567e-08
3.094999999999999835e-02 2.576722835101463716e-08
3.109999999999999917e-02 2.568258672397405462e-08
3.125000000000000000e-02 2.558518907846973889e-08
3.139999999999999736e-02 2.547512600870049937e-08
3.155000000000000165e-02 2.535250409607670008e-08
3.169999999999999901e-02 2.521749742356860224e-08
3.185000000000000331e-02 2.507022323072760628e-08
3.200000000000000067e-02 2.491077744082303980e-08
3.214999999999999802e-02 2.473930749147257302e-08
3.230000000000000232e-02 2.455602121642641578e-08
3.244999999999999968e-02 2.436100565716969868e-08
3.259999999999999704e-02 2.415444910752739816e-08
3.275000000000000133e-02 2.393654341403816943e-08
3.289999999999999869e-02 2.370750529223641934e-08
3.305000000000000299e-02 2.346744842895986949e-08
3.320000000000000034e-02 2.321658776338608732e-08
3.334999999999999770e-02 2.295512757655160385e-08
3.350000000000000200e-02 2.268324550414035912e-08
3.364999999999999936e-02 2.240111562912261434e-08
3.379999999999999671e-02 2.210902039223583415e-08
3.395000000000000101e-02 2.180711078381136758e-08
3.409999999999999837e-02 2.149563194109305186e-08
3.425000000000000266e-02 2.117483077768156363e-08
3.440000000000000002e-02 2.084484407305353670e-08
3.454999999999999738e-02 2.050604486214524513e-08
3.470000000000000168e-02 2.015850242287342553e-08
3.484999999999999903e-02 1.980260044831538835e-08
3.500000000000000333e-02 1.943845440166569460e-08
3.515000000000000069e-02 1.906637869808491814e-08
3.529999999999999805e-02 1.868662558024425380e-08
3.545000000000000234e-02 1.829940288189391140e-08
3.559999999999999970e-02 1.790500903098291019e-08
3.574999999999999706e-02 1.750370515196664201e-08
3.590000000000000135e-02 1.709568664409744088e-08
3.604999999999999871e-02 1.668132476595474145e-08
3.620000000000000301e-02 1.626078471872460796e-08
3.635000000000000037e-02 1.583445374819802964e-08
3.649999999999999772e-02 1.540247218656531913e-08
3.665000000000000202e-02 1.496526458311109309e-08
3.679999999999999938e-02 1.452306097604605384e-08
3.694999999999999674e-02 1.407611982529033412e-08
3.710000000000000103e-02 1.362481683031546709e-08
3.724999999999999839e-02 1.316934294948168827e-08
3.740000000000000269e-02 1.271012273207361432e-08
3.755000000000000004e-02 1.224738621630194757e-08
3.769999999999999740e-02 1.178154462877500919e-08
3.785000000000000170e-02 1.131279425692355289e-08
3.799999999999999906e-02 1.084158984809846515e-08
3.815000000000000335e-02 1.036816676958096650e-08
3.830000000000000071e-02 9.892893615415232489e-09
3.844999999999999807e-02 9.416157631392252370e-09
3.860000000000000236e-02 8.938272344494180288e-09
3.874999999999999972e-02 8.459611677835709997e-09
3.889999999999999708e-02 7.980543337282597349e-09
3.905000000000000138e-02 7.501402166099069291e-09
3.919999999999999873e-02 7.022624259889198584e-09
3.935000000000000303e-02 6.544537800579064424e-09
3.950000000000000039e-02 6.067542912546741718e-09
3.964999999999999775e-02 5.592073470950253977e-09
3.980000000000000204e-02 5.118464763143037999e-09
3.994999999999999940e-02 4.647239038035877456e-09
4.009999999999999676e-02 4.178666745957571038e-09
4.025000000000000105e-02 3.713292562323999846e-09
4.039999999999999841e-02 3.251418911887071772e-09
4.055000000000000271e-02 2.793576037163347792e-09
4.070000000000000007e-02 2.340143856471854633e-09
4.084999999999999742e-02 1.891538037313011955e-09
4.100000000000000172e-02 1.448274944415572918e-09
4.114999999999999908e-02 1.010756145447544441e-09
4.130000000000000338e-02 5.794481006127227829e-10
4.145000000000000073e-02 1.547774408638957766e-10
4.159999999999999809e-02 -2.627412176714472025e-10
4.175000000000000239e-02 -6.727028378783472817e-10
4.189999999999999974e-02 -1.074633604325470060e-09
4.204999999999999710e-02 -1.468091648249014725e-09
4.220000000000000140e-02 -1.852600961527173240e-09
4.234999999999999876e-02 -2.227682927014029701e-09
4.250000000000000305e-02 -2.592930314904151601e-09
4.265000000000000041e-02 -2.947823318777409440e-09
4.279999999999999777e-02 -3.291974026708999190e-09
4.295000000000000207e-02 -3.624895272835715332e-09
4.309999999999999942e-02 -3.946119875308795599e-09
4.324999999999999678e-02 -4.255241936590437035e-09
4.340000000000000108e-02 -4.551808707731197501e-09
4.354999999999999843e-02 -4.835439160189025642e-09
4.370000000000000273e-02 -5.105669664828837995e-09
4.385000000000000009e-02 -5.362136956676977206e-09
4.399999999999999745e-02 -5.604340991283152107e-09
4.415000000000000174e-02 -5.831993998839379856e-09
4.429999999999999910e-02 -6.044669653704204393e-09
4.445000000000000340e-02 -6.242085071050951228e-09
4.460000000000000075e-02 -6.423768628138759595e-09
4.474999999999999811e-02 -6.589509826682160565e-09
4.490000000000000241e-02 -6.738892555091524628e-09
4.504999999999999977e-02 -6.871739621772121609e-09
4.519999999999999712e-02 -6.987640244204840201e-09
4.535000000000000142e-02 -7.086402575851025176e-09
4.549999999999999878e-02 -7.167736182367434594e-09
4.565000000000000308e-02 -7.231493182047188384e-09
4.580000000000000043e-02 -7.277411118167265158e-09
4.594999999999999779e-02 -7.305375859800733451e-09
4.610000000000000209e-02 -7.315196892676567586e-09
4.624999999999999944e-02 -7.306727667355517042e-09
4.639999999999999680e-02 -7.279937097592892314e-09
4.655000000000000110e-02 -7.234717713799909689e-09
4.669999999999999846e-02 -7.171007343487190155e-09
4.685000000000000275e-02 -7.088814868438930716e-09
4.700000000000000011e-02 -6.988085665682319814e-09
4.714999999999999747e-02 -6.868932533876659363e-09
4.730000000000000177e-02 -6.731372792501133517e-09
4.744999999999999912e-02 -6.575560540511560248e-09
4.760000000000000342e-02 -6.401603691585933120e-09
4.775000000000000078e-02 -6.209635028397997303e-09
4.789999999999999813e-02 -5.999834407077742071e-09