 -0.12000000000000000          0.0000000000000000
 -0.11889999999999999          0.0000000000000000
 -0.11780000000000000          0.0000000000000000
 -0.11670000000000000          0.0000000000000000
 -0.11559999999999999          0.0000000000000000
 -0.11449999999999999          0.0000000000000000
 -0.11340000000000000          0.0000000000000000
 -0.11230000000000000          0.0000000000000000
 -0.11119999999999999          0.0000000000000000
 -0.11009999999999999          0.0000000000000000
 -0.10900000000000000          0.0000000000000000
 -0.10790000000000000          0.0000000000000000
 -0.10679999999999999          0.0000000000000000
 -0.10569999999999999          0.0000000000000000
 -0.10460000000000000          1.6742257874988095E-204
 -0.10349999999999999          3.4500887227916246E-179
 -0.10239999999999999         -5.6250846130678847E-153
 -0.10130000000000000         -1.3209036391559359E-129
 -0.10020000000000000          2.5010481815035981E-103
  -9.9099999999999994E-002     9.2504746737093299E-079
  -9.7999999999999990E-002     9.6353302615265856E-055
  -9.6899999999999986E-002     2.1287821195563762E-053
  -9.5799999999999996E-002     2.1820918817113471E-052
  -9.4699999999999993E-002     1.3249655885981490E-051
  -9.3599999999999989E-002     4.8269232334298547E-051
  -9.2499999999999999E-002     6.9530743783339250E-051
  -9.1399999999999995E-002    -3.0765061193119626E-050
  -9.0299999999999991E-002    -2.3308028891098383E-049
  -8.9200000000000002E-002    -7.0170018526432644E-049
  -8.8099999999999984E-002    -6.1563258011757809E-049
  -8.6999999999999994E-002     4.0030679306393294E-048
  -8.5899999999999990E-002     2.0616219744991971E-047
  -8.4799999999999986E-002     4.4300100182041161E-047
  -8.3699999999999997E-002     4.2893576468143542E-048
  -8.2599999999999993E-002    -2.9733205175701084E-046
  -8.1499999999999989E-002    -1.0332442180838554E-045
  -8.0399999999999999E-002    -1.5190429155585983E-045
  -7.9299999999999995E-002     1.3670512621939798E-045
  -7.8199999999999992E-002     1.3164938043078433E-044
  -7.7100000000000002E-002     3.3328420611505626E-044
  -7.5999999999999984E-002     3.1210053836245338E-044
  -7.4899999999999994E-002    -7.8901524243581100E-044
  -7.3799999999999991E-002    -3.9132590927793292E-043
  -7.2699999999999987E-002    -7.6521017521623822E-043
  -7.1599999999999997E-002    -3.7333001233552605E-043
  -7.0499999999999993E-002     2.4376850805149568E-042
  -6.9399999999999989E-002     8.5851578742850661E-042
  -6.8300000000000000E-002     1.3533227316994036E-041
  -6.7199999999999996E-002     1.2813585598462344E-042
  -6.6099999999999992E-002    -5.2502840391505153E-041
  -6.5000000000000002E-002    -1.4893076936688781E-040
  -6.3899999999999985E-002    -1.9664845512967793E-040
  -6.2799999999999995E-002     4.7307104006764634E-041
  -6.1699999999999991E-002     8.7405063052116406E-040
  -6.0599999999999994E-002     2.1483333237950285E-039
  -5.9499999999999990E-002     2.4798092066843149E-039
  -5.8399999999999994E-002    -1.2052541419332335E-039
  -5.7299999999999990E-002    -1.1903278507550786E-038
  -5.6199999999999986E-002    -2.6726891316177525E-038
  -5.5099999999999996E-002    -2.8378022178786433E-038
  -5.3999999999999992E-002     1.6936377406940491E-038
  -5.2899999999999989E-002     1.3727662408985846E-037
  -5.1799999999999985E-002     2.9413031479703768E-037
  -5.0699999999999995E-002     3.0372128735982049E-037
  -4.9599999999999991E-002    -1.6665792895446386E-037
  -4.8499999999999988E-002    -1.3688079226982560E-036
  -4.7399999999999998E-002    -2.9095301743294725E-036
  -4.6299999999999994E-002    -3.0772433917484812E-036
  -4.5199999999999990E-002     1.1201748337145251E-036
  -4.4099999999999986E-002     1.1921078333708231E-035
  -4.2999999999999997E-002     2.6082879565217302E-035
  -4.1899999999999993E-002     2.9419263966348116E-035
  -4.0799999999999989E-002    -2.9170178355157258E-036
  -3.9699999999999985E-002    -9.0684305535158236E-035
  -3.8599999999999995E-002    -2.1230168442342532E-034
  -3.7499999999999992E-002    -2.6244861975996955E-034
  -3.6399999999999988E-002    -4.9956672626450762E-035
  -3.5299999999999984E-002     5.9469764139954180E-034
  -3.4199999999999994E-002     1.5636763350462309E-033
  -3.3099999999999991E-002     2.1576275496577855E-033
  -3.1999999999999987E-002     1.0169742610298860E-033
  -3.0899999999999997E-002    -3.2345086439474318E-033
  -2.9799999999999993E-002    -1.0331374731992098E-032
  -2.8699999999999989E-002    -1.6165114825995362E-032
  -2.7599999999999986E-002    -1.1854935302964546E-032
  -2.6499999999999996E-002     1.2949586937700685E-032
  -2.5399999999999992E-002     6.0240011258268808E-032
  -2.4299999999999988E-002     1.0923088318096132E-031
  -2.3199999999999985E-002     1.0718326712496755E-031
  -2.2099999999999995E-002    -1.7004439955004857E-032
  -2.0999999999999991E-002    -3.0018537540515386E-031
  -1.9899999999999987E-002    -6.5776073275242503E-031
  -1.8799999999999983E-002    -8.0939410985823894E-031
  -1.7699999999999994E-002    -3.1357670904130436E-031
  -1.6599999999999990E-002     1.1834191545697965E-030
  -1.5499999999999986E-002     3.4665358911478154E-030
  -1.4399999999999996E-002     5.2369908716287296E-030
  -1.3299999999999992E-002     4.0424617846509856E-030
  -1.2199999999999989E-002    -2.7258459525655384E-030
  -1.1099999999999985E-002    -1.5449830176220866E-029
  -9.9999999999999950E-003    -2.9170863764637190E-029
  -8.8999999999999913E-003    -3.1887716751982119E-029
  -7.7999999999999875E-003    -7.5642459532024507E-030
  -6.6999999999999837E-003     5.3502091570269577E-029
  -5.5999999999999939E-003     1.3817178893689676E-028
  -4.4999999999999901E-003     1.9611715579034451E-028
  -3.3999999999999864E-003     1.4324057524666606E-028
  -2.2999999999999826E-003    -1.0043716126512389E-028
  -1.1999999999999927E-003    -5.3446127168049097E-028
  -9.9999999999988987E-005    -9.8918457120481216E-028
   1.0000000000000148E-003    -1.0892921053943048E-027
   2.1000000000000185E-003    -3.5712381674217799E-028
   3.2000000000000084E-003     1.4859892799925386E-027
   4.3000000000000121E-003     4.0713560061682977E-027
   5.4000000000000159E-003     6.0151539889363855E-027
   6.5000000000000058E-003     5.0214572860623501E-027
   7.6000000000000234E-003    -1.1545295532343057E-027
   8.7000000000000133E-003    -1.2816009928122076E-026
   9.8000000000000032E-003    -2.6129759174236460E-026
   1.0900000000000021E-002    -3.2098303226660666E-026
   1.2000000000000011E-002    -1.8646492799185379E-026
   1.3100000000000001E-002     2.2851830888195057E-026
   1.4200000000000018E-002     8.7522504314092826E-026
   1.5300000000000008E-002     1.4791874873751102E-025
   1.6400000000000026E-002     1.5380828640545968E-025
   1.7500000000000016E-002     4.9090553019265793E-026
   1.8600000000000005E-002    -1.9141250275866121E-025
   1.9700000000000023E-002    -5.1500167151721018E-025
   2.0800000000000013E-002    -7.5976949165552812E-025
   2.1900000000000003E-002    -6.7560366969463301E-025
   2.3000000000000020E-002    -2.7649238765870812E-026
   2.4100000000000010E-002     1.2216023885985865E-024
   2.5200000000000000E-002     2.7149710001717119E-024
   2.6300000000000018E-002     3.6149780106835641E-024
   2.7400000000000008E-002     2.7829783277498167E-024
   2.8500000000000025E-002    -6.8385793307472088E-025
   2.9600000000000015E-002    -6.6368925309502826E-024
   3.0700000000000005E-002    -1.3115000196659368E-023
   3.1800000000000023E-002    -1.6197446170126491E-023
   3.2900000000000013E-002    -1.1053229357302129E-023
   3.4000000000000002E-002     5.5791833414826790E-024
   3.5100000000000020E-002     3.2015498451400535E-023
   3.6200000000000010E-002     5.8877791885253862E-023
   3.7300000000000028E-002     6.9231630168271161E-023
   3.8400000000000017E-002     4.3672848501268649E-023
   3.9500000000000007E-002    -2.9224547359005228E-023
   4.0600000000000025E-002    -1.3978624615472221E-022
   4.1700000000000015E-002    -2.4772811488071105E-022
   4.2800000000000005E-002    -2.8474130467029579E-022
   4.3900000000000022E-002    -1.7611885417047694E-022
   4.5000000000000012E-002     1.1847682548590042E-022
   4.6100000000000002E-002     5.5654456610506656E-022
   4.7200000000000020E-002     9.8036513294711894E-022
   4.8300000000000010E-002     1.1307955707046513E-021
   4.9400000000000027E-002     7.2989396461954991E-022
   5.0500000000000017E-002    -3.7049298881679375E-022
   5.1600000000000007E-002    -2.0171663633275314E-021
   5.2700000000000025E-002    -3.6445876059320789E-021
   5.3800000000000014E-002    -4.3260144563016675E-021
   5.4900000000000004E-002    -3.0597814798275573E-021
   5.6000000000000022E-002     7.2310340745241877E-022
   5.7100000000000012E-002     6.5750125338568891E-021
   5.8200000000000002E-002     1.2644997832978237E-020
   5.9300000000000019E-002     1.5816968940977162E-020
   6.0400000000000009E-002     1.2607999944392020E-020
   6.1500000000000027E-002     7.9089547176850093E-022
   6.2600000000000017E-002    -1.8698718215099049E-020
   6.3700000000000007E-002    -4.0405725493413100E-020
   6.4800000000000024E-002    -5.4558880565468750E-020
   6.5900000000000014E-002    -4.9590343020658677E-020
   6.7000000000000004E-002    -1.6953010709212829E-020
   6.8100000000000022E-002     4.2951408402543467E-020
   6.9200000000000012E-002     1.1609316573730705E-019
   7.0300000000000029E-002     1.7433618656842245E-019
   7.1400000000000019E-002     1.8154832420851214E-019
   7.2500000000000009E-002     1.0668543416872206E-019
   7.3600000000000027E-002    -5.8916061366463249E-020
   7.4700000000000016E-002    -2.8612617961495785E-019
   7.5800000000000006E-002    -5.0257411485758255E-019
   7.6900000000000024E-002    -6.0439610492531314E-019
   7.8000000000000014E-002    -4.8783919492252423E-019
   7.9100000000000004E-002    -9.5596470082804801E-020
   8.0200000000000021E-002     5.3608370672024635E-019
   8.1300000000000011E-002     1.2498344656501237E-018
   8.2400000000000029E-002     1.7795585370800802E-018
   8.3500000000000019E-002     1.8144697810086877E-018
   8.4600000000000009E-002     1.1093606371796297E-018
   8.5700000000000026E-002    -3.8578437188107694E-019
   8.6800000000000016E-002    -2.4220993291352777E-018
   8.7900000000000006E-002    -4.4260181662329475E-018
   8.9000000000000024E-002    -5.5914972165806736E-018
   9.0100000000000013E-002    -5.0987487426432066E-018
   9.1200000000000003E-002    -2.4222823594681413E-018
   9.2300000000000021E-002     2.3554418902872068E-018
   9.3400000000000011E-002     8.3385480282432253E-018
   9.4500000000000028E-002     1.3832193043288653E-017
   9.5600000000000018E-002     1.6646247661666465E-017
   9.6700000000000008E-002     1.4678910665982311E-017
   9.7800000000000026E-002     6.6736595744159446E-018
   9.8900000000000016E-002    -7.0455657790992221E-018
  0.10000000000000001         -2.4105681141493430E-017
  0.10110000000000002         -4.0114158382171962E-017
  0.10220000000000001         -4.9334371547632339E-017
  0.10330000000000003         -4.6006536379436152E-017
  0.10440000000000002         -2.6130609700928637E-017
  0.10550000000000001          1.0653824388427799E-017
  0.10660000000000003          5.9591570599767506E-017
  0.10770000000000002          1.1029037072193044E-016
  0.10880000000000001          1.4763536862808156E-016
  0.10990000000000003          1.5441234323738968E-016
  0.11100000000000002          1.1556272279370150E-016
  0.11210000000000001          2.3527433272738231E-017
  0.11320000000000002         -1.1638164707268946E-016
  0.11430000000000001         -2.8210295469620459E-016
  0.11540000000000003         -4.3420229296666498E-016
  0.11650000000000002         -5.2011499375978747E-016
  0.11760000000000001         -4.8415809399498392E-016
  0.11870000000000003         -2.8290455411177150E-016
  0.11980000000000002          9.6296252920068793E-017
  0.12090000000000001          6.1783464914941110E-016
  0.12200000000000003          1.1871506417766085E-015
  0.12310000000000001          1.6530950711895893E-015
  0.12420000000000003          1.8283842567748084E-015
  0.12530000000000002          1.5298910012535021E-015
  0.12640000000000001          6.3526441338983785E-016
  0.12750000000000003         -8.5403410466488572E-016
  0.12860000000000002         -2.7592824904260725E-015
  0.12970000000000001         -4.7004697396850967E-015
  0.13080000000000003         -6.1210614177618839E-015
  0.13190000000000002         -6.3746481447292415E-015
  0.13300000000000001         -4.8740181909208671E-015
  0.13410000000000000         -1.2855583815303229E-015
  0.13520000000000004          4.2678102174227395E-015
  0.13630000000000003          1.1049009324110578E-014
  0.13740000000000002          1.7657051165238994E-014
  0.13850000000000001          2.2142560517120579E-014
  0.13960000000000000          2.2323141236876025E-014
  0.14070000000000005          1.6292153171762645E-014
  0.14180000000000004          3.0594409764384536E-015
  0.14290000000000003         -1.6797109567014612E-014
  0.14400000000000002         -4.0640571476608784E-014
  0.14510000000000001         -6.3640013384469776E-014
  0.14620000000000000         -7.9168882299516896E-014
  0.14730000000000004         -7.9842527214731356E-014
  0.14840000000000003         -5.9174402779452854E-014
  0.14950000000000002         -1.3661586458888675E-014
  0.15060000000000001          5.5073987836859766E-014
  0.15170000000000000          1.3862063165243077E-013
  0.15280000000000005          2.2120356647043331E-013
  0.15390000000000004          2.8077763122125682E-013
  0.15500000000000003          2.9216028615113777E-013
  0.15610000000000002          2.3221022779697927E-013
  0.15720000000000001          8.6547875824199317E-014
  0.15830000000000000         -1.4326225694609745E-013
  0.15940000000000004         -4.3367519311924099E-013
  0.16050000000000003         -7.3621664097866045E-013
  0.16160000000000002         -9.7955006740082888E-013
  0.16270000000000001         -1.0780028002946450E-012
  0.16380000000000000         -9.4697795566174403E-013
  0.16490000000000005         -5.2417745358286591E-013
  0.16600000000000004          2.0624764065669030E-013
  0.16710000000000003          1.1913039824681879E-012
  0.16820000000000002          2.2945674894236030E-012
  0.16930000000000001          3.2958885722461962E-012
  0.17040000000000000          3.9109567608784864E-012
  0.17150000000000004          3.8337171717567419E-012
  0.17260000000000003          2.8004043725969282E-012
  0.17370000000000002          6.6845701117808284E-013
  0.17480000000000001         -2.5023935900646657E-012
  0.17590000000000000         -6.3848050391063081E-012
  0.17700000000000005         -1.0355267522485437E-011
  0.17810000000000004         -1.3522687611428025E-011
  0.17920000000000003         -1.4829053459853094E-011
  0.18030000000000002         -1.3226373886554781E-011
  0.18140000000000001         -7.9185415532706689E-012
  0.18250000000000000          1.3618165462530560E-012
  0.18360000000000004          1.4090060026492626E-011
  0.18470000000000003          2.8763001909132679E-011
  0.18580000000000002          4.2858354854224146E-011
  0.18690000000000001          5.3002631717479013E-011
  0.18800000000000000          5.5387421191235414E-011
  0.18910000000000005          4.6434963513030241E-011
  0.19020000000000004          2.3661101500749469E-011
  0.19130000000000003         -1.3376673681638935E-011
  0.19240000000000002         -6.2216193007627884E-011
  0.19350000000000001         -1.1692515108742343E-010
  0.19460000000000005         -1.6805884493819861E-010
  0.19570000000000004         -2.0333780469093300E-010
  0.19680000000000003         -2.0916279866678047E-010
  0.19790000000000002         -1.7295435617802973E-010
  0.19900000000000001         -8.6131638746122231E-011
  0.20010000000000000          5.2648253646391074E-011
  0.20120000000000005          2.3455312640860167E-010
  0.20230000000000004          4.3863712058650273E-010
  0.20340000000000003          6.3163837672541604E-010
  0.20450000000000002          7.7016062777807208E-010
  0.20560000000000000          8.0563987861800609E-010
  0.20670000000000005          6.9209085834382016E-010
  0.20780000000000004          3.9608774823116652E-010
  0.20890000000000003         -9.2180263640178304E-011
