 -0.12000000000000000          0.0000000000000000
 -0.11889999999999999          0.0000000000000000
 -0.11780000000000000          0.0000000000000000
 -0.11670000000000000          0.0000000000000000
 -0.11559999999999999          0.0000000000000000
 -0.11449999999999999          0.0000000000000000
 -0.11340000000000000          0.0000000000000000
 -0.11230000000000000          0.0000000000000000
 -0.11119999999999999          0.0000000000000000
 -0.11009999999999999          0.0000000000000000
 -0.10900000000000000          0.0000000000000000
 -0.10790000000000000          1.5360430715940590E-171
 -0.10679999999999999         -2.5715156589701551E-145
 -0.10569999999999999          2.2455081772955194E-119
 -0.10460000000000000         -1.4122397387211447E-093
 -0.10349999999999999          2.0175075405962887E-068
 -0.10239999999999999          6.7950438434179936E-044
 -0.10130000000000000          1.3131912562470583E-042
 -0.10020000000000000          1.1857335115626242E-041
  -9.9099999999999994E-002     6.3978102020993236E-041
  -9.7999999999999990E-002     2.1010892974931514E-040
  -9.6899999999999986E-002     2.9057365163463809E-040
  -9.5799999999999996E-002    -9.6463747654346104E-040
  -9.4699999999999993E-002    -7.1278227245226056E-039
  -9.3599999999999989E-002    -2.0685920260702190E-038
  -9.2499999999999999E-002    -2.2217175235517402E-038
  -9.1399999999999995E-002     7.3965399755443120E-038
  -9.0299999999999991E-002     4.2313399410807144E-037
  -8.9200000000000002E-002     9.8528003691204802E-037
  -8.8099999999999984E-002     7.0426218004906988E-037
  -8.6999999999999994E-002    -3.4593925821667318E-036
  -8.5899999999999990E-002    -1.5024665419746714E-035
  -8.4799999999999986E-002    -2.8837364547976977E-035
  -8.3699999999999997E-002    -1.2530554037158829E-035
  -8.2599999999999993E-002     1.0268909107220464E-034
  -8.1499999999999989E-002     3.6483305893036052E-034
  -8.0399999999999999E-002     6.0647117167700864E-034
  -7.9299999999999995E-002     1.6035296666924131E-034
  -7.8199999999999992E-002    -2.1116701738050340E-033
  -7.7100000000000002E-002    -6.6298929033768254E-033
  -7.5999999999999984E-002    -1.0104290415085309E-032
  -7.4899999999999994E-002    -2.1919685228014447E-033
  -7.3799999999999991E-002     3.2277252618085985E-032
  -7.2699999999999987E-002     9.5823687246304783E-032
  -7.1599999999999997E-002     1.4168150472898188E-031
  -7.0499999999999993E-002     4.0475387197761055E-032
  -6.9399999999999989E-002    -3.8214178798173429E-031
  -6.8300000000000000E-002    -1.1437487172938541E-030
  -6.7199999999999996E-002    -1.7249149705032234E-030
  -6.6099999999999992E-002    -7.6135966719942338E-031
  -6.5000000000000002E-002     3.5455571536423293E-030
  -6.3899999999999985E-002     1.1498561460470213E-029
  -6.2799999999999995E-002     1.8428226519272639E-029
  -6.1699999999999991E-002     1.1908828783486620E-029
  -6.0599999999999994E-002    -2.4967068679204960E-029
  -5.9499999999999990E-002    -9.7843034806671373E-029
  -5.8399999999999994E-002    -1.7256106589170846E-028
  -5.7299999999999990E-002    -1.5044986881270490E-028
  -5.6199999999999986E-002     1.1292181991955846E-028
  -5.5099999999999996E-002     6.9715100751500499E-028
  -5.3999999999999992E-002     1.4056236591556924E-027
  -5.2899999999999989E-002     1.5571731565010336E-027
  -5.1799999999999985E-002     4.2976058898617793E-029
  -5.0699999999999995E-002    -4.0091269123011200E-027
  -4.9599999999999991E-002    -9.8294715856781581E-027
  -4.8499999999999988E-002    -1.3396366681473751E-026
  -4.7399999999999998E-002    -7.1682703950440212E-027
  -4.6299999999999994E-002     1.6607269518004156E-026
  -4.5199999999999990E-002     5.7617371188913619E-026
  -4.4099999999999986E-002     9.6356598027171512E-026
  -4.2999999999999997E-002     8.8180176331251926E-026
  -4.1899999999999993E-002    -2.4235988082622018E-026
  -4.0799999999999989E-002    -2.6864855691934191E-025
  -3.9699999999999985E-002    -5.7566340482670278E-025
  -3.8599999999999995E-002    -7.2138007550753884E-025
  -3.7499999999999992E-002    -3.4990008917756524E-025
  -3.6399999999999988E-002     8.4742006534750159E-025
  -3.5299999999999984E-002     2.7772172937758212E-024
  -3.4199999999999994E-002     4.5391522388035055E-024
  -3.3099999999999991E-002     4.2891391705587633E-024
  -3.1999999999999987E-002    -1.9159875952750835E-025
  -3.0899999999999997E-002    -9.9289877324926376E-024
  -2.9799999999999993E-002    -2.2464437876623378E-023
  -2.8699999999999989E-002    -3.0053978145624536E-023
  -2.7599999999999986E-002    -2.0461406365651748E-023
  -2.6499999999999996E-002     1.7534843883487268E-023
  -2.5399999999999992E-002     8.3566526365869654E-023
  -2.4299999999999988E-002     1.5354797682709072E-022
  -2.3199999999999985E-002     1.7438517447744101E-022
  -2.2099999999999995E-002     7.6790706779678488E-023
  -2.0999999999999991E-002    -1.8589605640734007E-022
  -1.9899999999999987E-002    -5.7789659079496275E-022
  -1.8799999999999983E-002    -9.2649571195764073E-022
  -1.7699999999999994E-002    -9.2009049244405405E-022
  -1.6599999999999990E-002    -2.1017774472284429E-022
  -1.5499999999999986E-002     1.3622362545377760E-021
  -1.4399999999999996E-002     3.4694115616004219E-021
  -1.3299999999999992E-002     5.0828671216902717E-021
  -1.2199999999999989E-002     4.5728094544335002E-021
  -1.1099999999999985E-002     3.2744332972076964E-022
  -9.9999999999999950E-003    -8.0924116505809657E-021
  -8.8999999999999913E-003    -1.8610566185945164E-020
  -7.7999999999999875E-003    -2.5873868340418784E-020
  -6.6999999999999837E-003    -2.2080177405172293E-020
  -5.5999999999999939E-003    -1.5178075952504512E-022
  -4.4999999999999901E-003     4.0950530316213666E-020
  -3.3999999999999864E-003     9.0556313940596618E-020
  -2.2999999999999826E-003     1.2367250542957557E-019
  -1.1999999999999927E-003     1.0550823301171177E-019
  -9.9999999999988987E-005     5.7690880321552716E-021
   1.0000000000000148E-003    -1.7883524910975202E-019
   2.1000000000000185E-003    -4.0170353397512241E-019
   3.2000000000000084E-003    -5.5686924309704741E-019
   4.3000000000000121E-003    -4.9850025921490394E-019
   5.4000000000000159E-003    -9.8535056661926461E-020
   6.5000000000000058E-003     6.6466658161460150E-019
   7.6000000000000234E-003     1.6169443733884881E-018
   8.7000000000000133E-003     2.3495468807728122E-018
   9.8000000000000032E-003     2.2875878238209205E-018
   1.0900000000000021E-002     8.9894474158573899E-019
   1.2000000000000011E-002    -1.9804006121583546E-018
   1.3100000000000001E-002    -5.8085370280287441E-018
   1.4200000000000018E-002    -9.1637871574539488E-018
   1.5300000000000008E-002    -9.9323800765877367E-018
   1.6400000000000026E-002    -5.9828840034426800E-018
   1.7500000000000016E-002     3.7288777459309999E-018
   1.8600000000000005E-002     1.7938689880153712E-017
   1.9700000000000023E-002     3.2294405229748964E-017
   2.0800000000000013E-002     3.9672002806850254E-017
   2.1900000000000003E-002     3.2061036591663062E-017
   2.3000000000000020E-002     3.9788437787259822E-018
   2.4100000000000010E-002    -4.3397501135248423E-017
   2.5200000000000000E-002    -9.8975589689658534E-017
   2.6300000000000018E-002    -1.4138827003109382E-016
   2.7400000000000008E-002    -1.4323906428683743E-016
   2.8500000000000025E-002    -8.0399313944412611E-017
   2.9600000000000015E-002     5.5280556065005918E-017
   3.0700000000000005E-002     2.4382804561694417E-016
   3.1800000000000023E-002     4.3123022331562135E-016
   3.2900000000000013E-002     5.3535982346534972E-016
   3.4000000000000002E-002     4.6688336964811941E-016
   3.5100000000000020E-002     1.6337223594979654E-016
   3.6200000000000010E-002    -3.7146714998423651E-016
   3.7300000000000028E-002    -1.0371825498076059E-015
   3.8400000000000017E-002    -1.6307708690386179E-015
   3.9500000000000007E-002    -1.8788775905872899E-015
   4.0600000000000025E-002    -1.5118772891210184E-015
   4.1700000000000015E-002    -3.6928158049203677E-016
   4.2800000000000005E-002     1.4900408525045729E-015
   4.3900000000000022E-002     3.7115095817432488E-015
   4.5000000000000012E-002     5.6437059042511133E-015
   4.6100000000000002E-002     6.4429325492665663E-015
   4.7200000000000020E-002     5.2887222549225174E-015
   4.8300000000000010E-002     1.6799233712917156E-015
   4.9400000000000027E-002    -4.2567665178961638E-015
   5.0500000000000017E-002    -1.1542551444253756E-014
   5.1600000000000007E-002    -1.8311203813998707E-014
   5.2700000000000025E-002    -2.2045900406972998E-014
   5.3800000000000014E-002    -2.0118237944651088E-014
   5.4900000000000004E-002    -1.0579712705518867E-014
   5.6000000000000022E-002     6.9364774497292889E-015
   5.7100000000000012E-002     3.0429720929658500E-014
   5.8200000000000002E-002     5.5139972243246413E-014
   5.9300000000000019E-002     7.3820571440559542E-014
   6.0400000000000009E-002     7.7864283423453770E-014
   6.1500000000000027E-002     5.9305270377917065E-014
   6.2600000000000017E-002     1.3482719340929306E-014
   6.3700000000000007E-002    -5.8122078024257423E-014
   6.4800000000000024E-002    -1.4561580567152231E-013
   6.5900000000000014E-002    -2.2988390788925888E-013
   6.7000000000000004E-002    -2.8410397748818654E-013
   6.8100000000000022E-002    -2.7815593790174868E-013
   6.9200000000000012E-002    -1.8592859429665271E-013
   7.0300000000000029E-002     5.3017795994738566E-015
   7.1400000000000019E-002     2.8519223566230028E-013
   7.2500000000000009E-002     6.1297811632274351E-013
   7.3600000000000027E-002     9.1554314668636168E-013
   7.4700000000000016E-002     1.0938188373853442E-012
   7.5800000000000006E-002     1.0393201625963445E-012
   7.6900000000000024E-002     6.6056044009657388E-013
   7.8000000000000014E-002    -8.3764710577492541E-014
   7.9100000000000004E-002    -1.1511086767047833E-012
   8.0200000000000021E-002    -2.3899597727019108E-012
   8.1300000000000011E-002    -3.5337422774944326E-012
   8.2400000000000029E-002    -4.2233722104017696E-012
   8.3500000000000019E-002    -4.0643860777921146E-012
   8.4600000000000009E-002    -2.7177941800386999E-012
   8.5700000000000026E-002    -1.4591137384964634E-014
   8.6800000000000016E-002     3.9263700742646352E-012
   8.7900000000000006E-002     8.6064319846324092E-012
   8.9000000000000024E-002     1.3115425938925309E-011
   9.0100000000000013E-002     1.6192797811196737E-011
   9.1200000000000003E-002     1.6403603020950674E-011
   9.2300000000000021E-002     1.2431322719797833E-011
   9.3400000000000011E-002     3.4612152992976192E-012
   9.4500000000000028E-002    -1.0404635687955216E-011
   9.5600000000000018E-002    -2.7790039411463969E-011
   9.6700000000000008E-002    -4.5855317029737681E-011
   9.7800000000000026E-002    -6.0388140692946825E-011
   9.8900000000000016E-002    -6.6263334538536130E-011
  0.10000000000000001         -5.8307150682111718E-011
  0.10110000000000002         -3.2520172940591524E-011
  0.10220000000000001          1.2488037218044775E-011
  0.10330000000000003          7.4104284604939929E-011
  0.10440000000000002          1.4469515557900076E-010
  0.10550000000000001          2.1134840800547905E-010
  0.10660000000000003          2.5672420430652857E-010
  0.10770000000000002          2.6125129204656370E-010
  0.10880000000000001          2.0669162843053373E-010
  0.10990000000000003          8.0802818769669878E-011
  0.11100000000000002         -1.1751448152258230E-010
  0.11210000000000001         -3.7353066023117557E-010
  0.11320000000000002         -6.5365968026145981E-010
  0.11430000000000001         -9.0537176222235475E-010
  0.11540000000000003         -1.0611709519352650E-009
  0.11650000000000002         -1.0473121911366436E-009
  0.11760000000000001         -7.9718134473096512E-010
  0.11870000000000003         -2.6826093475350260E-010
  0.11980000000000002          5.3952612663810268E-010
  0.12090000000000001          1.5673768925361215E-009
  0.12200000000000003          2.6871375397016671E-009
  0.12310000000000001          3.7011025321986393E-009
  0.12420000000000003          4.3558465304479221E-009
  0.12530000000000002          4.3723877697925888E-009
  0.12640000000000001          3.4925728648478165E-009
  0.12750000000000003          1.5383754881441314E-009
  0.12860000000000002         -1.5228301376177482E-009
  0.12970000000000001         -5.5174788251803931E-009
  0.13080000000000003         -1.0022676712798057E-008
  0.13190000000000002         -1.4355032202700399E-008
  0.13300000000000001         -1.7604649312963029E-008
  0.13410000000000000         -1.8723581448745074E-008
  0.13520000000000004         -1.6671214601938637E-008
  0.13630000000000003         -1.0609599978395331E-008
  0.13740000000000002         -1.3055305955004281E-010
  0.13850000000000001          1.4515196075706572E-008
  0.13960000000000000          3.2226482630591520E-008
  0.14070000000000005          5.0943726064306511E-008
  0.14180000000000004          6.7670725314248581E-008
  0.14290000000000003          7.8665113625508377E-008
  0.14400000000000002          7.9820311815326743E-008
  0.14510000000000001          6.7237219984853779E-008
  0.14620000000000000          3.7952293865873454E-008
  0.14730000000000004         -9.2468381317343736E-009
  0.14840000000000003         -7.3021910959152615E-008
  0.14950000000000002         -1.4883299538001813E-007
  0.15060000000000001         -2.2858442449181730E-007
  0.15170000000000000         -3.0071432528562535E-007
  0.15280000000000005         -3.5084999936062009E-007
  0.15390000000000004         -3.6310228879388026E-007
  0.15500000000000003         -3.2199920901204395E-007
  0.15610000000000002         -2.1496715118883500E-007
  0.15720000000000001         -3.5165256768178481E-008
  0.15830000000000000          2.1562308279739259E-007
  0.15940000000000004          5.2442410494414368E-007
  0.16050000000000003          8.6527172578836038E-007
  0.16160000000000002          1.1986208192979757E-006
  0.16270000000000001          1.4723844650986759E-006
  0.16380000000000000          1.6249018326191139E-006
  0.16490000000000005          1.5899835074983256E-006
  0.16600000000000004          1.3039735543361998E-006
  0.16710000000000003          7.1453086920735510E-007
  0.16820000000000002         -2.0940790543487698E-007
  0.16930000000000001         -1.4672346651647273E-006
  0.17040000000000000         -3.0167492001283005E-006
  0.17150000000000004         -4.7656780820081924E-006
  0.17260000000000003         -6.5655473621037164E-006
  0.17370000000000002         -8.2086426261449687E-006
  0.17480000000000001         -9.4284805841638292E-006
  0.17590000000000000         -9.9037939353267104E-006
  0.17700000000000005         -9.2655270428486560E-006
  0.17810000000000004         -7.1057990748617328E-006
  0.17920000000000003         -2.9872685692932026E-006
  0.18030000000000002          3.5491123206047979E-006
  0.18140000000000001          1.2980278593310660E-005
  0.18250000000000000          2.5803627803877651E-005
  0.18360000000000004          4.2548378753335911E-005
  0.18470000000000003          6.3797820058040272E-005
  0.18580000000000002          9.0224082583130908E-005
  0.18690000000000001          1.2263645263424112E-004
  0.18800000000000000          1.6204354942880872E-004
  0.18910000000000005          2.0972900435892481E-004
  0.19020000000000004          2.6733969070835684E-004
  0.19130000000000003          3.3698514579271355E-004
  0.19240000000000002          4.2134667182910663E-004
  0.19350000000000001          5.2379473971942022E-004
  0.19460000000000005          6.4851375973053768E-004
  0.19570000000000004          8.0063399494060454E-004
  0.19680000000000003          9.8637130962073464E-004
  0.19790000000000002          1.2131764650338650E-003
  0.19900000000000001          1.4898966758102664E-003
  0.20010000000000000          1.8269529871313332E-003
  0.20120000000000005          2.2365375970107809E-003
  0.20230000000000004          2.7328354191967262E-003
  0.20340000000000003          3.3322738836652987E-003
  0.20450000000000002          4.0538041688524557E-003
  0.20560000000000000          4.9192157652737708E-003
  0.20670000000000005          5.9534845424500243E-003
  0.20780000000000004          7.1851524272362041E-003
  0.20890000000000003          8.6467345253557638E-003
