 -0.12000000000000000          0.0000000000000000
 -0.11889999999999999          0.0000000000000000
 -0.11780000000000000          0.0000000000000000
 -0.11670000000000000          0.0000000000000000
 -0.11559999999999999          2.7326896219606339E-005
 -0.11449999999999999          1.7529201889358379E-004
 -0.11340000000000000          5.5798542430597761E-004
 -0.11230000000000000          1.1080094666596299E-003
 -0.11119999999999999          1.3401908109441430E-003
 -0.11009999999999999          4.2740766325495349E-004
 -0.10900000000000000         -2.1237744165250056E-003
 -0.10790000000000000         -5.4192120105890909E-003
 -0.10679999999999999         -6.6556830944769644E-003
 -0.10569999999999999         -2.2376278981704229E-003
 -0.10460000000000000          9.2375188761922664E-003
 -0.10349999999999999          2.3655849237657480E-002
 -0.10239999999999999          3.0709581556899439E-002
 -0.10130000000000000          1.8404647773157649E-002
 -0.10020000000000000         -1.7765284226146452E-002
  -9.9099999999999994E-002    -6.5909776940776446E-002
  -9.7999999999999990E-002    -9.6708812068371217E-002
  -9.6899999999999986E-002    -7.5660424336252266E-002
  -9.5799999999999996E-002     1.3712176352198987E-002
  -9.4699999999999993E-002    0.14774200367708401
  -9.3599999999999989E-002    0.25871164458581447
  -9.2499999999999999E-002    0.26077142936699388
  -9.1399999999999995E-002    0.10077893772909848
  -9.0299999999999991E-002   -0.19081278268026561
  -8.9200000000000002E-002   -0.48430939284017471
  -8.8099999999999984E-002   -0.59544876920993461
  -8.6999999999999994E-002   -0.38401303851299279
  -8.5899999999999990E-002    0.13878284954748724
  -8.4799999999999986E-002    0.76163744601094863
  -8.3699999999999997E-002     1.1360246422091256
  -8.2599999999999993E-002    0.94888573838264412
  -8.1499999999999989E-002    0.13200166800707702
  -8.0399999999999999E-002    -1.0126292841632141
  -7.9299999999999995E-002    -1.8777158890620929
  -7.8199999999999992E-002    -1.8262780782177879
  -7.7100000000000002E-002   -0.57363841369950508
  -7.5999999999999984E-002     1.5254604441090587
  -7.4899999999999994E-002     3.4874476023052821
  -7.3799999999999991E-002     4.0898547094606261
  -7.2699999999999987E-002     2.5184158642652710
  -7.1599999999999997E-002    -1.0367560998035139
  -7.0499999999999993E-002    -5.1969078458950433
  -6.9399999999999989E-002    -7.8385777905437353
  -6.8300000000000000E-002    -7.0758499812477966
  -6.7199999999999996E-002    -2.3623051998301272
  -6.6099999999999992E-002     4.8737329419465478
  -6.5000000000000002E-002     11.522010515163617
  -6.3899999999999985E-002     14.061299511875754
  -6.2799999999999995E-002     10.331055296997151
  -6.1699999999999991E-002    0.95249114585128192
  -6.0599999999999994E-002    -10.434752536225359
  -5.9499999999999990E-002    -18.479122360696191
  -5.8399999999999994E-002    -18.566582215511296
  -5.7299999999999990E-002    -9.3302764526420017
  -5.6199999999999986E-002     6.0858698846158239
  -5.5099999999999996E-002     20.882191612446203
  -5.3999999999999992E-002     27.481687220549205
  -5.2899999999999989E-002     21.263995452508887
  -5.1799999999999985E-002     3.3617567617381212
  -5.0699999999999995E-002    -19.055513913662871
  -4.9599999999999991E-002    -35.515567796330657
  -4.8499999999999988E-002    -37.021030012999859
  -4.7399999999999998E-002    -20.720549690037011
  -4.6299999999999994E-002     7.8979383366110874
  -4.5199999999999990E-002     36.697438914848249
  -4.4099999999999986E-002     52.073103154968599
  -4.2999999999999997E-002     45.428735281333125
  -4.1899999999999993E-002     17.866761852607723
  -4.0799999999999989E-002    -19.410534043049353
  -3.9699999999999985E-002    -49.592615810619698
  -3.8599999999999995E-002    -57.869443271021304
  -3.7499999999999992E-002    -38.681086855836170
  -3.6399999999999988E-002    0.97166707982296152
  -3.5299999999999984E-002     44.059555242842578
  -3.4199999999999994E-002     71.055012665719133
  -3.3099999999999991E-002     69.098561458333890
  -3.1999999999999987E-002     38.434733992190608
  -3.0899999999999997E-002    -7.1426679156207120
  -2.9799999999999993E-002    -46.310576785934984
  -2.8699999999999989E-002    -60.020021146567728
  -2.7599999999999986E-002    -40.440960546563566
  -2.6499999999999996E-002     5.3172695670848915
  -2.5399999999999992E-002     58.612012328224488
  -2.4299999999999988E-002     98.214990503432034
  -2.3199999999999985E-002     110.44015655192247
  -2.2099999999999995E-002     95.457490176588294
  -2.0999999999999991E-002     66.689778715047368
  -1.9899999999999987E-002     43.692432911771540
  -1.8799999999999983E-002     42.253645737679328
  -1.7699999999999994E-002     66.879996596710711
  -1.6599999999999990E-002     109.56036380284429
  -1.5499999999999986E-002     155.34476155397056
  -1.4399999999999996E-002     191.58196202996214
  -1.3299999999999992E-002     215.61792418877062
  -1.2199999999999989E-002     236.53288344803127
  -1.1099999999999985E-002     269.76613603773143
  -9.9999999999999950E-003     327.53685046212905
  -8.8999999999999913E-003     410.58640737517334
  -7.7999999999999875E-003     506.38452985979075
  -6.6999999999999837E-003     595.57031503811822
  -5.5999999999999939E-003     663.71939356984637
  -4.4999999999999901E-003     712.07550085925652
  -3.3999999999999864E-003     760.71570462688953
  -2.2999999999999826E-003     841.14172110251400
  -1.1999999999999927E-003     980.90730673759344
  -9.9999999999988987E-005     1187.7067498437284
   1.0000000000000148E-003     1441.6335368313421
   2.1000000000000185E-003     1701.0041331113382
   3.2000000000000084E-003     1920.5415833114023
   4.3000000000000121E-003     2074.0197417790109
   5.4000000000000159E-003     2170.2142337130713
   6.5000000000000058E-003     2253.2243375807411
   7.6000000000000234E-003     2385.2667532129440
   8.7000000000000133E-003     2618.6894067113503
   9.8000000000000032E-003     2969.9241357911537
   1.0900000000000021E-002     3408.1613808246088
   1.2000000000000011E-002     3865.2425292758512
   1.3100000000000001E-002     4263.3663422161671
   1.4200000000000018E-002     4548.4120721380395
   1.5300000000000008E-002     4713.4052894040424
   1.6400000000000026E-002     4800.7591044681240
   1.7500000000000016E-002     4881.6830158116391
   1.8600000000000005E-002     5021.9643946358910
   1.9700000000000023E-002     5249.9301530930070
   2.0800000000000013E-002     5541.4758245098164
   2.1900000000000003E-002     5828.9514416558350
   2.3000000000000020E-002     6029.3251062119707
   2.4100000000000010E-002     6077.9753614625779
   2.5200000000000000E-002     5952.1475720772978
   2.6300000000000018E-002     5673.6333483018889
   2.7400000000000008E-002     5290.7427261784296
   2.8500000000000025E-002     4849.7815707613763
   2.9600000000000015E-002     4370.8988508795819
   3.0700000000000005E-002     3840.0752818714523
   3.1800000000000023E-002     3219.9668794331919
   3.2900000000000013E-002     2472.1798507501449
   3.4000000000000002E-002     1577.7579770599816
   3.5100000000000020E-002     544.28678735565438
   3.6200000000000010E-002    -603.87659115087001
   3.7300000000000028E-002    -1845.6490391799346
   3.8400000000000017E-002    -3180.5403500485022
   3.9500000000000007E-002    -4631.2933188527486
   4.0600000000000025E-002    -6228.1183469337147
   4.1700000000000015E-002    -7981.8658510061969
   4.2800000000000005E-002    -9861.2181213811346
   4.3900000000000022E-002    -11788.687651182778
   4.5000000000000012E-002    -13661.338947584127
   4.6100000000000002E-002    -15388.887336400248
   4.7200000000000020E-002    -16931.110151219273
   4.8300000000000010E-002    -18314.451852028447
   4.9400000000000027E-002    -19616.256282257957
   5.0500000000000017E-002    -20920.645221924136
   5.1600000000000007E-002    -22265.108412668556
   5.2700000000000025E-002    -23603.512349882007
   5.3800000000000014E-002    -24805.404235408558
   5.4900000000000004E-002    -25695.249717432249
   5.6000000000000022E-002    -26116.091289524255
   5.7100000000000012E-002    -25989.432098022226
   5.8200000000000002E-002    -25343.543238860962
   5.9300000000000019E-002    -24296.235951415587
   6.0400000000000009E-002    -22999.149366391270
   6.1500000000000027E-002    -21568.758490346463
   6.2600000000000017E-002    -20035.738396385612
   6.3700000000000007E-002    -18335.750848745625
   6.4800000000000024E-002    -16345.185369708541
   6.5900000000000014E-002    -13944.328181500869
   6.7000000000000004E-002    -11078.049872994090
   6.8100000000000022E-002    -7786.2909136394710
   6.9200000000000012E-002    -4192.0425816484722
   7.0300000000000029E-002    -455.29917879985879
   7.1400000000000019E-002     3282.8024363897198
   7.2500000000000009E-002     6938.3939205255201
   7.3600000000000027E-002     10489.290363431004
   7.4700000000000016E-002     13947.367503242574
   7.5800000000000006E-002     17317.321589723826
   7.6900000000000024E-002     20566.113270412392
   7.8000000000000014E-002     23619.909122319794
   7.9100000000000004E-002     26388.859413306087
   8.0200000000000021E-002     28803.768189162394
   8.1300000000000011E-002     30841.669543257984
   8.2400000000000029E-002     32523.542502811051
   8.3500000000000019E-002     33883.619204062292
   8.4600000000000009E-002     34927.070169122293
   8.5700000000000026E-002     35601.474398505692
   8.6800000000000016E-002     35802.019576692110
   8.7900000000000006E-002     35412.994279994193
   8.9000000000000024E-002     34367.687612022986
   9.0100000000000013E-002     32696.357936839788
   9.1200000000000003E-002     30534.864292404600
   9.2300000000000021E-002     28084.448028450384
   9.3400000000000011E-002     25537.590330374664
   9.4500000000000028E-002     23003.484833035665
   9.5600000000000018E-002     20469.429524360967
   9.6700000000000008E-002     17819.011616311374
   9.7800000000000026E-002     14901.215434267569
   9.8900000000000016E-002     11619.475512704945
  0.10000000000000001          7998.8466289190646
  0.10110000000000002          4198.7373348492665
  0.10220000000000001          464.00713055036766
  0.10330000000000003         -2963.4986781508010
  0.10440000000000002         -5932.0261563033819
  0.10550000000000001         -8425.5033464417265
  0.10660000000000003         -10547.741674822782
  0.10770000000000002         -12454.915018093734
  0.10880000000000001         -14270.331855125345
  0.10990000000000003         -16022.740952460495
  0.11100000000000002         -17636.264599683174
  0.11210000000000001         -18973.516511646387
  0.11320000000000002         -19907.124972650210
  0.11430000000000001         -20381.985251314996
  0.11540000000000003         -20437.262553016993
  0.11650000000000002         -20179.471123000916
  0.11760000000000001         -19723.923183148556
  0.11870000000000003         -19137.848744023158
  0.11980000000000002         -18416.332111524953
  0.12090000000000001         -17503.352238871252
  0.12200000000000003         -16344.940757598992
  0.12310000000000001         -14943.437326411222
  0.12420000000000003         -13380.806722052030
  0.12530000000000002         -11795.677776576267
  0.12640000000000001         -10324.341665721995
  0.12750000000000003         -9036.6660755281155
  0.12860000000000002         -7902.3572519663721
  0.12970000000000001         -6808.3175660650713
  0.13080000000000003         -5621.2739106286972
  0.13190000000000002         -4265.2073944355652
  0.13300000000000001         -2773.5859471780077
  0.13410000000000000         -1287.5702524978044
  0.13520000000000004          1.9151687328889271
  0.13630000000000003          941.50983367180436
  0.13740000000000002          1489.3352479693961
  0.13850000000000001          1738.0358550782921
  0.13960000000000000          1874.0211940529596
  0.14070000000000005          2091.6126132155700
  0.14180000000000004          2503.5464660925331
  0.14290000000000003          3091.5057774309221
  0.14400000000000002          3720.7136097000002
  0.14510000000000001          4210.8901427697483
  0.14620000000000000          4428.0058665563956
  0.14730000000000004          4351.2907500598885
  0.14840000000000003          4082.8457676313578
  0.14950000000000002          3796.3105252835726
  0.15060000000000001          3651.5375277314383
  0.15170000000000000          3718.6790875911611
  0.15280000000000005          3949.3542538393922
  0.15390000000000004          4207.8690608475781
  0.15500000000000003          4344.6909421138598
  0.15610000000000002          4273.3506422978862
  0.15720000000000001          4011.2733295280882
  0.15830000000000000          3664.7153863114131
  0.15940000000000004          3367.4942314523250
  0.16050000000000003          3207.0844068788060
  0.16160000000000002          3177.5715814232203
  0.16270000000000001          3184.0679456852827
  0.16380000000000000          3095.5537771399563
  0.16490000000000005          2817.3759650044940
  0.16600000000000004          2344.3457034020307
  0.16710000000000003          1765.8720570346175
  0.16820000000000002          1220.2181964800254
  0.16930000000000001          822.17364800872110
  0.17040000000000000          602.79385536496250
  0.17150000000000004          493.73309306603687
  0.17260000000000003          365.24145694271783
  0.17370000000000002          98.408920823802589
  0.17480000000000001         -346.27977662515065
  0.17590000000000000         -900.72853562088096
  0.17700000000000005         -1417.4075402431097
  0.17810000000000004         -1740.6956875968381
  0.17920000000000003         -1785.3981019736937
  0.18030000000000002         -1582.1137292577589
  0.18140000000000001         -1265.5976105883408
  0.18250000000000000         -1011.1437659003674
  0.18360000000000004         -950.48364055292689
  0.18470000000000003         -1109.1680426154103
  0.18580000000000002         -1396.5428898762966
  0.18690000000000001         -1652.8707138994687
  0.18800000000000000         -1729.5220275430756
  0.18910000000000005         -1562.0260010218590
  0.19020000000000004         -1200.1356375032265
  0.19130000000000003         -781.35368785677986
  0.19240000000000002         -462.90300178650187
  0.19350000000000001         -347.27788268663562
  0.19460000000000005         -438.27460824464555
  0.19570000000000004         -647.44099835355985
  0.19680000000000003         -844.50555364678712
  0.19790000000000002         -923.43028155841205
  0.19900000000000001         -849.42740519125346
  0.20010000000000000         -664.26755747112850
  0.20120000000000005         -450.51239434013041
  0.20230000000000004         -277.21063873178463
  0.20340000000000003         -158.49322109949682
  0.20450000000000002         -48.016321547542454
  0.20560000000000000          128.62853356234942
  0.20670000000000005          423.00067977990579
  0.20780000000000004          824.36915347212914
  0.20890000000000003          1255.4710727662784
