 -0.12000000000000000          0.0000000000000000
 -0.11889999999999999          0.0000000000000000
 -0.11780000000000000          0.0000000000000000
 -0.11670000000000000          0.0000000000000000
 -0.11559999999999999          0.0000000000000000
 -0.11449999999999999          0.0000000000000000
 -0.11340000000000000          0.0000000000000000
 -0.11230000000000000          0.0000000000000000
 -0.11119999999999999          0.0000000000000000
 -0.11009999999999999          0.0000000000000000
 -0.10900000000000000          0.0000000000000000
 -0.10790000000000000          0.0000000000000000
 -0.10679999999999999          1.3197885475588962E-037
 -0.10569999999999999          2.3774189295619807E-036
 -0.10460000000000000          2.1056534380208671E-035
 -0.10349999999999999          1.2114223039681322E-034
 -0.10239999999999999          5.0240341054371190E-034
 -0.10130000000000000          1.5664328516371766E-033
 -0.10020000000000000          3.6613315461348270E-033
  -9.9099999999999994E-002     5.8934972491422454E-033
  -9.7999999999999990E-002     3.5794482054873594E-033
  -9.6899999999999986E-002    -1.4559845890298785E-032
  -9.5799999999999996E-002    -6.5472851136402017E-032
  -9.4699999999999993E-002    -1.6121544143010359E-031
  -9.3599999999999989E-002    -2.8552650059318461E-031
  -9.2499999999999999E-002    -3.6043468690770167E-031
  -9.1399999999999995E-002    -2.0377576205141539E-031
  -9.0299999999999991E-002     5.4126983586955992E-031
  -8.9200000000000002E-002     2.5244254089097269E-030
  -8.8099999999999984E-002     6.7299358491914179E-030
  -8.6999999999999994E-002     1.3880638016858676E-029
  -8.5899999999999990E-002     2.2052774874012936E-029
  -8.4799999999999986E-002     2.1488712526951715E-029
  -8.3699999999999997E-002    -1.1835063653211689E-029
  -8.2599999999999993E-002    -1.1603876830737892E-028
  -8.1499999999999989E-002    -3.2082067669151251E-028
  -8.0399999999999999E-002    -5.8604792985873357E-028
  -7.9299999999999995E-002    -7.0580370641008623E-028
  -7.8199999999999992E-002    -2.3529366408420966E-028
  -7.7100000000000002E-002     1.4299977482787234E-027
  -7.5999999999999984E-002     4.6581272882057154E-027
  -7.4899999999999994E-002     8.7962211582664552E-027
  -7.3799999999999991E-002     1.1225119915963508E-026
  -7.2699999999999987E-002     6.9471404228568247E-027
  -7.1599999999999997E-002    -1.0206158443761328E-026
  -7.0499999999999993E-002    -4.3775270177993936E-026
  -6.9399999999999989E-002    -8.8369605673921542E-026
  -6.8300000000000000E-002    -1.2301232528435285E-025
  -6.7199999999999996E-002    -1.0871145545460893E-025
  -6.6099999999999992E-002     3.7834559547651419E-027
  -6.5000000000000002E-002     2.5142067524482290E-025
  -6.3899999999999985E-002     6.2196190029516303E-025
  -6.2799999999999995E-002     1.0116618156636523E-024
  -6.1699999999999991E-002     1.1960208290490455E-024
  -6.0599999999999994E-002     8.3991924829936547E-025
  -5.9499999999999990E-002    -4.2370052615320658E-025
  -5.8399999999999994E-002    -2.8229704584092830E-024
  -5.7299999999999990E-002    -6.1799923455901630E-024
  -5.6199999999999986E-002    -9.5864185373315890E-024
  -5.5099999999999996E-002    -1.1136584799120845E-023
  -5.3999999999999992E-002    -7.9383472135304529E-024
  -5.2899999999999989E-002     3.2821215463948881E-024
  -5.1799999999999985E-002     2.4668863337923732E-023
  -5.0699999999999995E-002     5.4738696418875708E-023
  -4.9599999999999991E-002     8.5387067481350066E-023
  -4.8499999999999988E-002     9.9753909478381339E-023
  -4.7399999999999998E-002     7.3173102913342465E-023
  -4.6299999999999994E-002    -2.0301202690749739E-023
  -4.5199999999999990E-002    -1.9436384900531858E-022
  -4.4099999999999986E-002    -4.3139295440990200E-022
  -4.2999999999999997E-002    -6.6378776437283701E-022
  -4.1899999999999993E-002    -7.6628777377616119E-022
  -4.0799999999999989E-002    -5.7218037547113600E-022
  -3.9699999999999985E-002     7.6495668567091427E-023
  -3.8599999999999995E-002     1.2444105028484789E-021
  -3.7499999999999992E-002     2.7998839461467941E-021
  -3.6399999999999988E-002     4.3278608354449865E-021
  -3.5299999999999984E-002     5.1081436111732720E-021
  -3.4199999999999994E-002     4.2109084520096096E-021
  -3.3099999999999991E-002     7.4592363566309006E-022
  -3.1999999999999987E-002    -5.7352840151719740E-021
  -3.0899999999999997E-002    -1.4742325868277442E-020
  -2.9799999999999993E-002    -2.4382524867290579E-020
  -2.8699999999999989E-002    -3.1130600062482959E-020
  -2.7599999999999986E-002    -3.0079953843868182E-020
  -2.6499999999999996E-002    -1.5917913429784823E-020
  -2.5399999999999992E-002     1.5237285861876236E-020
  -2.4299999999999988E-002     6.3243728504920092E-020
  -2.3199999999999985E-002     1.2108739653198903E-019
  -2.2099999999999995E-002     1.7276701175438370E-019
  -2.0999999999999991E-002     1.9332971787691326E-019
  -1.9899999999999987E-002     1.5259117341824055E-019
  -1.8799999999999983E-002     2.3586189203535378E-020
  -1.7699999999999994E-002    -2.0449851473674674E-019
  -1.6599999999999990E-002    -5.1121335660313222E-019
  -1.5499999999999986E-002    -8.3224727630864748E-019
  -1.4399999999999996E-002    -1.0559175579208351E-018
  -1.3299999999999992E-002    -1.0356372001484100E-018
  -1.2199999999999989E-002    -6.2302547420577012E-019
  -1.1099999999999985E-002     2.7884458120680775E-019
  -9.9999999999999950E-003     1.6501667677918827E-018
  -8.8999999999999913E-003     3.2936212351148218E-018
  -7.7999999999999875E-003     4.8013957804118358E-018
  -6.6999999999999837E-003     5.5755892033750342E-018
  -5.5999999999999939E-003     4.9228590650730461E-018
  -4.4999999999999901E-003     2.2309976793854568E-018
  -3.3999999999999864E-003    -2.7863841100970084E-018
  -2.2999999999999826E-003    -9.8185432246566091E-018
  -1.1999999999999927E-003    -1.7730353188196971E-017
  -9.9999999999988987E-005    -2.4473251716510600E-017
   1.0000000000000148E-003    -2.7236223977744188E-017
   2.1000000000000185E-003    -2.2919146469697831E-017
   3.2000000000000084E-003    -8.9540740586490423E-018
   4.3000000000000121E-003     1.5597476952370074E-017
   5.4000000000000159E-003     4.8872431967537192E-017
   6.5000000000000058E-003     8.5294671564266307E-017
   7.6000000000000234E-003     1.1535415632177070E-016
   8.7000000000000133E-003     1.2650634281814196E-016
   9.8000000000000032E-003     1.0547671444055905E-016
   1.0900000000000021E-002     4.1943931524624906E-017
   1.2000000000000011E-002    -6.6875678126836730E-017
   1.3100000000000001E-002    -2.1172276711535010E-016
   1.4200000000000018E-002    -3.6826480452945553E-016
   1.5300000000000008E-002    -4.9710026939247986E-016
   1.6400000000000026E-002    -5.4812219056761966E-016
   1.7500000000000016E-002    -4.6985922002475273E-016
   1.8600000000000005E-002    -2.2326660381030698E-016
   1.9700000000000023E-002     2.0198606331065030E-016
   2.0800000000000013E-002     7.7211429944446882E-016
   2.1900000000000003E-002     1.3991721417834781E-015
   2.3000000000000020E-002     1.9411806521186374E-015
   2.4100000000000010E-002     2.2165361415132398E-015
   2.5200000000000000E-002     2.0347854086386017E-015
   2.6300000000000018E-002     1.2425101439917245E-015
   2.7400000000000008E-002    -2.2133310289910546E-016
   2.8500000000000025E-002    -2.2710457101969191E-015
   2.9600000000000015E-002    -4.6352782106703631E-015
   3.0700000000000005E-002    -6.8499801641882954E-015
   3.1800000000000023E-002    -8.2979004480361585E-015
   3.2900000000000013E-002    -8.3029179690665614E-015
   3.4000000000000002E-002    -6.2762349772778679E-015
   3.5100000000000020E-002    -1.8966619990696403E-015
   3.6200000000000010E-002     4.7082797765807724E-015
   3.7300000000000028E-002     1.2825814087739051E-014
   3.8400000000000017E-002     2.1115515691565874E-014
   3.9500000000000007E-002     2.7703384111519377E-014
   4.0600000000000025E-002     3.0434501724218853E-014
   4.1700000000000015E-002     2.7274927993970714E-014
   4.2800000000000005E-002     1.6815676187152163E-014
   4.3900000000000022E-002    -1.2050594659068848E-015
   4.5000000000000012E-002    -2.5472251020238106E-014
   4.6100000000000002E-002    -5.2877230966178325E-014
   4.7200000000000020E-002    -7.8620400298781902E-014
   4.8300000000000010E-002    -9.6701473975241210E-014
   4.9400000000000027E-002    -1.0080374264509234E-013
   5.0500000000000017E-002    -8.5500804394373348E-014
   5.1600000000000007E-002    -4.7630314216141692E-014
   5.2700000000000025E-002     1.2396108589443476E-014
   5.3800000000000014E-002     8.9627475674331617E-014
   5.4900000000000004E-002     1.7423980215197166E-013
   5.6000000000000022E-002     2.5207072877027350E-013
   5.7100000000000012E-002     3.0614482879232761E-013
   5.8200000000000002E-002     3.1914233521972223E-013
   5.9300000000000019E-002     2.7656241140953383E-013
   6.0400000000000009E-002     1.7013690275438891E-013
   6.1500000000000027E-002     9.0762559178859313E-016
   6.2600000000000017E-002    -2.1866850434626433E-013
   6.3700000000000007E-002    -4.6415195679097866E-013
   6.4800000000000024E-002    -7.0046852290019707E-013
   6.5900000000000014E-002    -8.8527558479426073E-013
   6.7000000000000004E-002    -9.7413816758247080E-013
   6.8100000000000022E-002    -9.2701496636759175E-013
   6.9200000000000012E-002    -7.1532898635753379E-013
   7.0300000000000029E-002    -3.2876025545523443E-013
   7.1400000000000019E-002     2.1915206475300458E-013
   7.2500000000000009E-002     8.8748912441721631E-013
   7.3600000000000027E-002     1.6073233336632334E-012
   7.4700000000000016E-002     2.2846464114898706E-012
   7.5800000000000006E-002     2.8072889430271458E-012
   7.6900000000000024E-002     3.0559169132238646E-012
   7.8000000000000014E-002     2.9187085735430702E-012
   7.9100000000000004E-002     2.3087226325405403E-012
   8.0200000000000021E-002     1.1823373221924683E-012
   8.1300000000000011E-002    -4.4342224981428677E-013
   8.2400000000000029E-002    -2.4772282663734684E-012
   8.3500000000000019E-002    -4.7461309271384103E-012
   8.4600000000000009E-002    -6.9970390048284779E-012
   8.5700000000000026E-002    -8.9089687742992357E-012
   8.6800000000000016E-002    -1.0117275521585133E-011
   8.7900000000000006E-002    -1.0250080345151831E-011
   8.9000000000000024E-002    -8.9758247848438762E-012
   9.0100000000000013E-002    -6.0592704028237863E-012
   9.1200000000000003E-002    -1.4212955341816687E-012
   9.2300000000000021E-002     4.8043508616907414E-012
   9.3400000000000011E-002     1.2226264499176853E-011
   9.4500000000000028E-002     2.0172927719274110E-011
   9.5600000000000018E-002     2.7703046722551350E-011
   9.6700000000000008E-002     3.3657353816242338E-011
   9.7800000000000026E-002     3.6756547974215709E-011
   9.8900000000000016E-002     3.5744042948581288E-011
  0.10000000000000001          2.9564890202318812E-011
  0.10110000000000002          1.7564748078257241E-011
  0.10220000000000001         -3.1368203078260831E-013
  0.10330000000000003         -2.3363660204962228E-011
  0.10440000000000002         -5.0005268984019949E-011
  0.10550000000000001         -7.7760966031164275E-011
  0.10660000000000003         -1.0333803610497019E-010
  0.10770000000000002         -1.2283262012192336E-010
  0.10880000000000001         -1.3205966110808039E-010
  0.10990000000000003         -1.2700002779954391E-010
  0.11100000000000002         -1.0434053404580221E-010
  0.11210000000000001         -6.2065416428878480E-011
  0.11320000000000002         -4.0784602394611520E-014
  0.11430000000000001          7.9480765402205679E-011
  0.11540000000000003          1.7151664234383368E-010
  0.11650000000000002          2.6825275296505675E-010
  0.11760000000000001          3.5925374221448046E-010
  0.11870000000000003          4.3203246218603576E-010
  0.11980000000000002          4.7299422799727793E-010
  0.12090000000000001          4.6873267106662231E-010
  0.12200000000000003          4.0761188562859287E-010
  0.12310000000000001          2.8152739463411561E-010
  0.12420000000000003          8.7699022656872573E-011
  0.12530000000000002         -1.6968546413386013E-010
  0.12640000000000001         -4.7818322346428624E-010
  0.12750000000000003         -8.1638694861384213E-010
  0.12860000000000002         -1.1540107282519841E-009
  0.12970000000000001         -1.4529608376313931E-009
  0.13080000000000003         -1.6695236712068433E-009
  0.13190000000000002         -1.7577133238655873E-009
  0.13300000000000001         -1.6737018146846844E-009
  0.13410000000000000         -1.3811140139223679E-009
  0.13520000000000004         -8.5682080457888474E-010
  0.13630000000000003         -9.6725169016570581E-011
  0.13740000000000002          8.7907527228183567E-010
  0.13850000000000001          2.0224331309388154E-009
  0.13960000000000000          3.2552984270047120E-009
  0.14070000000000005          4.4705089882142907E-009
  0.14180000000000004          5.5357408005821548E-009
  0.14290000000000003          6.3009385298507479E-009
  0.14400000000000002          6.6092791128845816E-009
  0.14510000000000001          6.3113901580749542E-009
  0.14620000000000000          5.2821650071329391E-009
  0.14730000000000004          3.4391132640899877E-009
  0.14840000000000003          7.6079591227792665E-010
  0.14950000000000002         -2.6964370245254102E-009
  0.15060000000000001         -6.7854123146944996E-009
  0.15170000000000000         -1.1260880431272700E-008
  0.15280000000000005         -1.5780005087179630E-008
  0.15390000000000004         -1.9912233154965728E-008
  0.15500000000000003         -2.3159648131361536E-008
  0.15610000000000002         -2.4988178456505564E-008
  0.15720000000000001         -2.4869131637778667E-008
  0.15830000000000000         -2.2329499269380682E-008
  0.15940000000000004         -1.7008384636955001E-008
  0.16050000000000003         -8.7158183800885402E-009
  0.16160000000000002          2.5107586911808825E-009
  0.16270000000000001          1.6357844510885086E-008
  0.16380000000000000          3.2201007596250113E-008
  0.16490000000000005          4.9089766313117822E-008
  0.16600000000000004          6.5757661384259408E-008
  0.16710000000000003          8.0661860791169106E-008
  0.16820000000000002          9.2054935685880577E-008
  0.16930000000000001          9.8089202430831467E-008
  0.17040000000000000          9.6951346606549762E-008
  0.17150000000000004          8.7022086843242519E-008
  0.17260000000000003          6.7052596869234291E-008
  0.17370000000000002          3.6346509860141391E-008
  0.17480000000000001         -5.0661747564297435E-009
  0.17590000000000000         -5.6278823333314046E-008
  0.17700000000000005         -1.1539805466358919E-007
  0.17810000000000004         -1.7949016659133450E-007
  0.17920000000000003         -2.4459908376775126E-007
  0.18030000000000002         -3.0584803481087826E-007
  0.18140000000000001         -3.5763302494565126E-007
  0.18250000000000000         -3.9391076646044746E-007
  0.18360000000000004         -4.0857728253014480E-007
  0.18470000000000003         -3.9592623130023508E-007
  0.18580000000000002         -3.5116851391943779E-007
  0.18690000000000001         -2.7098740474244341E-007
  0.18800000000000000         -1.5409678851850387E-007
  0.18910000000000005         -1.7646401215492087E-009
  0.19020000000000004          1.8173984051163121E-007
  0.19130000000000003          3.8881854384919396E-007
  0.19240000000000002          6.0837824405089136E-007
  0.19350000000000001          8.2586396609853042E-007
  0.19460000000000005          1.0235231657721322E-006
  0.19570000000000004          1.1809223308283157E-006
  0.19680000000000003          1.2757256060001936E-006
  0.19790000000000002          1.2847313065111603E-006
  0.19900000000000001          1.1851475749400963E-006
  0.20010000000000000          9.5607398496408582E-007
  0.20120000000000005          5.8014274406759853E-007
  0.20230000000000004          4.5262484205220235E-008
  0.20340000000000003         -6.5359937301403103E-007
  0.20450000000000002         -1.5126619373683342E-006
  0.20560000000000000         -2.5176666557537800E-006
  0.20670000000000005         -3.6423564780255155E-006
  0.20780000000000004         -4.8471343895058395E-006
  0.20890000000000003         -6.0779133384544736E-006
