 -0.12000000000000000          0.0000000000000000
 -0.11889999999999999          0.0000000000000000
 -0.11780000000000000          0.0000000000000000
 -0.11670000000000000          0.0000000000000000
 -0.11559999999999999         -3.6613989924871899E-041
 -0.11449999999999999          1.7634964080341693E-016
 -0.11340000000000000          1.3776783784488473E-015
 -0.11230000000000000          5.2976009108942407E-015
 -0.11119999999999999          1.2662343297517444E-014
 -0.11009999999999999          1.8497036434318410E-014
 -0.10900000000000000          7.6214752605509557E-015
 -0.10790000000000000         -4.0900456070586726E-014
 -0.10679999999999999         -1.3107874396275217E-013
 -0.10569999999999999         -2.1147302645484658E-013
 -0.10460000000000000         -1.4682900887212788E-013
 -0.10349999999999999          2.5276560957977611E-013
 -0.10239999999999999          1.1036173852803883E-012
 -0.10130000000000000          2.2318338659131875E-012
 -0.10020000000000000          2.9702937711221975E-012
  -9.9099999999999994E-002     2.1538795484057833E-012
  -9.7999999999999990E-002    -1.5005203745818668E-012
  -9.6899999999999986E-002    -8.5789418211006092E-012
  -9.5799999999999996E-002    -1.7934666516481921E-011
  -9.4699999999999993E-002    -2.5936343651365324E-011
  -9.3599999999999989E-002    -2.6647311546063209E-011
  -9.2499999999999999E-002    -1.3419379031641882E-011
  -9.1399999999999995E-002     1.8131855296890468E-011
  -9.0299999999999991E-002     6.6533248277162545E-011
  -8.9200000000000002E-002     1.2164797561712734E-010
  -8.8099999999999984E-002     1.6427234893531241E-010
  -8.6999999999999994E-002     1.6930468251147731E-010
  -8.5899999999999990E-002     1.1259161640893204E-010
  -8.4799999999999986E-002    -1.9805375432676814E-011
  -8.3699999999999997E-002    -2.2236226799736945E-010
  -8.2599999999999993E-002    -4.6386618301410337E-010
  -8.1499999999999989E-002    -6.8694627023184169E-010
  -8.0399999999999999E-002    -8.1507139208779709E-010
  -7.9299999999999995E-002    -7.6720298185718729E-010
  -7.8199999999999992E-002    -4.7856282358513467E-010
  -7.7100000000000002E-002     7.5767703954387174E-011
  -7.5999999999999984E-002     8.5932664590739109E-010
  -7.4899999999999994E-002     1.7610026629355266E-009
  -7.3799999999999991E-002     2.5965622707375088E-009
  -7.2699999999999987E-002     3.1302027994532781E-009
  -7.1599999999999997E-002     3.1176669033763063E-009
  -7.0499999999999993E-002     2.3663715878553901E-009
  -6.9399999999999989E-002     8.0073306005575814E-010
  -6.8300000000000000E-002    -1.4851284649656078E-009
  -6.7199999999999996E-002    -4.2067948254101885E-009
  -6.6099999999999992E-002    -6.9155924542181460E-009
  -6.5000000000000002E-002    -9.0740389229592978E-009
  -6.3899999999999985E-002    -1.0167724771730759E-008
  -6.2799999999999995E-002    -9.8262735195828733E-009
  -6.1699999999999991E-002    -7.9189968673131064E-009
  -6.0599999999999994E-002    -4.5953084566247124E-009
  -5.9499999999999990E-002    -2.5585183356886319E-010
  -5.8399999999999994E-002     4.5372179953036394E-009
  -5.7299999999999990E-002     9.1815134490475168E-009
  -5.6199999999999986E-002     1.3147137042651859E-008
  -5.5099999999999996E-002     1.6044768671639206E-008
  -5.3999999999999992E-002     1.7630854717008374E-008
  -5.2899999999999989E-002     1.7756329685381251E-008
  -5.1799999999999985E-002     1.6286978725483916E-008
  -5.0699999999999995E-002     1.3033661891810860E-008
  -4.9599999999999991E-002     7.7257905984016673E-009
  -4.8499999999999988E-002     4.4893264838242353E-011
  -4.7399999999999998E-002    -1.0285102498946099E-008
  -4.6299999999999994E-002    -2.3369303389564299E-008
  -4.5199999999999990E-002    -3.8998174287093763E-008
  -4.4099999999999986E-002    -5.6507163658525573E-008
  -4.2999999999999997E-002    -7.4649559230872129E-008
  -4.1899999999999993E-002    -9.1487209919680628E-008
  -4.0799999999999989E-002    -1.0430509593965040E-007
  -3.9699999999999985E-002    -1.0956108758510051E-007
  -3.8599999999999995E-002    -1.0288402196421893E-007
  -3.7499999999999992E-002    -7.9123503427358520E-008
  -3.6399999999999988E-002    -3.2431016410567133E-008
  -3.5299999999999984E-002     4.3679677176134782E-008
  -3.4199999999999994E-002     1.5637034675770684E-007
  -3.3099999999999991E-002     3.1369560331511954E-007
  -3.1999999999999987E-002     5.2505449259374452E-007
  -3.0899999999999997E-002     8.0187890064580334E-007
  -2.9799999999999993E-002     1.1585016847270659E-006
  -2.8699999999999989E-002     1.6131061117059673E-006
  -2.7599999999999986E-002     2.1886568183584569E-006
  -2.6499999999999996E-002     2.9137579442422322E-006
  -2.5399999999999992E-002     3.8234633468872261E-006
  -2.4299999999999988E-002     4.9601480549848564E-006
  -2.3199999999999985E-002     6.3746064350710124E-006
  -2.2099999999999995E-002     8.1275484136694066E-006
  -2.0999999999999991E-002     1.0291618725804812E-005
  -1.9899999999999987E-002     1.2953985625474177E-005
  -1.8799999999999983E-002     1.6219467786859136E-005
  -1.7699999999999994E-002     2.0214122281141552E-005
  -1.6599999999999990E-002     2.5089217921381302E-005
  -1.5499999999999986E-002     3.1025560790074725E-005
  -1.4399999999999996E-002     3.8238199381735076E-005
  -1.3299999999999992E-002     4.6981588128606115E-005
  -1.2199999999999989E-002     5.7555312109760874E-005
  -1.1099999999999985E-002     7.0310471467622954E-005
  -9.9999999999999950E-003     8.5656805171894281E-005
  -8.8999999999999913E-003     1.0407061799477112E-004
  -7.7999999999999875E-003     1.2610357090438122E-004
  -6.6999999999999837E-003     1.5239239678023917E-004
  -5.5999999999999939E-003     1.8366959111782517E-004
  -4.4999999999999901E-003     2.2077508179293016E-004
  -3.3999999999999864E-003     2.6466879814269464E-004
  -2.2999999999999826E-003     3.1644395540139409E-004
  -1.1999999999999927E-003     3.7734078180133514E-004
  -9.9999999999988987E-005     4.4876037970579966E-004
   1.0000000000000148E-003     5.3227844655213941E-004
   2.1000000000000185E-003     6.2965866970488731E-004
   3.2000000000000084E-003     7.4286570264188250E-004
   4.3000000000000121E-003     8.7407766580877683E-004
   5.4000000000000159E-003     1.0256980468995307E-003
   6.5000000000000058E-003     1.2003666956177082E-003
   7.6000000000000234E-003     1.4009693592355510E-003
   8.7000000000000133E-003     1.6306449639914167E-003
   9.8000000000000032E-003     1.8927896926774859E-003
   1.0900000000000021E-002     2.1910568874260860E-003
   1.2000000000000011E-002     2.5293519115972699E-003
   1.3100000000000001E-002     2.9118212777764379E-003
   1.4200000000000018E-002     3.3428355080400273E-003
   1.5300000000000008E-002     3.8269652698046585E-003
   1.6400000000000026E-002     4.3689503033445560E-003
   1.7500000000000016E-002     4.9736605581919393E-003
   1.8600000000000005E-002     5.6460488560466562E-003
   1.9700000000000023E-002     6.3910943718485892E-003
   2.0800000000000013E-002     7.2137363150931739E-003
   2.1900000000000003E-002     8.1187973939295631E-003
   2.3000000000000020E-002     9.1108969078069427E-003
   2.4100000000000010E-002     1.0194353581330206E-002
   2.5200000000000000E-002     1.1373078485504335E-002
   2.6300000000000018E-002     1.2650458597828243E-002
   2.7400000000000008E-002     1.4029231772275975E-002
   2.8500000000000025E-002     1.5511354176625356E-002
   2.9600000000000015E-002     1.7097861635423470E-002
   3.0700000000000005E-002     1.8788726771773536E-002
   3.1800000000000023E-002     2.0582714304837900E-002
   3.2900000000000013E-002     2.2477237251254122E-002
   3.4000000000000002E-002     2.4468217040813423E-002
   3.5100000000000020E-002     2.6549950687726753E-002
   3.6200000000000010E-002     2.8714988213783259E-002
   3.7300000000000028E-002     3.0954023582315991E-002
   3.8400000000000017E-002     3.3255802537449371E-002
   3.9500000000000007E-002     3.5607050957722965E-002
   4.0600000000000025E-002     3.7992427560980591E-002
   4.1700000000000015E-002     4.0394504924492029E-002
   4.2800000000000005E-002     4.2793782699247232E-002
   4.3900000000000022E-002     4.5168736543618353E-002
   4.5000000000000012E-002     4.7495905704472166E-002
   4.6100000000000002E-002     4.9750021427828826E-002
   4.7200000000000020E-002     5.1904177602541679E-002
   4.8300000000000010E-002     5.3930044308952561E-002
   4.9400000000000027E-002     5.5798124264475682E-002
   5.0500000000000017E-002     5.7478051460395779E-002
   5.1600000000000007E-002     5.8938930468696908E-002
   5.2700000000000025E-002     6.0149713895631757E-002
   5.3800000000000014E-002     6.1079614281686019E-002
   5.4900000000000004E-002     6.1698545496876249E-002
   5.6000000000000022E-002     6.1977587508812500E-002
   5.7100000000000012E-002     6.1889467445753750E-002
   5.8200000000000002E-002     6.1409049196802026E-002
   5.9300000000000019E-002     6.0513823342605973E-002
   6.0400000000000009E-002     5.9184388874630726E-002
   6.1500000000000027E-002     5.7404917816567140E-002
   6.2600000000000017E-002     5.5163593456072697E-002
   6.3700000000000007E-002     5.2453012490828808E-002
   6.4800000000000024E-002     4.9270541151720672E-002
   6.5900000000000014E-002     4.5618615482576244E-002
   6.7000000000000004E-002     4.1504976569493535E-002
   6.8100000000000022E-002     3.6942832639843055E-002
   6.9200000000000012E-002     3.1950941473469704E-002
   7.0300000000000029E-002     2.6553608283603477E-002
   7.1400000000000019E-002     2.0780595932488932E-002
   7.2500000000000009E-002     1.4666945931842200E-002
   7.3600000000000027E-002     8.2527101480086330E-003
   7.4700000000000016E-002     1.5825945896097433E-003
   7.5800000000000006E-002    -5.2944817717636471E-003
   7.6900000000000024E-002    -1.2325908441726855E-002
   7.8000000000000014E-002    -1.9455978498926458E-002
   7.9100000000000004E-002    -2.6626548835239974E-002
   8.0200000000000021E-002    -3.3777755289934229E-002
   8.1300000000000011E-002    -4.0848770988948624E-002
   8.2400000000000029E-002    -4.7778595105220471E-002
   8.3500000000000019E-002    -5.4506858457546312E-002
   8.4600000000000009E-002    -6.0974631783046407E-002
   8.5700000000000026E-002    -6.7125222110849966E-002
   8.6800000000000016E-002    -7.2904942480892923E-002
   8.7900000000000006E-002    -7.8263840423427558E-002
   8.9000000000000024E-002    -8.3156371291532277E-002
   9.0100000000000013E-002    -8.7542003796535664E-002
   9.1200000000000003E-002    -9.1385746869453027E-002
   9.2300000000000021E-002    -9.4658589050998124E-002
   9.3400000000000011E-002    -9.7337843717478612E-002
   9.4500000000000028E-002    -9.9407395344111499E-002
   9.5600000000000018E-002   -0.10085784360554881
   9.6700000000000008E-002   -0.10168654351893061
   9.7800000000000026E-002   -0.10189754128642345
   9.8900000000000016E-002   -0.10150140724211087
  0.10000000000000001        -0.10051496947567154
  0.10110000000000002         -9.8960954204442703E-002
  0.10220000000000001         -9.6867541508987159E-002
  0.10330000000000003         -9.4267847255433246E-002
  0.10440000000000002         -9.1199343580840544E-002
  0.10550000000000001         -8.7703231082415428E-002
  0.10660000000000003         -8.3823775922443708E-002
  0.10770000000000002         -7.9607624700128110E-002
  0.10880000000000001         -7.5103109446240879E-002
  0.10990000000000003         -7.0359554663007959E-002
  0.11100000000000002         -6.5426597980956375E-002
  0.11210000000000001         -6.0353535601954923E-002
  0.11320000000000002         -5.5188703050908026E-002
  0.11430000000000001         -4.9978900737629790E-002
  0.11540000000000003         -4.4768872445849157E-002
  0.11650000000000002         -3.9600843264291689E-002
  0.11760000000000001         -3.4514121855919740E-002
  0.11870000000000003         -2.9544770470819097E-002
  0.11980000000000002         -2.4725344761154427E-002
  0.12090000000000001         -2.0084704143634835E-002
  0.12200000000000003         -1.5647892026261889E-002
  0.12310000000000001         -1.1436083599205437E-002
  0.12420000000000003         -7.4665971721712592E-003
  0.12530000000000002         -3.7529634668226420E-003
  0.12640000000000001         -3.0504614575159190E-004
  0.12750000000000003          2.8707936059208655E-003
  0.12860000000000002          5.7714954281225866E-003
  0.12970000000000001          8.3970674055629333E-003
  0.13080000000000003          1.0750328606332729E-002
  0.13190000000000002          1.2836631792443520E-002
  0.13300000000000001          1.4663571637534146E-002
  0.13410000000000000          1.6240684247156495E-002
  0.13520000000000004          1.7579144290943434E-002
  0.13630000000000003          1.8691466227471691E-002
  0.13740000000000002          1.9591215655464230E-002
  0.13850000000000001          2.0292735737740486E-002
  0.13960000000000000          2.0810892163054821E-002
  0.14070000000000005          2.1160838633564862E-002
  0.14180000000000004          2.1357803756531370E-002
  0.14290000000000003          2.1416899646275665E-002
  0.14400000000000002          2.1352952418771543E-002
  0.14510000000000001          2.1180354812405908E-002
  0.14620000000000000          2.0912941092716495E-002
  0.14730000000000004          2.0563884030305218E-002
  0.14840000000000003          2.0145613131218300E-002
  0.14950000000000002          1.9669752676216009E-002
  0.15060000000000001          1.9147077755562493E-002
  0.15170000000000000          1.8587486513002918E-002
  0.15280000000000005          1.7999987165806801E-002
  0.15390000000000004          1.7392698790444520E-002
  0.15500000000000003          1.6772865049275849E-002
  0.15610000000000002          1.6146879798953996E-002
  0.15720000000000001          1.5520322919581612E-002
  0.15830000000000000          1.4898004016080813E-002
  0.15940000000000004          1.4284011243689177E-002
  0.16050000000000003          1.3681762670789022E-002
  0.16160000000000002          1.3094058333366498E-002
  0.16270000000000001          1.2523132192436344E-002
  0.16380000000000000          1.1970704147723612E-002
  0.16490000000000005          1.1438032695557581E-002
  0.16600000000000004          1.0925968586605023E-002
  0.16710000000000003          1.0435009094721549E-002
  0.16820000000000002          9.9653516480329701E-003
  0.16930000000000001          9.5169450406712430E-003
  0.17040000000000000          9.0895365111436782E-003
  0.17150000000000004          8.6827136123971086E-003
  0.17260000000000003          8.2959407012842094E-003
  0.17370000000000002          7.9285906175467959E-003
  0.17480000000000001          7.5799723848392333E-003
  0.17590000000000000          7.2493554953353932E-003
  0.17700000000000005          6.9359907687470629E-003
  0.17810000000000004          6.6391272955960562E-003
  0.17920000000000003          6.3580249149040253E-003
  0.18030000000000002          6.0919621287871999E-003
  0.18140000000000001          5.8402401160623394E-003
  0.18250000000000000          5.6021841784368448E-003
  0.18360000000000004          5.3771441604772161E-003
  0.18470000000000003          5.1644949784166727E-003
  0.18580000000000002          4.9636375405229475E-003
  0.18690000000000001          4.7739994540072443E-003
  0.18800000000000000          4.5950344392452942E-003
  0.18910000000000005          4.4262195668344738E-003
  0.19020000000000004          4.2670502208750705E-003
  0.19130000000000003          4.1170336952191938E-003
  0.19240000000000002          3.9756830533273042E-003
  0.19350000000000001          3.8425129610168904E-003
  0.19460000000000005          3.7170385807965998E-003
  0.19570000000000004          3.5987775795421647E-003
  0.19680000000000003          3.4872543225425768E-003
  0.19790000000000002          3.3820048325051556E-003
  0.19900000000000001          3.2825812488717580E-003
  0.20010000000000000          3.1885551658678781E-003
  0.20120000000000005          3.0995199616862994E-003
  0.20230000000000004          3.0150926498192245E-003
  0.20340000000000003          2.9349156895434889E-003
  0.20450000000000002          2.8586586999228957E-003
  0.20560000000000000          2.7860194850648059E-003
  0.20670000000000005          2.7167235873871484E-003
  0.20780000000000004          2.6505219356447746E-003
  0.20890000000000003          2.5871869199340950E-003
