 -0.12000000000000000          0.0000000000000000
 -0.11889999999999999          0.0000000000000000
 -0.11780000000000000          0.0000000000000000
 -0.11670000000000000          0.0000000000000000
 -0.11559999999999999          0.0000000000000000
 -0.11449999999999999          0.0000000000000000
 -0.11340000000000000          0.0000000000000000
 -0.11230000000000000         -3.9343088709720729E-073
 -0.11119999999999999         -3.5003830708394324E-048
 -0.11009999999999999         -1.9753409551976641E-023
 -0.10900000000000000         -2.0252366574045386E-022
 -0.10790000000000000         -9.0943679464512491E-022
 -0.10679999999999999         -1.9548772871284281E-021
 -0.10569999999999999          3.5723335256862504E-022
 -0.10460000000000000          1.6089560027192067E-020
 -0.10349999999999999          5.1468791398691521E-020
 -0.10239999999999999          6.7442476900231330E-020
 -0.10130000000000000         -7.4571414566514568E-020
 -0.10020000000000000         -5.5985920114832846E-019
  -9.9099999999999994E-002    -1.2638597238353524E-018
  -9.7999999999999990E-002    -1.1038678400804619E-018
  -9.6899999999999986E-002     2.1684104489636097E-018
  -9.5799999999999996E-002     1.0144817192818778E-017
  -9.4699999999999993E-002     1.8792691649462302E-017
  -9.3599999999999989E-002     1.2887750491397444E-017
  -9.2499999999999999E-002    -3.1153217632341270E-017
  -9.1399999999999995E-002    -1.2181435908650329E-016
  -9.0299999999999991E-002    -2.0737630549234777E-016
  -8.9200000000000002E-002    -1.4085105457301614E-016
  -8.8099999999999984E-002     2.7348229801245557E-016
  -8.6999999999999994E-002     1.0804121871540748E-015
  -8.5899999999999990E-002     1.8505099667270612E-015
  -8.4799999999999986E-002     1.4765325182862475E-015
  -8.3699999999999997E-002    -1.4605661024265132E-015
  -8.2599999999999993E-002    -7.3787111065298681E-015
  -8.1499999999999989E-002    -1.3692249360027452E-014
  -8.0399999999999999E-002    -1.3543817811810285E-014
  -7.9299999999999995E-002     2.2891993888004493E-015
  -7.8199999999999992E-002     3.8328630174949943E-014
  -7.7100000000000002E-002     8.3347903379270955E-014
  -7.5999999999999984E-002     1.0213355810107629E-013
  -7.4899999999999994E-002     4.1836400117534273E-014
  -7.3799999999999991E-002    -1.3663219215082756E-013
  -7.2699999999999987E-002    -4.0467974373680182E-013
  -7.1599999999999997E-002    -6.1623488739768515E-013
  -7.0499999999999993E-002    -5.1255649642708794E-013
  -6.9399999999999989E-002     1.6635043808993810E-013
  -6.8300000000000000E-002     1.4549517686330650E-012
  -6.7199999999999996E-002     2.9027437433897892E-012
  -6.6099999999999992E-002     3.4697836728761268E-012
  -6.5000000000000002E-002     1.8073482542727598E-012
  -6.3899999999999985E-002    -2.9538950388370083E-012
  -6.2799999999999995E-002    -1.0082418850572764E-011
  -6.1699999999999991E-002    -1.6370939743075731E-011
  -6.0599999999999994E-002    -1.6376924146888737E-011
  -5.9499999999999990E-002    -4.5121200206427275E-012
  -5.8399999999999994E-002     2.1062624827026924E-011
  -5.7299999999999990E-002     5.4106116856007199E-011
  -5.6199999999999986E-002     7.8218463409979896E-011
  -5.5099999999999996E-002     7.0096304117515205E-011
  -5.3999999999999992E-002     9.7698503044286876E-012
  -5.2899999999999989E-002    -1.0402108320665346E-010
  -5.1799999999999985E-002    -2.3971578973423880E-010
  -5.0699999999999995E-002    -3.2983003121270852E-010
  -4.9599999999999991E-002    -2.8786338237245500E-010
  -4.8499999999999988E-002    -4.7463905682528614E-011
  -4.7399999999999998E-002     3.8594081314714022E-010
  -4.6299999999999994E-002     8.9381491191279736E-010
  -4.5199999999999990E-002     1.2429886346919063E-009
  -4.4099999999999986E-002     1.1467810639356867E-009
  -4.2999999999999997E-002     3.8869857173556338E-010
  -4.1899999999999993E-002    -1.0254986858154002E-009
  -4.0799999999999989E-002    -2.7532869035545051E-009
  -3.9699999999999985E-002    -4.1153838942466155E-009
  -3.8599999999999995E-002    -4.2628836044338882E-009
  -3.7499999999999992E-002    -2.5027256263503297E-009
  -3.6399999999999988E-002     1.3086048285926124E-009
  -3.5299999999999984E-002     6.4607626231582153E-009
  -3.4199999999999994E-002     1.1347701635913750E-008
  -3.3099999999999991E-002     1.3800369429900261E-008
  -3.1999999999999987E-002     1.1774512452348030E-008
  -3.0899999999999997E-002     4.2143392883452381E-009
  -2.9799999999999993E-002    -8.2088218403154996E-009
  -2.8699999999999989E-002    -2.2803438652395010E-008
  -2.7599999999999986E-002    -3.5220084325724535E-008
  -2.6499999999999996E-002    -4.0465502984728119E-008
  -2.5399999999999992E-002    -3.4328641085921656E-008
  -2.4299999999999988E-002    -1.4819882269854723E-008
  -2.3199999999999985E-002     1.6786229083902080E-008
  -2.2099999999999995E-002     5.5576772899207591E-008
  -2.0999999999999991E-002     9.3357927747194320E-008
  -1.9899999999999987E-002     1.1964612617726501E-007
  -1.8799999999999983E-002     1.2317113929380228E-007
  -1.7699999999999994E-002     9.3876251600527153E-008
  -1.6599999999999990E-002     2.5513263517777969E-008
  -1.5499999999999986E-002    -8.1142405841245846E-008
  -1.4399999999999996E-002    -2.1482800644033330E-007
  -1.3299999999999992E-002    -3.5113215775704389E-007
  -1.2199999999999989E-002    -4.5236278488697266E-007
  -1.1099999999999985E-002    -4.7187662405376801E-007
  -9.9999999999999950E-003    -3.6409393525827936E-007
  -8.8999999999999913E-003    -9.9649670378369872E-008
  -7.7999999999999875E-003     3.1734850769644495E-007
  -6.6999999999999837E-003     8.3530303018140349E-007
  -5.5999999999999939E-003     1.3507236368381531E-006
  -4.4999999999999901E-003     1.7186314730597868E-006
  -3.3999999999999864E-003     1.7793780409326314E-006
  -2.2999999999999826E-003     1.3983081670215105E-006
  -1.1999999999999927E-003     5.0960910985806245E-007
  -9.9999999999988987E-005    -8.4732093519120397E-007
   1.0000000000000148E-003    -2.5101327171318698E-006
   2.1000000000000185E-003    -4.2013401602228339E-006
   3.2000000000000084E-003    -5.5620459479468255E-006
   4.3000000000000121E-003    -6.2054670044290386E-006
   5.4000000000000159E-003    -5.7802851285402620E-006
   6.5000000000000058E-003    -4.0339409695873279E-006
   7.6000000000000234E-003    -8.6943585947129500E-007
   8.7000000000000133E-003     3.6064596843494049E-006
   9.8000000000000032E-003     9.0437054231339974E-006
   1.0900000000000021E-002     1.4820973742145745E-005
   1.2000000000000011E-002     2.0039011295150829E-005
   1.3100000000000001E-002     2.3553635084760036E-005
   1.4200000000000018E-002     2.4070876027444624E-005
   1.5300000000000008E-002     2.0321718755100617E-005
   1.6400000000000026E-002     1.1317080055336851E-005
   1.7500000000000016E-002    -3.3425791047356845E-006
   1.8600000000000005E-002    -2.3157173581786652E-005
   1.9700000000000023E-002    -4.6491578940319166E-005
   2.0800000000000013E-002    -7.0494285131810110E-005
   2.1900000000000003E-002    -9.1232506364761438E-005
   2.3000000000000020E-002    -1.0406996990653631E-004
   2.4100000000000010E-002    -1.0426681154620123E-004
   2.5200000000000000E-002    -8.7735552597886530E-005
   2.6300000000000018E-002    -5.1854118710047829E-005
   2.7400000000000008E-002     3.7773833208420834E-006
   2.8500000000000025E-002     7.6745061865932785E-005
   2.9600000000000015E-002     1.6148633271883856E-004
   3.0700000000000005E-002     2.4928026866548016E-004
   3.1800000000000023E-002     3.2860874880560924E-004
   3.2900000000000013E-002     3.8591181429461970E-004
   3.4000000000000002E-002     4.0673592405590474E-004
   3.5100000000000020E-002     3.7724142774645946E-004
   3.6200000000000010E-002     2.8599279393159066E-004
   3.7300000000000028E-002     1.2590465245754441E-004
   3.8400000000000017E-002    -1.0383275434915339E-004
   3.9500000000000007E-002    -3.9606118693504835E-004
   4.0600000000000025E-002    -7.3441836053030735E-004
   4.1700000000000015E-002    -1.0927596438740253E-003
   4.2800000000000005E-002    -1.4353835520636198E-003
   4.3900000000000022E-002    -1.7181233265661261E-003
   4.5000000000000012E-002    -1.8902634650610529E-003
   4.6100000000000002E-002    -1.8971269107168874E-003
   4.7200000000000020E-002    -1.6830660809817937E-003
   4.8300000000000010E-002    -1.1944906770269051E-003
   4.9400000000000027E-002    -3.8249159971698939E-004
   5.0500000000000017E-002     7.9541014403708822E-004
   5.1600000000000007E-002     2.3748329879722577E-003
   5.2700000000000025E-002     4.3857738748300928E-003
   5.3800000000000014E-002     6.8557193971540628E-003
   5.4900000000000004E-002     9.8146532456120338E-003
   5.6000000000000022E-002     1.3301815427361693E-002
   5.7100000000000012E-002     1.7373949537396464E-002
   5.8200000000000002E-002     2.2114729874340773E-002
   5.9300000000000019E-002     2.7645088585353122E-002
   6.0400000000000009E-002     3.4134234260094452E-002
   6.1500000000000027E-002     4.1811221324409481E-002
   6.2600000000000017E-002     5.0976954002828360E-002
   6.3700000000000007E-002     6.2016477748021548E-002
   6.4800000000000024E-002     7.5411352911740989E-002
   6.5900000000000014E-002     9.1751880157216997E-002
   6.7000000000000004E-002    0.11174902028486634
   6.8100000000000022E-002    0.13624605844934987
   6.9200000000000012E-002    0.16623038196956866
   7.0300000000000029E-002    0.20284608672943572
   7.1400000000000019E-002    0.24740837527833295
   7.2500000000000009E-002    0.30142074399313429
   7.3600000000000027E-002    0.36659572011140201
   7.4700000000000016E-002    0.44487943642509759
   7.5800000000000006E-002    0.53847974330915971
   7.6900000000000024E-002    0.64989702010175665
   7.8000000000000014E-002    0.78195650428689822
   7.9100000000000004E-002    0.93784086744288742
   8.0200000000000021E-002     1.1211218785993426
   8.1300000000000011E-002     1.3357901614821246
   8.2400000000000029E-002     1.5862820927833372
   8.3500000000000019E-002     1.8775026722954078
   8.4600000000000009E-002     2.2148427018369596
   8.5700000000000026E-002     2.6041879472033775
   8.6800000000000016E-002     3.0519173273498428
   8.7900000000000006E-002     3.5648867936191944
   8.9000000000000024E-002     4.1503955724342712
   9.0100000000000013E-002     4.8161318587955035
   9.1200000000000003E-002     5.5700957373640438
   9.2300000000000021E-002     6.4204978538027460
   9.3400000000000011E-002     7.3756329334568802
   9.4500000000000028E-002     8.4437274941575691
   9.5600000000000018E-002     9.6327609997253436
   9.6700000000000008E-002     10.950259359840079
   9.7800000000000026E-002     12.403059306577225
   9.8900000000000016E-002     13.997042008883009
  0.10000000000000001          15.736834534619994
  0.10110000000000002          17.625478568296803
  0.10220000000000001          19.664067169410007
  0.10330000000000003          21.851352229377625
  0.10440000000000002          24.183327472888635
  0.10550000000000001          26.652794099354551
  0.10660000000000003          29.248918196614252
  0.10770000000000002          31.956790654015922
  0.10880000000000001          34.757001353781163
  0.10990000000000003          37.625240013381493
  0.11100000000000002          40.531936465255484
  0.11210000000000001          43.441953787396649
  0.11320000000000002          46.314348893813005
  0.11430000000000001          49.102217083138960
  0.11540000000000003          51.752639376085924
  0.11650000000000002          54.206753598508783
  0.11760000000000001          56.399971186211829
  0.11870000000000003          58.262360744769985
  0.11980000000000002          59.719216029063368
  0.12090000000000001          60.691820397585026
  0.12200000000000003          61.098412813467874
  0.12310000000000001          60.855353416728512
  0.12420000000000003          59.878480870565774
  0.12530000000000002          58.084649844719536
  0.12640000000000001          55.393435004009682
  0.12750000000000003          51.728986661313634
  0.12860000000000002          47.022021203051196
  0.12970000000000001          41.211924934611254
  0.13080000000000003          34.248942294296342
  0.13190000000000002          26.096408808179294
  0.13300000000000001          16.732977279846992
  0.13410000000000000          6.1547748753839171
  0.13520000000000004         -5.6225786699607037
  0.13630000000000003         -18.562163972036355
  0.13740000000000002         -32.604235583733768
  0.13850000000000001         -47.665039057627325
  0.13960000000000000         -63.636025664559291
  0.14070000000000005         -80.383510683413633
  0.14180000000000004         -97.748814869986731
  0.14290000000000003         -115.54892467928337
  0.14400000000000002         -133.57770396978293
  0.14510000000000001         -151.60768613328943
  0.14620000000000000         -169.39246842424140
  0.14730000000000004         -186.66971778323185
  0.14840000000000003         -203.16477895138905
  0.14950000000000002         -218.59485200727372
  0.15060000000000001         -232.67367995033749
  0.15170000000000000         -245.11666090337962
  0.15280000000000005         -255.64627740148686
  0.15390000000000004         -263.99771988070921
  0.15500000000000003         -269.92457423312180
  0.15610000000000002         -273.20444363561876
  0.15720000000000001         -273.64438045395764
  0.15830000000000000         -271.08601134716827
  0.15940000000000004         -265.41024412980528
  0.16050000000000003         -256.54144606960296
  0.16160000000000002         -244.45097998011553
  0.16270000000000001         -229.15997933285945
  0.16380000000000000         -210.74124154043261
  0.16490000000000005         -189.32012524722884
  0.16600000000000004         -165.07435739501145
  0.16710000000000003         -138.23269034429740
  0.16820000000000002         -109.07239552826957
  0.16930000000000001         -77.915631177359074
  0.17040000000000000         -45.124768669997778
  0.17150000000000004         -11.096796858460580
  0.17260000000000003          23.743058302885295
  0.17370000000000002          58.948359543008486
  0.17480000000000001          94.058998143740993
  0.17590000000000000          128.60912507642868
  0.17700000000000005          162.13535051531295
  0.17810000000000004          194.18507484577435
  0.17920000000000003          224.32478724141433
  0.18030000000000002          252.14813503457495
  0.18140000000000001          277.28353986836584
  0.18250000000000000          299.40112669410905
  0.18360000000000004          318.21874684577591
  0.18470000000000003          333.50691755885208
  0.18580000000000002          345.09256071377138
  0.18690000000000001          352.86149094296400
  0.18800000000000000          356.75966344011198
  0.18910000000000005          356.79323344350234
  0.19020000000000004          353.02749729344129
  0.19130000000000003          345.58478181288490
  0.19240000000000002          334.64133390639665
  0.19350000000000001          320.42324869077430
  0.19460000000000005          303.20147447961074
  0.19570000000000004          283.28595416069243
  0.19680000000000003          261.01900520229509
  0.19790000000000002          236.76809715948443
  0.19900000000000001          210.91824261334750
  0.20010000000000000          183.86425920141724
  0.20120000000000005          156.00317339461105
  0.20230000000000004          127.72701421231056
  0.20340000000000003          99.416189757719707
  0.20450000000000002          71.433563382942850
  0.20560000000000000          44.119268213293829
  0.20670000000000005          17.786238875626896
  0.20780000000000004         -7.2835870726431411
  0.20890000000000003         -30.842433297647599
