 -0.12000000000000000          0.0000000000000000
 -0.11889999999999999          0.0000000000000000
 -0.11780000000000000          0.0000000000000000
 -0.11670000000000000          0.0000000000000000
 -0.11559999999999999          0.0000000000000000
 -0.11449999999999999          0.0000000000000000
 -0.11340000000000000          0.0000000000000000
 -0.11230000000000000          0.0000000000000000
 -0.11119999999999999          0.0000000000000000
 -0.11009999999999999          0.0000000000000000
 -0.10900000000000000          1.0678311431000656E-179
 -0.10790000000000000          1.4624504821048486E-137
 -0.10679999999999999         -3.1368504579097862E-112
 -0.10569999999999999         -5.0312978072315546E-087
 -0.10460000000000000         -9.8007762611103839E-063
 -0.10349999999999999         -4.4119149562698401E-039
 -0.10239999999999999         -6.8548741764832944E-038
 -0.10130000000000000         -4.7583638658048589E-037
 -0.10020000000000000         -1.7630019385682446E-036
  -9.9099999999999994E-002    -2.3282475524048954E-036
  -9.7999999999999990E-002     1.0972131970783634E-035
  -9.6899999999999986E-002     7.2233927504970262E-035
  -9.5799999999999996E-002     1.8552059224284545E-034
  -9.4699999999999993E-002     8.8541812383498050E-035
  -9.3599999999999989E-002    -1.1075054529808535E-033
  -9.2499999999999999E-002    -4.4309997774266942E-033
  -9.1399999999999995E-002    -7.4308987969176308E-033
  -9.0299999999999991E-002     3.2780431726801877E-033
  -8.9200000000000002E-002     5.3121732826974113E-032
  -8.8099999999999984E-002     1.4430916374529585E-031
  -8.6999999999999994E-002     1.5558627049245076E-031
  -8.5899999999999990E-002    -2.5898049763464938E-031
  -8.4799999999999986E-002    -1.4859122378472708E-030
  -8.3699999999999997E-002    -3.0385187302601441E-030
  -8.2599999999999993E-002    -1.9773687420980846E-030
  -8.1499999999999989E-002     7.4315283906814719E-030
  -8.0399999999999999E-002     2.8424975870166594E-029
  -7.9299999999999995E-002     4.7212138513304352E-029
  -7.8199999999999992E-002     1.6341518092331724E-029
  -7.7100000000000002E-002    -1.3432017329327730E-028
  -7.5999999999999984E-002    -4.1264041175034036E-028
  -7.4899999999999994E-002    -5.9467087292185248E-028
  -7.3799999999999991E-002    -9.6717945873223224E-029
  -7.2699999999999987E-002     1.7806856665184682E-027
  -7.1599999999999997E-002     4.8598194921402584E-027
  -7.0499999999999993E-002     6.4792621744938696E-027
  -6.9399999999999989E-002     7.2333124739050183E-028
  -6.8300000000000000E-002    -1.8563432992348187E-026
  -6.7199999999999996E-002    -4.8397667208390076E-026
  -6.6099999999999992E-002    -6.3422170948275463E-026
  -6.5000000000000002E-002    -1.1801802330285441E-026
  -6.3899999999999985E-002     1.5707505556394340E-025
  -6.2799999999999995E-002     4.1694781037516724E-025
  -6.1699999999999991E-002     5.6542071425640992E-025
  -6.0599999999999994E-002     1.9884956807040832E-025
  -5.9499999999999990E-002    -1.0818211501505825E-024
  -5.8399999999999994E-002    -3.1338261599306161E-024
  -5.7299999999999990E-002    -4.5778265783294753E-024
  -5.6199999999999986E-002    -2.5870305501791542E-024
  -5.5099999999999996E-002     5.8404072109673562E-024
  -5.3999999999999992E-002     2.0474825747750694E-023
  -5.2899999999999989E-002     3.3292785228123392E-023
  -5.1799999999999985E-002     2.6487836375633590E-023
  -5.0699999999999995E-002    -2.1023046266559449E-023
  -4.9599999999999991E-002    -1.1428143283704793E-022
  -4.8499999999999988E-002    -2.1440801923678215E-022
  -4.7399999999999998E-002    -2.2141439707372028E-022
  -4.6299999999999994E-002    -2.3803537339499977E-025
  -4.5199999999999990E-002     5.2220034235788527E-022
  -4.4099999999999986E-002     1.2007950241324739E-021
  -4.2999999999999997E-002     1.5442094600725670E-021
  -4.1899999999999993E-002     7.7881924239972093E-022
  -4.0799999999999989E-002    -1.7291394006045942E-021
  -3.9699999999999985E-002    -5.6853204671702786E-021
  -3.8599999999999995E-002    -9.0499829193576297E-021
  -3.7499999999999992E-002    -7.9357678463942447E-021
  -3.6399999999999988E-002     1.8823864052794337E-021
  -3.5299999999999984E-002     2.1461329290669466E-020
  -3.4199999999999994E-002     4.4211144627309920E-020
  -3.3099999999999991E-002     5.3420552239537525E-020
  -3.1999999999999987E-002     2.6079243766056714E-020
  -3.0899999999999997E-002    -5.3819604572433654E-020
  -2.9799999999999993E-002    -1.7427231498218105E-019
  -2.8699999999999989E-002    -2.7662903849756772E-019
  -2.7599999999999986E-002    -2.5724371762093585E-019
  -2.6499999999999996E-002    -7.7621188558920952E-021
  -2.5399999999999992E-002     5.0174598634024478E-019
  -2.4299999999999988E-002     1.1231453572090683E-018
  -2.3199999999999985E-002     1.4776509246633401E-018
  -2.2099999999999995E-002     1.0343666659748849E-018
  -2.0999999999999991E-002    -6.2264638627241245E-019
  -1.9899999999999987E-002    -3.3749658972789793E-018
  -1.8799999999999983E-002    -6.1801298898875646E-018
  -1.7699999999999994E-002    -7.0260374605281386E-018
  -1.6599999999999990E-002    -3.5537910513813134E-018
  -1.5499999999999986E-002     5.5441689904525519E-018
  -1.4399999999999996E-002     1.8711647544713911E-017
  -1.3299999999999992E-002     3.0242978463056418E-017
  -1.2199999999999989E-002     3.0835719578692686E-017
  -1.1099999999999985E-002     1.1040926323511964E-017
  -9.9999999999999950E-003    -3.2493423880523741E-017
  -8.8999999999999913E-003    -9.0041069583937894E-017
  -7.7999999999999875E-003    -1.3513284135904781E-016
  -6.6999999999999837E-003    -1.2902897679740708E-016
  -5.5999999999999939E-003    -3.6329739583065047E-017
  -4.4999999999999901E-003     1.5026510329738767E-016
  -3.3999999999999864E-003     3.8515429035332860E-016
  -2.2999999999999826E-003     5.6028180633129988E-016
  -1.1999999999999927E-003     5.2695762683930909E-016
  -9.9999999999988987E-005     1.5676971839781961E-016
   1.0000000000000148E-003    -5.6902516403553193E-016
   2.1000000000000185E-003    -1.4756634319439152E-015
   3.2000000000000084E-003    -2.1684652616128521E-015
   4.3000000000000121E-003    -2.1144386337544978E-015
   5.4000000000000159E-003    -8.5181245525414592E-016
   6.5000000000000058E-003     1.7119395104665758E-015
   7.6000000000000234E-003     5.0240374414474879E-015
   8.7000000000000133E-003     7.7930433838018145E-015
   9.8000000000000032E-003     8.2306717060945159E-015
   1.0900000000000021E-002     4.6885861095237669E-015
   1.2000000000000011E-002    -3.4212316605345478E-015
   1.3100000000000001E-002    -1.4734941642879693E-014
   1.4200000000000018E-002    -2.5530702006549151E-014
   1.5300000000000008E-002    -3.0254399374277657E-014
   1.6400000000000026E-002    -2.3194298632978102E-014
   1.7500000000000016E-002    -1.0847120755604753E-015
   1.8600000000000005E-002     3.4112158224932784E-014
   1.9700000000000023E-002     7.3420427088646619E-014
   2.0800000000000013E-002     1.0131955560879596E-013
   2.1900000000000003E-002     9.9302407479986753E-014
   2.3000000000000020E-002     5.2406049934122490E-014
   2.4100000000000010E-002    -4.2684918152284990E-014
   2.5200000000000000E-002    -1.7059097675949916E-013
   2.6300000000000018E-002    -2.9455226318655646E-013
   2.7400000000000008E-002    -3.6108749933872176E-013
   2.8500000000000025E-002    -3.1341652613192422E-013
   2.9600000000000015E-002    -1.1237196175920276E-013
   3.0700000000000005E-002     2.3978234976771675E-013
   3.1800000000000023E-002     6.8024196651331863E-013
   3.2900000000000013E-002     1.0805124517475996E-012
   3.4000000000000002E-002     1.2635800258440146E-012
   3.5100000000000020E-002     1.0475378238728402E-012
   3.6200000000000010E-002     3.1215005948727313E-013
   3.7300000000000028E-002    -9.2522690206758289E-013
   3.8400000000000017E-002    -2.4480191159215274E-012
   3.9500000000000007E-002    -3.8231339629605695E-012
   4.0600000000000025E-002    -4.4563565801599973E-012
   4.1700000000000015E-002    -3.7355411245807094E-012
   4.2800000000000005E-002    -1.2508849924002190E-012
   4.3900000000000022E-002     2.9530928020157247E-012
   4.5000000000000012E-002     8.1735346257899382E-012
   4.6100000000000002E-002     1.2992932615779250E-011
   4.7200000000000020E-002     1.5461248090138667E-011
   4.8300000000000010E-002     1.3558902319147027E-011
   4.9400000000000027E-002     5.8965679051933434E-012
   5.0500000000000017E-002    -7.5001765684703228E-012
   5.1600000000000007E-002    -2.4569910358148385E-011
   5.2700000000000025E-002    -4.1050639107874786E-011
   5.3800000000000014E-002    -5.1017563484020494E-011
   5.4900000000000004E-002    -4.8216398142755829E-011
   5.6000000000000022E-002    -2.8042140253836400E-011
   5.7100000000000012E-002     1.0263838130535444E-011
   5.8200000000000002E-002     6.1850246299968918E-011
   5.9300000000000019E-002     1.1565658508193489E-010
   6.0400000000000009E-002     1.5557195295495350E-010
   6.1500000000000027E-002     1.6357752323632017E-010
   6.2600000000000017E-002     1.2455466646273765E-010
   6.3700000000000007E-002     3.1846088095970130E-011
   6.4800000000000024E-002    -1.0782247210051103E-010
   6.5900000000000014E-002    -2.7165413384174428E-010
   6.7000000000000004E-002    -4.2173123727085689E-010
   6.8100000000000022E-002    -5.1040347555132124E-010
   6.9200000000000012E-002    -4.8996800883115837E-010
   7.0300000000000029E-002    -3.2537832891046155E-010
   7.1400000000000019E-002    -7.6539309076373990E-012
   7.2500000000000009E-002     4.3510842821901200E-010
   7.3600000000000027E-002     9.3248333462411004E-010
   7.4700000000000016E-002     1.3751824847654134E-009
   7.5800000000000006E-002     1.6290519892621450E-009
   7.6900000000000024E-002     1.5595717312403398E-009
   7.8000000000000014E-002     1.0644570294880030E-009
   7.9100000000000004E-002     1.0939853977840293E-010
   8.0200000000000021E-002    -1.2402930517455318E-009
   8.1300000000000011E-002    -2.8007452208411046E-009
   8.2400000000000029E-002    -4.2717639089464490E-009
   8.3500000000000019E-002    -5.2666452130337752E-009
   8.4600000000000009E-002    -5.3717608520576415E-009
   8.5700000000000026E-002    -4.2321624355929042E-009
   8.6800000000000016E-002    -1.6525550577931279E-009
   8.7900000000000006E-002     2.3035843290630191E-009
   8.9000000000000024E-002     7.2387504142128350E-009
   9.0100000000000013E-002     1.2393599529450700E-008
   9.1200000000000003E-002     1.6687473899922731E-008
   9.2300000000000021E-002     1.8840656908600258E-008
   9.3400000000000011E-002     1.7579621064329926E-008
   9.4500000000000028E-002     1.1910619011901606E-008
   9.5600000000000018E-002     1.4288982660744856E-009
   9.6700000000000008E-002    -1.3386988217015643E-008
   9.7800000000000026E-002    -3.0960593067909822E-008
   9.8900000000000016E-002    -4.8554297661828232E-008
  0.10000000000000001         -6.2423870128402461E-008
  0.10110000000000002         -6.8236689576359467E-008
  0.10220000000000001         -6.1761229635719737E-008
  0.10330000000000003         -3.9781066131004510E-008
  0.10440000000000002         -1.1223331831245754E-009
  0.10550000000000001          5.2379746742931739E-008
  0.10660000000000003          1.1519690130885532E-007
  0.10770000000000002          1.7794298078095080E-007
  0.10880000000000001          2.2793361307499382E-007
  0.10990000000000003          2.5059129014789528E-007
  0.11100000000000002          2.3168242362288100E-007
  0.11210000000000001          1.6020344244839487E-007
  0.11320000000000002          3.1554206283428135E-008
  0.11430000000000001         -1.4951826960018370E-007
  0.11540000000000003         -3.6682007809716528E-007
  0.11650000000000002         -5.9207845437908366E-007
  0.11760000000000001         -7.8630347047676328E-007
  0.11870000000000003         -9.0345881010160286E-007
  0.11980000000000002         -8.9644522038507995E-007
  0.12090000000000001         -7.2501489137629805E-007
  0.12200000000000003         -3.6481919008512139E-007
  0.12310000000000001          1.8359857086773571E-007
  0.12420000000000003          8.8735536797848849E-007
  0.12530000000000002          1.6769620277251722E-006
  0.12640000000000001          2.4468046143961472E-006
  0.12750000000000003          3.0616096312793578E-006
  0.12860000000000002          3.3695208823725198E-006
  0.12970000000000001          3.2215516152556228E-006
  0.13080000000000003          2.4961226850986532E-006
  0.13190000000000002          1.1262706426166592E-006
  0.13300000000000001         -8.7393579304697617E-007
  0.13410000000000000         -3.3880156264443409E-006
  0.13520000000000004         -6.1853139951252202E-006
  0.13630000000000003         -8.9231744403427714E-006
  0.13740000000000002         -1.1166385841382532E-005
  0.13850000000000001         -1.2425541411083082E-005
  0.13960000000000000         -1.2213597248152528E-005
  0.14070000000000005         -1.0117117794162016E-005
  0.14180000000000004         -5.8757509673046204E-006
  0.14290000000000003          5.3921995117381552E-007
  0.14400000000000002          8.8584074468074747E-006
  0.14510000000000001          1.8471982331664210E-005
  0.14620000000000000          2.8422935225265418E-005
  0.14730000000000004          3.7445147749040655E-005
  0.14840000000000003          4.4051545232084378E-005
  0.14950000000000002          4.6672204719037657E-005
  0.15060000000000001          4.3835886024037474E-005
  0.15170000000000000          3.4381682429540667E-005
  0.15280000000000005          1.7681122539809645E-005
  0.15390000000000004         -6.1540859721055712E-006
  0.15500000000000003         -3.6106617312109290E-005
  0.15610000000000002         -7.0158815233655215E-005
  0.15720000000000001         -1.0529447704354304E-004
  0.15830000000000000         -1.3761691139510974E-004
  0.15940000000000004         -1.6259380993331727E-004
  0.16050000000000003         -1.7542743287115569E-004
  0.16160000000000002         -1.7153458006276026E-004
  0.16270000000000001         -1.4710597913792934E-004
  0.16380000000000000         -9.9700554680007042E-005
  0.16490000000000005         -2.8818223117090746E-005
  0.16600000000000004          6.3612918409545178E-005
  0.16710000000000003          1.7290137600822270E-004
  0.16820000000000002          2.9147099985459983E-004
  0.16930000000000001          4.0900420797912961E-004
  0.17040000000000000          5.1288198024485759E-004
  0.17150000000000004          5.8892897744008087E-004
  0.17260000000000003          6.2244434031594382E-004
  0.17370000000000002          5.9946947604634399E-004
  0.17480000000000001          5.0821625095633365E-004
  0.17590000000000000          3.4055541881832126E-004
  0.17700000000000005          9.3448628016316350E-005
  0.17810000000000004         -2.2979963439245465E-004
  0.17920000000000003         -6.1858955420211813E-004
  0.18030000000000002         -1.0544760152568244E-003
  0.18140000000000001         -1.5110959714678754E-003
  0.18250000000000000         -1.9546091950321644E-003
  0.18360000000000004         -2.3446414391378560E-003
  0.18470000000000003         -2.6356671897927574E-003
  0.18580000000000002         -2.7787164201449914E-003
  0.18690000000000001         -2.7232403984302571E-003
  0.18800000000000000         -2.4189298835382896E-003
  0.18910000000000005         -1.8172487976950513E-003
  0.19020000000000004         -8.7243076361571742E-004
  0.19130000000000003          4.5831325681904711E-004
  0.19240000000000002          2.2156098985288298E-003
  0.19350000000000001          4.4399601104201476E-003
  0.19460000000000005          7.1751485355470721E-003
  0.19570000000000004          1.0473118451748085E-002
  0.19680000000000003          1.4400343180756458E-002
  0.19790000000000002          1.9045665530624794E-002
  0.19900000000000001          2.4529527082915670E-002
  0.20010000000000000          3.1014475333995283E-002
  0.20120000000000005          3.8716823728902998E-002
  0.20230000000000004          4.7919350132546848E-002
  0.20340000000000003          5.8984953227127095E-002
  0.20450000000000002          7.2371240918296026E-002
  0.20560000000000000          8.8646094852212975E-002
  0.20670000000000005         0.10850433352752129
  0.20780000000000004         0.13278567505395553
  0.20890000000000003         0.16249427079098377
