 -0.12000000000000000          0.0000000000000000
 -0.11889999999999999          0.0000000000000000
 -0.11780000000000000          0.0000000000000000
 -0.11670000000000000          0.0000000000000000
 -0.11559999999999999          0.0000000000000000
 -0.11449999999999999          0.0000000000000000
 -0.11340000000000000          0.0000000000000000
 -0.11230000000000000          0.0000000000000000
 -0.11119999999999999          0.0000000000000000
 -0.11009999999999999          0.0000000000000000
 -0.10900000000000000          0.0000000000000000
 -0.10790000000000000         -1.5480577507657268E-142
 -0.10679999999999999         -2.2501040067669525E-116
 -0.10569999999999999          6.1255774354282862E-092
 -0.10460000000000000          1.0495668114204723E-066
 -0.10349999999999999          1.8382974899841648E-042
 -0.10239999999999999          3.0336819748569565E-041
 -0.10130000000000000          2.3035288259425281E-040
 -0.10020000000000000          1.0060263794439742E-039
  -9.9099999999999994E-002     2.3419040874131672E-039
  -9.7999999999999990E-002    -3.7419439636880525E-040
  -9.6899999999999986E-002    -2.4940114611117900E-038
  -9.5799999999999996E-002    -9.6350601856257048E-038
  -9.4699999999999993E-002    -1.6236283499725379E-037
  -9.3599999999999989E-002     1.2796608322960620E-037
  -9.2499999999999999E-002     1.5527604556350442E-036
  -9.1399999999999995E-002     4.3767125195880661E-036
  -9.0299999999999991E-002     4.9372777559315252E-036
  -8.9200000000000002E-002    -8.9876695453257075E-036
  -8.8099999999999984E-002    -5.3888254736388255E-035
  -8.6999999999999994E-002    -1.1677855809242025E-034
  -8.5899999999999990E-002    -8.4380143785512949E-035
  -8.4799999999999986E-002     2.9644859722475813E-034
  -8.3699999999999997E-002     1.2237150013170951E-033
  -8.2599999999999993E-002     2.1747791473341222E-033
  -8.1499999999999989E-002     9.6799269766852176E-034
  -8.0399999999999999E-002    -6.0830821123569733E-033
  -7.9299999999999995E-002    -2.0306606621912504E-032
  -7.8199999999999992E-002    -3.1568679599339287E-032
  -7.7100000000000002E-002    -9.2216754630504575E-033
  -7.5999999999999984E-002     8.9074049680656850E-032
  -7.4899999999999994E-002     2.6548765592759345E-031
  -7.3799999999999991E-002     3.8446159382291318E-031
  -7.2699999999999987E-002     1.0209224280922938E-031
  -7.1599999999999997E-002    -9.9863322422208479E-031
  -7.0499999999999993E-002    -2.8666717684422328E-030
  -6.9399999999999989E-002    -4.0984189541247755E-030
  -6.8300000000000000E-002    -1.4364503574673261E-030
  -6.7199999999999996E-002     8.8456382990543636E-030
  -6.6099999999999992E-002     2.6247165196488231E-029
  -6.5000000000000002E-002     3.8911750319654521E-029
  -6.3899999999999985E-002     1.9958096227788644E-029
  -6.2799999999999995E-002    -6.1631386749253170E-029
  -6.1699999999999991E-002    -2.0587140751801391E-028
  -6.0599999999999994E-002    -3.2931320409244065E-028
  -5.9499999999999990E-002    -2.3587358420857726E-028
  -5.8399999999999994E-002     3.1496757207949347E-028
  -5.7299999999999990E-002     1.3776179494752500E-027
  -5.6199999999999986E-002     2.4649364536043540E-027
  -5.5099999999999996E-002     2.3107412520250779E-027
  -5.3999999999999992E-002    -7.9782202346098252E-028
  -5.2899999999999989E-002    -7.6912330332645842E-027
  -5.1799999999999985E-002    -1.6110917379702015E-026
  -5.0699999999999995E-002    -1.8886761775720014E-026
  -4.9599999999999991E-002    -5.0160276610380164E-027
  -4.8499999999999988E-002     3.3686313121967178E-026
  -4.7399999999999998E-002     9.0186685524947344E-026
  -4.6299999999999994E-002     1.2967807707849887E-025
  -4.5199999999999990E-002     8.9548682519663759E-026
  -4.4099999999999986E-002    -9.2685247178087238E-026
  -4.2999999999999997E-002    -4.1738392317974656E-025
  -4.1899999999999993E-002    -7.4678580271475717E-025
  -4.0799999999999989E-002    -7.7172327029138725E-025
  -3.9699999999999985E-002    -1.0168086069137312E-025
  -3.8599999999999995E-002     1.4663228552039843E-024
  -3.7499999999999992E-002     3.5481630122271351E-024
  -3.6399999999999988E-002     4.8610739277490566E-024
  -3.5299999999999984E-002     3.3729634359316822E-024
  -3.4199999999999994E-002    -2.7302288597777518E-024
  -3.3099999999999991E-002    -1.3244398323837681E-023
  -3.1999999999999987E-002    -2.3998111088935112E-023
  -3.0899999999999997E-002    -2.6247141640395773E-023
  -2.9799999999999993E-002    -9.2538651595568638E-024
  -2.8699999999999989E-002     3.2942624977146796E-023
  -2.7599999999999986E-002     9.1999828678795337E-023
  -2.6499999999999996E-002     1.3797579275226481E-022
  -2.5399999999999992E-002     1.2210092478394676E-022
  -2.4299999999999988E-002    -3.2564870896603199E-024
  -2.3199999999999985E-002    -2.4714489005718658E-022
  -2.2099999999999995E-002    -5.3784410141561823E-022
  -2.0999999999999991E-002    -7.0331874697930514E-022
  -1.9899999999999987E-002    -5.0838535937718740E-022
  -1.8799999999999983E-002     2.3004430345717056E-022
  -1.7699999999999994E-002     1.4669016889309370E-021
  -1.6599999999999990E-002     2.7668369489162710E-021
  -1.5499999999999986E-002     3.2812394446990850E-021
  -1.4399999999999996E-002     1.9922292821997144E-021
  -1.3299999999999992E-002    -1.7320454844206520E-021
  -1.2199999999999989E-002    -7.4036204536661318E-021
  -1.1099999999999985E-002    -1.2855599455431739E-020
  -9.9999999999999950E-003    -1.4358785539616187E-020
  -8.8999999999999913E-003    -7.8412029441284521E-021
  -7.7999999999999875E-003     8.7662270648188833E-021
  -6.6999999999999837E-003     3.2737107331449736E-020
  -5.5999999999999939E-003     5.4747165830900960E-020
  -4.4999999999999901E-003     5.9872877054165622E-020
  -3.3999999999999864E-003     3.2705905389297883E-020
  -2.2999999999999826E-003    -3.3727617746287627E-020
  -1.1999999999999927E-003    -1.2804400206218148E-019
  -9.9999999999988987E-005    -2.1477960149879164E-019
   1.0000000000000148E-003    -2.3891336411614691E-019
   2.1000000000000185E-003    -1.4451600720239123E-019
   3.2000000000000084E-003     9.4292527456791864E-020
   4.3000000000000121E-003     4.3994225197821215E-019
   5.4000000000000159E-003     7.7263003454234822E-019
   6.5000000000000058E-003     9.0507008985140050E-019
   7.6000000000000234E-003     6.4223899722636069E-019
   8.7000000000000133E-003    -1.2016826349287321E-019
   9.8000000000000032E-003    -1.2888098237378360E-018
   1.0900000000000021E-002    -2.5082177278889134E-018
   1.2000000000000011E-002    -3.1946080903815402E-018
   1.3100000000000001E-002    -2.7025969872365261E-018
   1.4200000000000018E-002    -6.1019829678548680E-019
   1.5300000000000008E-002     2.9582901031872629E-018
   1.6400000000000026E-002     7.1092082183079755E-018
   1.7500000000000016E-002     1.0210916392321675E-017
   1.8600000000000005E-002     1.0284963977667541E-017
   1.9700000000000023E-002     5.7418471281140816E-018
   2.0800000000000013E-002    -3.7187038638343044E-018
   2.1900000000000003E-002    -1.6374001070993263E-017
   2.3000000000000020E-002    -2.8305541441845727E-017
   2.4100000000000010E-002    -3.4095238328933951E-017
   2.5200000000000000E-002    -2.8446867813710139E-017
   2.6300000000000018E-002    -8.4210543349333428E-018
   2.7400000000000008E-002     2.4394850124208414E-017
   2.8500000000000025E-002     6.2674318625987530E-017
   2.9600000000000015E-002     9.3915292700715861E-017
   3.0700000000000005E-002     1.0318254998381374E-016
   3.1800000000000023E-002     7.7739229392465082E-017
   3.2900000000000013E-002     1.2498559848440509E-017
   3.4000000000000002E-002    -8.5375628381965257E-017
   3.5100000000000020E-002    -1.9456321736573293E-016
   3.6200000000000010E-002    -2.8181460375927745E-016
   3.7300000000000028E-002    -3.0878789216412878E-016
   3.8400000000000017E-002    -2.4266686667195478E-016
   3.9500000000000007E-002    -6.8408293167588971E-017
   4.0600000000000025E-002     2.0050638865783991E-016
   4.1700000000000015E-002     5.1627577223647850E-016
   4.2800000000000005E-002     7.9894968813151407E-016
   4.3900000000000022E-002     9.4834292322263091E-016
   4.5000000000000012E-002     8.6557307650229292E-016
   4.6100000000000002E-002     4.8175411176944818E-016
   4.7200000000000020E-002    -2.1114650034346735E-016
   4.8300000000000010E-002    -1.1345734883470035E-015
   4.9400000000000027E-002    -2.1115419216870576E-015
   5.0500000000000017E-002    -2.8773700265807112E-015
   5.1600000000000007E-002    -3.1192142530733126E-015
   5.2700000000000025E-002    -2.5452874603915310E-015
   5.3800000000000014E-002    -9.7656687645162810E-016
   5.4900000000000004E-002     1.5557863866117969E-015
   5.6000000000000022E-002     4.7328064831047131E-015
   5.7100000000000012E-002     7.9201279252347799E-015
   5.8200000000000002E-002     1.0218207049809612E-014
   5.9300000000000019E-002     1.0606565856394495E-014
   6.0400000000000009E-002     8.1777510988983800E-015
   6.1500000000000027E-002     2.4302812167298989E-015
   6.2600000000000017E-002    -6.4368576103444765E-015
   6.3700000000000007E-002    -1.7305466898763101E-014
   6.4800000000000024E-002    -2.8078474174229169E-014
   6.5900000000000014E-002    -3.5849870574260470E-014
   6.7000000000000004E-002    -3.7341460162543373E-014
   6.8100000000000022E-002    -2.9592220930969080E-014
   6.9200000000000012E-002    -1.0822837197635319E-014
   7.0300000000000029E-002     1.8667556527364460E-014
   7.1400000000000019E-002     5.5771150256081283E-014
   7.2500000000000009E-002     9.4238782119589246E-014
   7.3600000000000027E-002     1.2497029385992906E-013
   7.4700000000000016E-002     1.3709684439696569E-013
   7.5800000000000006E-002     1.1990790692736946E-013
   7.6900000000000024E-002     6.5500549149161740E-014
   7.8000000000000014E-002    -2.8189961043048043E-014
   7.9100000000000004E-002    -1.5454689352318008E-013
   8.0200000000000021E-002    -2.9636866130743630E-013
   8.1300000000000011E-002    -4.2573247560598099E-013
   8.2400000000000029E-002    -5.0635355233114248E-013
   8.3500000000000019E-002    -4.9885237077794969E-013
   8.4600000000000009E-002    -3.6880549178944457E-013
   8.5700000000000026E-002    -9.6749453344153503E-014
   8.6800000000000016E-002     3.1145547829093461E-013
   8.7900000000000006E-002     8.1615211852710201E-013
   8.9000000000000024E-002     1.3399188957916199E-012
   9.0100000000000013E-002     1.7706211274218948E-012
   9.1200000000000003E-002     1.9733049556072612E-012
   9.2300000000000021E-002     1.8114542517566739E-012
   9.3400000000000011E-002     1.1763043808412658E-012
   9.4500000000000028E-002     2.0777619876913049E-014
   9.5600000000000018E-002    -1.6074895955103597E-012
   9.6700000000000008E-002    -3.5411961930890697E-012
   9.7800000000000026E-002    -5.4844018286062366E-012
   9.8900000000000016E-002    -7.0268365847919824E-012
  0.10000000000000001         -7.6866021068393664E-012
  0.10110000000000002         -6.9824796976198514E-012
  0.10220000000000001         -4.5316882079621722E-012
  0.10330000000000003         -1.6262941231919333E-013
  0.10440000000000002          5.9741865156891819E-012
  0.10550000000000001          1.3319051293241470E-011
  0.10660000000000003          2.0864565046469948E-011
  0.10770000000000002          2.7189504706842761E-011
  0.10880000000000001          3.0583113715179168E-011
  0.10990000000000003          2.9267052334054173E-011
  0.11100000000000002          2.1706715348154412E-011
  0.11210000000000001          6.9847381676411223E-012
  0.11320000000000002         -1.4810382835753922E-011
  0.11430000000000001         -4.2245340407943281E-011
  0.11540000000000003         -7.2329316429259152E-011
  0.11650000000000002         -1.0050621072846946E-010
  0.11760000000000001         -1.2091968117304670E-010
  0.11870000000000003         -1.2699326920330733E-010
  0.11980000000000002         -1.1232751312830598E-010
  0.12090000000000001         -7.1863359833548654E-011
  0.12200000000000003         -3.2016561726576569E-012
  0.12310000000000001          9.2090113030346280E-011
  0.12420000000000003          2.0740060433699870E-010
  0.12530000000000002          3.3047038133262735E-010
  0.12640000000000001          4.4349983044447386E-010
  0.12750000000000003          5.2416578488621479E-010
  0.12860000000000002          5.4765939001044214E-010
  0.12970000000000001          4.8973469959651316E-010
  0.13080000000000003          3.3060410009026943E-010
  0.13190000000000002          5.9347836642655874E-011
  0.13300000000000001         -3.2165906118864645E-010
  0.13410000000000000         -7.9293438697550072E-010
  0.13520000000000004         -1.3154042829057505E-009
  0.13630000000000003         -1.8299646147686026E-009
  0.13740000000000002         -2.2597158966566465E-009
  0.13850000000000001         -2.5153051536170906E-009
  0.13960000000000000         -2.5035118745426675E-009
  0.14070000000000005         -2.1388326599739943E-009
  0.14180000000000004         -1.3573800021519440E-009
  0.14290000000000003         -1.3195745330642497E-010
  0.14400000000000002          1.5132414413673019E-009
  0.14510000000000001          3.4901828312052961E-009
  0.14620000000000000          5.6388334125397445E-009
  0.14730000000000004          7.7253111066501942E-009
  0.14840000000000003          9.4481194671842790E-009
  0.14950000000000002          1.0453771151059560E-008
  0.15060000000000001          1.0362438257353183E-008
  0.15170000000000000          8.8034542202429992E-009
  0.15280000000000005          5.4596122554115068E-009
  0.15390000000000004          1.1835739825145226E-010
  0.15500000000000003         -7.2727388325219370E-009
  0.15610000000000002         -1.6549293336926336E-008
  0.15720000000000001         -2.7275409237417928E-008
  0.15830000000000000         -3.8693862716680802E-008
  0.15940000000000004         -4.9683355742303662E-008
  0.16050000000000003         -5.8723847257458097E-008
  0.16160000000000002         -6.3869426111654465E-008
  0.16270000000000001         -6.2726344851581811E-008
  0.16380000000000000         -5.2431817483281584E-008
  0.16490000000000005         -2.9627140650282175E-008
  0.16600000000000004          9.5832230001097078E-009
  0.16710000000000003          6.9696617476484546E-008
  0.16820000000000002          1.5591251928550667E-007
  0.16930000000000001          2.7428034104833351E-007
  0.17040000000000000          4.3190719191033075E-007
  0.17150000000000004          6.3723799175933187E-007
  0.17260000000000003          9.0041991251521881E-007
  0.17370000000000002          1.2337625003054158E-006
  0.17480000000000001          1.6523042010713771E-006
  0.17590000000000000          2.1744955711602754E-006
  0.17700000000000005          2.8230094001531399E-006
  0.17810000000000004          3.6256884707189812E-006
  0.17920000000000003          4.6166428397018837E-006
  0.18030000000000002          5.8375103822140336E-006
  0.18140000000000001          7.3388968482023339E-006
  0.18250000000000000          9.1820147057103597E-006
  0.18360000000000004          1.1440543377614683E-005
  0.18470000000000003          1.4202736850079449E-005
  0.18580000000000002          1.7573807733794285E-005
  0.18690000000000001          2.1678619368759197E-005
  0.18800000000000000          2.6664719157872126E-005
  0.18910000000000005          3.2705746689237757E-005
  0.19020000000000004          4.0005249085295671E-005
  0.19130000000000003          4.8800933156756802E-005
  0.19240000000000002          5.9369379138651599E-005
  0.19350000000000001          7.2031233885291588E-005
  0.19460000000000005          8.7156892287007225E-005
  0.19570000000000004          1.0517266427701199E-004
  0.19680000000000003          1.2656741109904948E-004
  0.19790000000000002          1.5189961852207963E-004
  0.19900000000000001          1.8180485646432628E-004
  0.20010000000000000          2.1700355409419344E-004
  0.20120000000000005          2.5830899699326822E-004
  0.20230000000000004          3.0663542849443306E-004
  0.20340000000000003          3.6300611096612575E-004
  0.20450000000000002          4.2856117476305347E-004
  0.20560000000000000          5.0456505303323146E-004
  0.20670000000000005          5.9241326989048645E-004
  0.20780000000000004          6.9363831809315663E-004
  0.20890000000000003          8.0991433093759516E-004
