 -0.12000000000000000          0.0000000000000000
 -0.11889999999999999          0.0000000000000000
 -0.11780000000000000          0.0000000000000000
 -0.11670000000000000          0.0000000000000000
 -0.11559999999999999          0.0000000000000000
 -0.11449999999999999          0.0000000000000000
 -0.11340000000000000          0.0000000000000000
 -0.11230000000000000          0.0000000000000000
 -0.11119999999999999          0.0000000000000000
 -0.11009999999999999          0.0000000000000000
 -0.10900000000000000          0.0000000000000000
 -0.10790000000000000          0.0000000000000000
 -0.10679999999999999          0.0000000000000000
 -0.10569999999999999          2.9035348046295719E-040
 -0.10460000000000000          5.2303216450363580E-039
 -0.10349999999999999          4.6614729116922033E-038
 -0.10239999999999999          2.7174322851802547E-037
 -0.10130000000000000          1.1519022323130883E-036
 -0.10020000000000000          3.7178955021198147E-036
  -9.9099999999999994E-002     9.2068316338097077E-036
  -9.7999999999999990E-002     1.6683589450232755E-035
  -9.6899999999999986E-002     1.7081617685881900E-035
  -9.5799999999999996E-002    -1.5348071508424572E-035
  -9.4699999999999993E-002    -1.2695865481420254E-034
  -9.3599999999999989E-002    -3.7002204265465245E-034
  -9.2499999999999999E-002    -7.5511695611920873E-034
  -9.1399999999999995E-002    -1.1629783538515962E-033
  -9.0299999999999991E-002    -1.2034236326323226E-033
  -8.9200000000000002E-002     2.7815285061435645E-035
  -8.8099999999999984E-002     4.3503122669690769E-033
  -8.6999999999999994E-002     1.4833674153282554E-032
  -8.5899999999999990E-002     3.4887715904058166E-032
  -8.4799999999999986E-002     6.3349778876111015E-032
  -8.3699999999999997E-002     8.2162883463351937E-032
  -8.2599999999999993E-002     3.7312638839045298E-032
  -8.1499999999999989E-002    -1.7312240681288171E-031
  -8.0399999999999999E-002    -6.6849284988228220E-031
  -7.9299999999999995E-002    -1.4624278525020954E-030
  -7.8199999999999992E-002    -2.2212610039844719E-030
  -7.7100000000000002E-002    -1.9800739134873569E-030
  -7.5999999999999984E-002     9.2473404222871962E-031
  -7.4899999999999994E-002     8.2678061205652176E-030
  -7.3799999999999991E-002     2.0276420590414923E-029
  -7.2699999999999987E-002     3.2963069935684937E-029
  -7.1599999999999997E-002     3.5560129520699945E-029
  -7.0499999999999993E-002     1.0509521359410019E-029
  -6.9399999999999989E-002    -6.0745464870886713E-029
  -6.8300000000000000E-002    -1.8390361112321739E-028
  -6.7199999999999996E-002    -3.3137258049646297E-028
  -6.6099999999999992E-002    -4.2306881312335704E-028
  -6.5000000000000002E-002    -3.2304897739597974E-028
  -6.3899999999999985E-002     1.3005667241525331E-028
  -6.2799999999999995E-002     1.0452672032533790E-027
  -6.1699999999999991E-002     2.3557126668752884E-027
  -6.0599999999999994E-002     3.6765130271612789E-027
  -5.9499999999999990E-002     4.2035350131338923E-027
  -5.8399999999999994E-002     2.7443718696242242E-027
  -5.7299999999999990E-002    -2.0069999953665308E-027
  -5.6199999999999986E-002    -1.0851611290674135E-026
  -5.5099999999999996E-002    -2.3097120777496028E-026
  -5.3999999999999992E-002    -3.5352097848739992E-026
  -5.2899999999999989E-002    -4.0561484647263019E-026
  -5.1799999999999985E-002    -2.8131430446671235E-026
  -5.0699999999999995E-002     1.3710014696169192E-026
  -4.9599999999999991E-002     9.2293701674855329E-026
  -4.8499999999999988E-002     2.0156156315513935E-025
  -4.7399999999999998E-002     3.1175230252729430E-025
  -4.6299999999999994E-002     3.6254238956449279E-025
  -4.5199999999999990E-002     2.6708965660764485E-025
  -4.4099999999999986E-002    -6.5058078247208083E-026
  -4.2999999999999997E-002    -6.8197484309413957E-025
  -4.1899999999999993E-002    -1.5253911598674496E-024
  -4.0799999999999989E-002    -2.3678079454016942E-024
  -3.9699999999999985E-002    -2.7841879859039487E-024
  -3.8599999999999995E-002    -2.1995174745540928E-024
  -3.7499999999999992E-002    -4.6484879637294844E-026
  -3.6399999999999988E-002     3.9602272069688543E-024
  -3.5299999999999984E-002     9.4748089583416747E-024
  -3.4199999999999994E-002     1.5198143151550052E-023
  -3.3099999999999991E-002     1.8738807552762817E-023
  -3.1999999999999987E-002     1.6839175150008854E-023
  -3.0899999999999997E-002     6.1211827193844770E-024
  -2.9799999999999993E-002    -1.5593941760201518E-023
  -2.8699999999999989E-002    -4.7520371988654797E-023
  -2.7599999999999986E-002    -8.4081261897664035E-023
  -2.6499999999999996E-002    -1.1369627044516481E-022
  -2.5399999999999992E-002    -1.1910067144319067E-022
  -2.4299999999999988E-002    -8.0174241549037111E-023
  -2.3199999999999985E-002     2.0035531267633535E-023
  -2.2099999999999995E-002     1.8621803082133876E-022
  -2.0999999999999991E-002     4.0012295712727768E-022
  -1.9899999999999987E-002     6.1154341015054795E-022
  -1.8799999999999983E-002     7.3582353864740689E-022
  -1.7699999999999994E-002     6.6343302639832587E-022
  -1.6599999999999990E-002     2.8592680622656411E-022
  -1.5499999999999986E-002    -4.6123635812856508E-022
  -1.4399999999999996E-002    -1.5450172016524605E-021
  -1.3299999999999992E-002    -2.7842549855544023E-021
  -1.2199999999999989E-002    -3.8234190419789622E-021
  -1.1099999999999985E-002    -4.1549110288070967E-021
  -9.9999999999999950E-003    -3.2099609633239858E-021
  -8.8999999999999913E-003    -5.2454413966495472E-022
  -7.7999999999999875E-003     4.0360057539286216E-021
  -6.6999999999999837E-003     1.0038526577241084E-020
  -5.5999999999999939E-003     1.6302302001353699E-020
  -4.4999999999999901E-003     2.0868816520401789E-020
  -3.3999999999999864E-003     2.1210496896001707E-020
  -2.2999999999999826E-003     1.4738771478188372E-020
  -1.1999999999999927E-003    -3.9029819824283324E-022
  -9.9999999999988987E-005    -2.4268005535844966E-020
   1.0000000000000148E-003    -5.4231451974566148E-020
   2.1000000000000185E-003    -8.4187698286882171E-020
   3.2000000000000084E-003    -1.0465357420790137E-019
   4.3000000000000121E-003    -1.0388666121591007E-019
   5.4000000000000159E-003    -7.0339124912687209E-020
   6.5000000000000058E-003     3.6326891126717690E-021
   7.6000000000000234E-003     1.1730915252869869E-019
   8.7000000000000133E-003     2.5741183302056726E-019
   9.8000000000000032E-003     3.9562310672861101E-019
   1.0900000000000021E-002     4.8946060478979724E-019
   1.2000000000000011E-002     4.8789975608278583E-019
   1.3100000000000001E-002     3.4233411291075641E-019
   1.4200000000000018E-002     2.2109668429015543E-020
   1.5300000000000008E-002    -4.6784845705404585E-019
   1.6400000000000026E-002    -1.0715109242344403E-018
   1.7500000000000016E-002    -1.6737172763028091E-018
   1.8600000000000005E-002    -2.1052012082888964E-018
   1.9700000000000023E-002    -2.1649038046854847E-018
   2.0800000000000013E-002    -1.6608318690054655E-018
   2.1900000000000003E-002    -4.6625234590765301E-019
   2.3000000000000020E-002     1.4173468429181864E-018
   2.4100000000000010E-002     3.8043450887533494E-018
   2.5200000000000000E-002     6.2937263542473136E-018
   2.6300000000000018E-002     8.2808729877582728E-018
   2.7400000000000008E-002     9.0272486710291066E-018
   2.8500000000000025E-002     7.7939401613802401E-018
   2.9600000000000015E-002     4.0309481085958852E-018
   3.0700000000000005E-002    -2.4036719020945585E-018
   3.1800000000000023E-002    -1.1039008252618365E-017
   3.2900000000000013E-002    -2.0659052887774106E-017
   3.4000000000000002E-002    -2.9305427784564801E-017
   3.5100000000000020E-002    -3.4466769837785415E-017
   3.6200000000000010E-002    -3.3478084182518010E-017
   3.7300000000000028E-002    -2.4108554329307719E-017
   3.8400000000000017E-002    -5.2612931894920980E-018
   3.9500000000000007E-002     2.2345580192137202E-017
   4.0600000000000025E-002     5.5686151855850526E-017
   4.1700000000000015E-002     8.9301483985418671E-017
   4.2800000000000005E-002     1.1569099344258609E-016
   4.3900000000000022E-002     1.2629597159715344E-016
   4.5000000000000012E-002     1.1303986261759094E-016
   4.6100000000000002E-002     7.0257019352629607E-017
   4.7200000000000020E-002    -3.2900455080013626E-018
   4.8300000000000010E-002    -1.0270786130469057E-016
   4.9400000000000027E-002    -2.1603328825353205E-016
   5.0500000000000017E-002    -3.2447609512389377E-016
   5.1600000000000007E-002    -4.0413505792115346E-016
   5.2700000000000025E-002    -4.2926278639940551E-016
   5.3800000000000014E-002    -3.7686361902437782E-016
   5.4900000000000004E-002    -2.3208233991587596E-016
   5.6000000000000022E-002     6.4639457099598536E-018
   5.7100000000000012E-002     3.2247326337872582E-016
   5.8200000000000002E-002     6.7998256905308074E-016
   5.9300000000000019E-002     1.0245864008621149E-015
   6.0400000000000009E-002     1.2884198741540553E-015
   6.1500000000000027E-002     1.3988875869217705E-015
   6.2600000000000017E-002     1.2904166504559902E-015
   6.3700000000000007E-002     9.1781687735998899E-016
   6.4800000000000024E-002     2.6928234551583711E-016
   6.5900000000000014E-002    -6.2321387302044459E-016
   6.7000000000000004E-002    -1.6783239410315365E-015
   6.8100000000000022E-002    -2.7663178417018802E-015
   6.9200000000000012E-002    -3.7177568670402385E-015
   7.0300000000000029E-002    -4.3400416116884541E-015
   7.1400000000000019E-002    -4.4410294290417537E-015
   7.2500000000000009E-002    -3.8579070692318445E-015
   7.3600000000000027E-002    -2.4885533553238782E-015
   7.4700000000000016E-002    -3.2179573517273106E-016
   7.5800000000000006E-002     2.5376687499538373E-015
   7.6900000000000024E-002     5.8542399394869898E-015
   7.8000000000000014E-002     9.2606859590463407E-015
   7.9100000000000004E-002     1.2275398801281745E-014
   8.0200000000000021E-002     1.4339875750635529E-014
   8.1300000000000011E-002     1.4876540910105176E-014
   8.2400000000000029E-002     1.3364346801044099E-014
   8.3500000000000019E-002     9.4266387240835447E-015
   8.4600000000000009E-002     2.9228587613395952E-015
   8.5700000000000026E-002    -5.9668470865391071E-015
   8.6800000000000016E-002    -1.6676872542118725E-014
   8.7900000000000006E-002    -2.8224853234026403E-014
   8.9000000000000024E-002    -3.9227049301452758E-014
   9.0100000000000013E-002    -4.7971667760682932E-014
   9.1200000000000003E-002    -5.2557444187665085E-014
   9.2300000000000021E-002    -5.1098517935882603E-014
   9.3400000000000011E-002    -4.1987872291945453E-014
   9.4500000000000028E-002    -2.4200736037693526E-014
   9.5600000000000018E-002     2.3925686904575910E-015
   9.6700000000000008E-002     3.6745966751919447E-014
   9.7800000000000026E-002     7.6438747086190746E-014
   9.8900000000000016E-002     1.1761037229519402E-013
  0.10000000000000001          1.5507564157306958E-013
  0.10110000000000002          1.8265313074029541E-013
  0.10220000000000001          1.9371808734523550E-013
  0.10330000000000003          1.8196303027257364E-013
  0.10440000000000002          1.4231803489431859E-013
  0.10550000000000001          7.1951438507729753E-014
  0.10660000000000003         -2.8756090374242832E-014
  0.10770000000000002         -1.5539224092320468E-013
  0.10880000000000001         -2.9898785464247419E-013
  0.10990000000000003         -4.4592349536098153E-013
  0.11100000000000002         -5.7838791580147082E-013
  0.11210000000000001         -6.7547267026174636E-013
  0.11320000000000002         -7.1493183194500348E-013
  0.11430000000000001         -6.7556239638701450E-013
  0.11540000000000003         -5.4007414806015091E-013
  0.11650000000000002         -2.9822578323058035E-013
  0.11760000000000001          5.0081908462973993E-014
  0.11870000000000003          4.9213244964127679E-013
  0.11980000000000002          1.0005533252722528E-012
  0.12090000000000001          1.5327197512352884E-012
  0.12200000000000003          2.0317652016188219E-012
  0.12310000000000001          2.4294658996181925E-012
  0.12420000000000003          2.6511254698138761E-012
  0.12530000000000002          2.6224037494633120E-012
  0.12640000000000001          2.2778174487193837E-012
  0.12750000000000003          1.5704006578418825E-012
  0.12860000000000002          4.8176616176893105E-013
  0.12970000000000001         -9.6842294431248273E-013
  0.13080000000000003         -2.7147476810201339E-012
  0.13190000000000002         -4.6413750209675383E-012
  0.13300000000000001         -6.5817169935244261E-012
  0.13410000000000000         -8.3235190132738439E-012
  0.13520000000000004         -9.6201678241536348E-012
  0.13630000000000003         -1.0208524783347390E-011
  0.13740000000000002         -9.8329631959900897E-012
  0.13850000000000001         -8.2745591843273501E-012
  0.13960000000000000         -5.3836103079246949E-012
  0.14070000000000005         -1.1129026449169832E-012
  0.14180000000000004          4.4515094661467453E-012
  0.14290000000000003          1.1065727116363759E-011
  0.14400000000000002          1.8313574231818392E-011
  0.14510000000000001          2.5606141164709840E-011
  0.14620000000000000          3.2198632579583291E-011
  0.14730000000000004          3.7226904180402308E-011
  0.14840000000000003          3.9764681760581265E-011
  0.14950000000000002          3.8900655187413742E-011
  0.15060000000000001          3.3832520306625360E-011
  0.15170000000000000          2.3972748095085842E-011
  0.15280000000000005          9.0585833578254164E-012
  0.15390000000000004         -1.0743263096709346E-011
  0.15500000000000003         -3.4748329583099189E-011
  0.15610000000000002         -6.1694488985704725E-011
  0.15720000000000001         -8.9722322187411427E-011
  0.15830000000000000         -1.1640657858881780E-010
  0.15940000000000004         -1.3884722058004892E-010
  0.16050000000000003         -1.5382502479011881E-010
  0.16160000000000002         -1.5802202101624374E-010
  0.16270000000000001         -1.4830135566952087E-010
  0.16380000000000000         -1.2203476309229654E-010
  0.16490000000000005         -7.7459138957770605E-011
  0.16600000000000004         -1.4037277203437316E-011
  0.16710000000000003          6.7207716087600100E-011
  0.16820000000000002          1.6341881653713472E-010
  0.16930000000000001          2.6972857459653740E-010
  0.17040000000000000          3.7921506188496396E-010
  0.17150000000000004          4.8302153713094678E-010
  0.17260000000000003          5.7066365294009737E-010
  0.17370000000000002          6.3053725024326216E-010
  0.17480000000000001          6.5062597463240840E-010
  0.17590000000000000          6.1939166577911671E-010
  0.17700000000000005          5.2681256329911743E-010
  0.17810000000000004          3.6551594551922042E-010
  0.17920000000000003          1.3193419679818154E-010
  0.18030000000000002         -1.7260203876983239E-010
  0.18140000000000001         -5.4093147978575070E-010
  0.18250000000000000         -9.5939469365026526E-010
  0.18360000000000004         -1.4075351659987351E-009
  0.18470000000000003         -1.8582647152165838E-009
  0.18580000000000002         -2.2785728748592523E-009
  0.18690000000000001         -2.6308354458393471E-009
  0.18800000000000000         -2.8747451652926276E-009
  0.18910000000000005         -2.9698483805800553E-009
  0.19020000000000004         -2.8786273735600357E-009
  0.19130000000000003         -2.5700207314544663E-009
  0.19240000000000002         -2.0232265770918087E-009
  0.19350000000000001         -1.2315885945425051E-009
  0.19460000000000005         -2.0632585167504174E-010
  0.19570000000000004          1.0201623701561859E-009
  0.19680000000000003          2.3917032761472533E-009
  0.19790000000000002          3.8267587033566122E-009
  0.19900000000000001          5.2181121504718066E-009
  0.20010000000000000          6.4340833682248254E-009
  0.20120000000000005          7.3214749173927957E-009
  0.20230000000000004          7.7103974051735418E-009
  0.20340000000000003          7.4210523826442809E-009
  0.20450000000000002          6.2724787845426747E-009
  0.20560000000000000          4.0931961204339455E-009
  0.20670000000000005          7.3361214188435748E-010
  0.20780000000000004         -3.9199881312221895E-009
  0.20890000000000003         -9.9300835150284907E-009
