 -0.12000000000000000          0.0000000000000000
 -0.11889999999999999          0.0000000000000000
 -0.11780000000000000          0.0000000000000000
 -0.11670000000000000          0.0000000000000000
 -0.11559999999999999          0.0000000000000000
 -0.11449999999999999          0.0000000000000000
 -0.11340000000000000          0.0000000000000000
 -0.11230000000000000          0.0000000000000000
 -0.11119999999999999          0.0000000000000000
 -0.11009999999999999          0.0000000000000000
 -0.10900000000000000          0.0000000000000000
 -0.10790000000000000          0.0000000000000000
 -0.10679999999999999          0.0000000000000000
 -0.10569999999999999          0.0000000000000000
 -0.10460000000000000          3.6154625696442954E-203
 -0.10349999999999999          3.1277276318598779E-178
 -0.10239999999999999         -7.8850955435194306E-153
 -0.10130000000000000          3.8059858989592761E-128
 -0.10020000000000000          6.3590669827502885E-103
  -9.9099999999999994E-002     1.5833074513594641E-078
  -9.7999999999999990E-002     9.6353302614302926E-055
  -9.6899999999999986E-002     2.1287821195339578E-053
  -9.5799999999999996E-002     2.1820918816867068E-052
  -9.4699999999999993E-002     1.3249655885815927E-051
  -9.3599999999999989E-002     4.8269232333576326E-051
  -9.2499999999999999E-002     6.9530743781490321E-051
  -9.1399999999999995E-002    -3.0765061193163476E-050
  -9.0299999999999991E-002    -2.3308028890904665E-049
  -8.9200000000000002E-002    -7.0170018525505603E-049
  -8.8099999999999984E-002    -6.1563258009640913E-049
  -8.6999999999999994E-002     4.0030679306438994E-048
  -8.5899999999999990E-002     2.0616219744837436E-047
  -8.4799999999999986E-002     4.4300100181430149E-047
  -8.3699999999999997E-002     4.2893576457174797E-048
  -8.2599999999999993E-002    -2.9733205175671972E-046
  -8.1499999999999989E-002    -1.0332442180758439E-045
  -8.0399999999999999E-002    -1.5190429155338226E-045
  -7.9299999999999995E-002     1.3670512622275841E-045
  -7.8199999999999992E-002     1.3164938043046716E-044
  -7.7100000000000002E-002     3.3328420611226278E-044
  -7.5999999999999984E-002     3.1210053835553164E-044
  -7.4899999999999994E-002    -7.8901524244273528E-044
  -7.3799999999999991E-002    -3.9132590927664442E-043
  -7.2699999999999987E-002    -7.6521017520920918E-043
  -7.1599999999999997E-002    -3.7333001232101545E-043
  -7.0499999999999993E-002     2.4376850805254139E-042
  -6.9399999999999989E-002     8.5851578742521427E-042
  -6.8300000000000000E-002     1.3533227316857721E-041
  -6.7199999999999996E-002     1.2813585596024506E-042
  -6.6099999999999992E-002    -5.2502840391630418E-041
  -6.5000000000000002E-002    -1.4893076936627480E-040
  -6.3899999999999985E-002    -1.9664845512753669E-040
  -6.2799999999999995E-002     4.7307104010217254E-041
  -6.1699999999999991E-002     8.7405063052248870E-040
  -6.0599999999999994E-002     2.1483333237860576E-039
  -5.9499999999999990E-002     2.4798092066559899E-039
  -5.8399999999999994E-002    -1.2052541419760718E-039
  -5.7299999999999990E-002    -1.1903278507565110E-038
  -5.6199999999999986E-002    -2.6726891316070118E-038
  -5.5099999999999996E-002    -2.8378022178462631E-038
  -5.3999999999999992E-002     1.6936377407418112E-038
  -5.2899999999999989E-002     1.3727662409003221E-037
  -5.1799999999999985E-002     2.9413031479596235E-037
  -5.0699999999999995E-002     3.0372128735656456E-037
  -4.9599999999999991E-002    -1.6665792895931952E-037
  -4.8499999999999988E-002    -1.3688079227004778E-036
  -4.7399999999999998E-002    -2.9095301743204091E-036
  -4.6299999999999994E-002    -3.0772433917194089E-036
  -4.5199999999999990E-002     1.1201748337597460E-036
  -4.4099999999999986E-002     1.1921078333735254E-035
  -4.2999999999999997E-002     2.6082879565154032E-035
  -4.1899999999999993E-002     2.9419263966117061E-035
  -4.0799999999999989E-002    -2.9170178359010422E-036
  -3.9699999999999985E-002    -9.0684305535453160E-035
  -3.8599999999999995E-002    -2.1230168442308235E-034
  -3.7499999999999992E-002    -2.6244861975834250E-034
  -3.6399999999999988E-002    -4.9956672623461243E-035
  -3.5299999999999984E-002     5.9469764140237904E-034
  -3.4199999999999994E-002     1.5636763350451365E-033
  -3.3099999999999991E-002     2.1576275496477762E-033
  -3.1999999999999987E-002     1.0169742610089317E-033
  -3.0899999999999997E-002    -3.2345086439714529E-033
  -2.9799999999999993E-002    -1.0331374731995671E-032
  -2.8699999999999989E-002    -1.6165114825943336E-032
  -2.7599999999999986E-002    -1.1854935302833281E-032
  -2.6499999999999996E-002     1.2949586937879881E-032
  -2.5399999999999992E-002     6.0240011258366034E-032
  -2.4299999999999988E-002     1.0923088318075209E-031
  -2.3199999999999985E-002     1.0718326712424549E-031
  -2.2099999999999995E-002    -1.7004439956181729E-032
  -2.0999999999999991E-002    -3.0018537540616630E-031
  -1.9899999999999987E-002    -6.5776073275199089E-031
  -1.8799999999999983E-002    -8.0939410985486532E-031
  -1.7699999999999994E-002    -3.1357670903453985E-031
  -1.6599999999999990E-002     1.1834191545775660E-030
  -1.5499999999999986E-002     3.4665358911501429E-030
  -1.4399999999999996E-002     5.2369908716163792E-030
  -1.3299999999999992E-002     4.0424617846174875E-030
  -1.2199999999999989E-002    -2.7258459526142454E-030
  -1.1099999999999985E-002    -1.5449830176257086E-029
  -9.9999999999999950E-003    -2.9170863764611619E-029
  -8.8999999999999913E-003    -3.1887716751844405E-029
  -7.7999999999999875E-003    -7.5642459529464307E-030
  -6.6999999999999837E-003     5.3502091570549254E-029
  -5.5999999999999939E-003     1.3817178893697518E-028
  -4.4999999999999901E-003     1.9611715578992114E-028
  -3.3999999999999864E-003     1.4324057524554654E-028
  -2.2999999999999826E-003    -1.0043716126674056E-028
  -1.1999999999999927E-003    -5.3446127168175676E-028
  -9.9999999999988987E-005    -9.8918457120425881E-028
   1.0000000000000148E-003    -1.0892921053904317E-027
   2.1000000000000185E-003    -3.5712381673468066E-028
   3.2000000000000084E-003     1.4859892800012664E-027
   4.3000000000000121E-003     4.0713560061723622E-027
   5.4000000000000159E-003     6.0151539889276482E-027
   6.5000000000000058E-003     5.0214572860347457E-027
   7.6000000000000234E-003    -1.1545295532778472E-027
   8.7000000000000133E-003    -1.2816009928163069E-026
   9.8000000000000032E-003    -2.6129759174240237E-026
   1.0900000000000021E-002    -3.2098303226587789E-026
   1.2000000000000011E-002    -1.8646492799017495E-026
   1.3100000000000001E-002     2.2851830888421276E-026
   1.4200000000000018E-002     8.7522504314262045E-026
   1.5300000000000008E-002     1.4791874873744311E-025
   1.6400000000000026E-002     1.5380828640498443E-025
   1.7500000000000016E-002     4.9090553018357115E-026
   1.8600000000000005E-002    -1.9141250275973711E-025
   1.9700000000000023E-002    -5.1500167151782814E-025
   2.0800000000000013E-002    -7.5976949165483825E-025
   2.1900000000000003E-002    -6.7560366969196969E-025
   2.3000000000000020E-002    -2.7649238761378587E-026
   2.4100000000000010E-002     1.2216023886033654E-024
   2.5200000000000000E-002     2.7149710001737301E-024
   2.6300000000000018E-002     3.6149780106791053E-024
   2.7400000000000008E-002     2.7829783277364752E-024
   2.8500000000000025E-002    -6.8385793309535338E-025
   2.9600000000000015E-002    -6.6368925309704658E-024
   3.0700000000000005E-002    -1.3115000196665439E-023
   3.1800000000000023E-002    -1.6197446170103151E-023
   3.2900000000000013E-002    -1.1053229357241120E-023
   3.4000000000000002E-002     5.5791833415718182E-024
   3.5100000000000020E-002     3.2015498451483002E-023
   3.6200000000000010E-002     5.8877791885272541E-023
   3.7300000000000028E-002     6.9231630168165790E-023
   3.8400000000000017E-002     4.3672848501011016E-023
   3.9500000000000007E-002    -2.9224547359370536E-023
   4.0600000000000025E-002    -1.3978624615505229E-022
   4.1700000000000015E-002    -2.4772811488078096E-022
   4.2800000000000005E-002    -2.8474130466987595E-022
   4.3900000000000022E-002    -1.7611885416946630E-022
   4.5000000000000012E-002     1.1847682548732566E-022
   4.6100000000000002E-002     5.5654456610636638E-022
   4.7200000000000020E-002     9.8036513294745673E-022
   4.8300000000000010E-002     1.1307955707031760E-021
   4.9400000000000027E-002     7.2989396461587174E-022
   5.0500000000000017E-002    -3.7049298882208187E-022
   5.1600000000000007E-002    -2.0171663633325516E-021
   5.2700000000000025E-002    -3.6445876059338875E-021
   5.3800000000000014E-002    -4.3260144562972002E-021
   5.4900000000000004E-002    -3.0597814798152223E-021
   5.6000000000000022E-002     7.2310340747097804E-022
   5.7100000000000012E-002     6.5750125338756970E-021
   5.8200000000000002E-002     1.2644997832987543E-020
   5.9300000000000019E-002     1.5816968940966313E-020
   6.0400000000000009E-002     1.2607999944354462E-020
   6.1500000000000027E-002     7.9089547170754073E-022
   6.2600000000000017E-002    -1.8698718215166282E-020
   6.3700000000000007E-002    -4.0405725493456524E-020
   6.4800000000000024E-002    -5.4558880565453126E-020
   6.5900000000000014E-002    -4.9590343020558149E-020
   6.7000000000000004E-002    -1.6953010709028806E-020
   6.8100000000000022E-002     4.2951408402768482E-020
   6.9200000000000012E-002     1.1609316573748816E-019
   7.0300000000000029E-002     1.7433618656845045E-019
   7.1400000000000019E-002     1.8154832420829240E-019
   7.2500000000000009E-002     1.0668543416822580E-019
   7.3600000000000027E-002    -5.8916061367152768E-020
   7.4700000000000016E-002    -2.8612617961562788E-019
   7.5800000000000006E-002    -5.0257411485792353E-019
   7.6900000000000024E-002    -6.0439610492501020E-019
   7.8000000000000014E-002    -4.8783919492139275E-019
   7.9100000000000004E-002    -9.5596470080931160E-020
   8.0200000000000021E-002     5.3608370672241861E-019
   8.1300000000000011E-002     1.2498344656518204E-018
   8.2400000000000029E-002     1.7795585370803729E-018
   8.3500000000000019E-002     1.8144697810068092E-018
   8.4600000000000009E-002     1.1093606371753561E-018
   8.5700000000000026E-002    -3.8578437188710818E-019
   8.6800000000000016E-002    -2.4220993291414623E-018
   8.7900000000000006E-002    -4.4260181662369404E-018
   8.9000000000000024E-002    -5.5914972165799925E-018
   9.0100000000000013E-002    -5.0987487426361138E-018
   9.1200000000000003E-002    -2.4222823594545781E-018
   9.2300000000000021E-002     2.3554418903049431E-018
   9.3400000000000011E-002     8.3385480282604185E-018
   9.4500000000000028E-002     1.3832193043298928E-017
   9.5600000000000018E-002     1.6646247661663377E-017
   9.6700000000000008E-002     1.4678910665961523E-017
   9.7800000000000026E-002     6.6736595743774584E-018
   9.8900000000000016E-002    -7.0455657791494765E-018
  0.10000000000000001         -2.4105681141543387E-017
  0.10110000000000002         -4.0114158382205045E-017
  0.10220000000000001         -4.9334371547631002E-017
  0.10330000000000003         -4.6006536379386989E-017
  0.10440000000000002         -2.6130609700828052E-017
  0.10550000000000001          1.0653824388568900E-017
  0.10660000000000003          5.9591570599921445E-017
  0.10770000000000002          1.1029037072205465E-016
  0.10880000000000001          1.4763536862812544E-016
  0.10990000000000003          1.5441234323730623E-016
  0.11100000000000002          1.1556272279346264E-016
  0.11210000000000001          2.3527433272350728E-017
  0.11320000000000002         -1.1638164707317140E-016
  0.11430000000000001         -2.8210295469667559E-016
  0.11540000000000003         -4.3420229296697757E-016
  0.11650000000000002         -5.2011499375977781E-016
  0.11760000000000001         -4.8415809399451386E-016
  0.11870000000000003         -2.8290455411078069E-016
  0.11980000000000002          9.6296252921511398E-017
  0.12090000000000001          6.1783464915107204E-016
  0.12200000000000003          1.1871506417780866E-015
  0.12310000000000001          1.6530950711903632E-015
  0.12420000000000003          1.8283842567743383E-015
  0.12530000000000002          1.5298910012513794E-015
  0.12640000000000001          6.3526441338596494E-016
  0.12750000000000003         -8.5403410467013539E-016
  0.12860000000000002         -2.7592824904317642E-015
  0.12970000000000001         -4.7004697396897659E-015
  0.13080000000000003         -6.1210614177637338E-015
  0.13190000000000002         -6.3746481447265160E-015
  0.13300000000000001         -4.8740181909123742E-015
  0.13410000000000000         -1.2855583815160075E-015
  0.13520000000000004          4.2678102174413141E-015
  0.13630000000000003          1.1049009324130003E-014
  0.13740000000000002          1.7657051165254191E-014
  0.13850000000000001          2.2142560517125514E-014
  0.13960000000000000          2.2323141236864984E-014
  0.14070000000000005          1.6292153171731917E-014
  0.14180000000000004          3.0594409763881354E-015
  0.14290000000000003         -1.6797109567079088E-014
  0.14400000000000002         -4.0640571476675900E-014
  0.14510000000000001         -6.3640013384522535E-014
  0.14620000000000000         -7.9168882299535173E-014
  0.14730000000000004         -7.9842527214695901E-014
  0.14840000000000003         -5.9174402779350706E-014
  0.14950000000000002         -1.3661586458719032E-014
  0.15060000000000001          5.5073987837080572E-014
  0.15170000000000000          1.3862063165266652E-013
  0.15280000000000005          2.2120356647062917E-013
  0.15390000000000004          2.8077763122134593E-013
  0.15500000000000003          2.9216028615105341E-013
  0.15610000000000002          2.3221022779667161E-013
  0.15720000000000001          8.6547875823654649E-014
  0.15830000000000000         -1.4326225694683934E-013
  0.15940000000000004         -4.3367519312007518E-013
  0.16050000000000003         -7.3621664097941665E-013
  0.16160000000000002         -9.7955006740128730E-013
  0.16270000000000001         -1.0780028002945713E-012
  0.16380000000000000         -9.4697795566094047E-013
  0.16490000000000005         -5.2417745358123326E-013
  0.16600000000000004          2.0624764065909122E-013
  0.16710000000000003          1.1913039824710875E-012
  0.16820000000000002          2.2945674894265050E-012
  0.16930000000000001          3.2958885722484079E-012
  0.17040000000000000          3.9109567608792061E-012
  0.17150000000000004          3.8337171717552038E-012
  0.17260000000000003          2.8004043725925904E-012
  0.17370000000000002          6.6845701117084117E-013
  0.17480000000000001         -2.5023935900742816E-012
  0.17590000000000000         -6.3848050391170138E-012
  0.17700000000000005         -1.0355267522495201E-011
  0.17810000000000004         -1.3522687611434245E-011
  0.17920000000000003         -1.4829053459852952E-011
  0.18030000000000002         -1.3226373886545807E-011
  0.18140000000000001         -7.9185415532514192E-012
  0.18250000000000000          1.3618165462823086E-012
  0.18360000000000004          1.4090060026529277E-011
  0.18470000000000003          2.8763001909171479E-011
  0.18580000000000002          4.2858354854257382E-011
  0.18690000000000001          5.3002631717497250E-011
  0.18800000000000000          5.5387421191228900E-011
  0.18910000000000005          4.6434963512990833E-011
  0.19020000000000004          2.3661101500672987E-011
  0.19130000000000003         -1.3376673681750333E-011
  0.19240000000000002         -6.2216193007763800E-011
  0.19350000000000001         -1.1692515108756444E-010
  0.19460000000000005         -1.6805884493831705E-010
  0.19570000000000004         -2.0333780469099555E-010
  0.19680000000000003         -2.0916279866675297E-010
  0.19790000000000002         -1.7295435617788402E-010
  0.19900000000000001         -8.6131638745843858E-011
  0.20010000000000000          5.2648253646794939E-011
  0.20120000000000005          2.3455312640909612E-010
  0.20230000000000004          4.3863712058702210E-010
  0.20340000000000003          6.3163837672586572E-010
  0.20450000000000002          7.7016062777833708E-010
  0.20560000000000000          8.0563987861796587E-010
  0.20670000000000005          6.9209085834337007E-010
  0.20780000000000004          3.9608774823024380E-010
  0.20890000000000003         -9.2180263641567424E-011
