 -0.12000000000000000          0.0000000000000000
 -0.11889999999999999          0.0000000000000000
 -0.11780000000000000          0.0000000000000000
 -0.11670000000000000          0.0000000000000000
 -0.11559999999999999          0.0000000000000000
 -0.11449999999999999          0.0000000000000000
 -0.11340000000000000          0.0000000000000000
 -0.11230000000000000          0.0000000000000000
 -0.11119999999999999          0.0000000000000000
 -0.11009999999999999          0.0000000000000000
 -0.10900000000000000          0.0000000000000000
 -0.10790000000000000          0.0000000000000000
 -0.10679999999999999          0.0000000000000000
 -0.10569999999999999          0.0000000000000000
 -0.10460000000000000          5.6200767773739593E-206
 -0.10349999999999999         -1.1187478056407739E-179
 -0.10239999999999999          2.8256318730861267E-154
 -0.10130000000000000          1.7801938065588212E-129
 -0.10020000000000000         -3.8894278928883660E-104
  -9.9099999999999994E-002     7.8657199001000184E-080
  -9.7999999999999990E-002     4.8176651307161475E-055
  -9.6899999999999986E-002     1.0643910597672142E-053
  -9.5799999999999996E-002     1.0910459408436229E-052
  -9.4699999999999993E-002     6.6248279429099227E-052
  -9.3599999999999989E-002     2.4134616166798095E-051
  -9.2499999999999999E-002     3.4765371890781605E-051
  -9.1399999999999995E-002    -1.5382530596572383E-050
  -9.0299999999999991E-002    -1.1654014445450996E-049
  -8.9200000000000002E-002    -3.5085009262753820E-049
  -8.8099999999999984E-002    -3.0781629004833013E-049
  -8.6999999999999994E-002     2.0015339653215374E-048
  -8.5899999999999990E-002     1.0308109872417826E-047
  -8.4799999999999986E-002     2.2150050090713669E-047
  -8.3699999999999997E-002     2.1446788228575487E-048
  -8.2599999999999993E-002    -1.4866602587835654E-046
  -8.1499999999999989E-002    -5.1662210903789527E-046
  -8.0399999999999999E-002    -7.5952145776680288E-046
  -7.9299999999999995E-002     6.8352563111408265E-046
  -7.8199999999999992E-002     6.5824690215237611E-045
  -7.7100000000000002E-002     1.6664210305612616E-044
  -7.5999999999999984E-002     1.5605026917771922E-044
  -7.4899999999999994E-002    -3.9450762122150499E-044
  -7.3799999999999991E-002    -1.9566295463834260E-043
  -7.2699999999999987E-002    -3.8260508760459639E-043
  -7.1599999999999997E-002    -1.8666500616037231E-043
  -7.0499999999999993E-002     1.2188425402630998E-042
  -6.9399999999999989E-002     4.2925789371266487E-042
  -6.8300000000000000E-002     6.7666136584287737E-042
  -6.7199999999999996E-002     6.4067927979830546E-043
  -6.6099999999999992E-002    -2.6251420195823529E-041
  -6.5000000000000002E-002    -7.4465384683149257E-041
  -6.3899999999999985E-002    -9.8324227563768079E-041
  -6.2799999999999995E-002     2.3653552005158036E-041
  -6.1699999999999991E-002     4.3702531526138407E-040
  -6.0599999999999994E-002     1.0741666618932298E-039
  -5.9499999999999990E-002     1.2399046033280230E-039
  -5.8399999999999994E-002    -6.0262707098870867E-040
  -5.7299999999999990E-002    -5.9516392537845049E-039
  -5.6199999999999986E-002    -1.3363445658037946E-038
  -5.5099999999999996E-002    -1.4189011089232234E-038
  -5.3999999999999992E-002     8.4681887037165431E-039
  -5.2899999999999989E-002     6.8638312045039115E-038
  -5.1799999999999985E-002     1.4706515739801707E-037
  -5.0699999999999995E-002     1.5186064367830101E-037
  -4.9599999999999991E-002    -8.3328964479727080E-038
  -4.8499999999999988E-002    -6.8440396135047375E-037
  -4.7399999999999998E-002    -1.4547650871605995E-036
  -4.6299999999999994E-002    -1.5386216958599924E-036
  -4.5199999999999990E-002     5.6008741688034373E-037
  -4.4099999999999986E-002     5.9605391668696889E-036
  -4.2999999999999997E-002     1.3041439782580841E-035
  -4.1899999999999993E-002     1.4709631983062104E-035
  -4.0799999999999989E-002    -1.4585089179526540E-036
  -3.9699999999999985E-002    -4.5342152767742103E-035
  -3.8599999999999995E-002    -1.0615084221157385E-034
  -3.7499999999999992E-002    -1.3122430987920873E-034
  -3.6399999999999988E-002    -2.4978336311732674E-035
  -3.5299999999999984E-002     2.9734882070128724E-034
  -3.4199999999999994E-002     7.8183816752281388E-034
  -3.3099999999999991E-002     1.0788137748242251E-033
  -3.1999999999999987E-002     5.0848713050463213E-034
  -3.0899999999999997E-002    -1.6172543219862085E-033
  -2.9799999999999993E-002    -5.1656873659994368E-033
  -2.8699999999999989E-002    -8.0825574129742834E-033
  -2.7599999999999986E-002    -5.9274676514188350E-033
  -2.6499999999999996E-002     6.4747934689413214E-033
  -2.5399999999999992E-002     3.0120005629191863E-032
  -2.4299999999999988E-002     5.4615441590393702E-032
  -2.3199999999999985E-002     5.3591633562142855E-032
  -2.2099999999999995E-002    -8.5022199780864745E-033
  -2.0999999999999991E-002    -1.5009268770312171E-031
  -1.9899999999999987E-002    -3.2888036637609717E-031
  -1.8799999999999983E-002    -4.0469705492757971E-031
  -1.7699999999999994E-002    -1.5678835451737371E-031
  -1.6599999999999990E-002     5.9170957728888626E-031
  -1.5499999999999986E-002     1.7332679455755556E-030
  -1.4399999999999996E-002     2.6184954358090787E-030
  -1.3299999999999992E-002     2.0212308923096966E-030
  -1.2199999999999989E-002    -1.3629229763069467E-030
  -1.1099999999999985E-002    -7.7249150881303060E-030
  -9.9999999999999950E-003    -1.4585431882310277E-029
  -8.8999999999999913E-003    -1.5943858375928545E-029
  -7.7999999999999875E-003    -3.7821229764778761E-030
  -6.6999999999999837E-003     2.6751045785277945E-029
  -5.5999999999999939E-003     6.9085894468505506E-029
  -4.4999999999999901E-003     9.8058577894994267E-029
  -3.3999999999999864E-003     7.1620287622811342E-029
  -2.2999999999999826E-003    -5.0218580633356078E-029
  -1.1999999999999927E-003    -2.6723063584092762E-028
  -9.9999999999988987E-005    -4.9459228560227164E-028
   1.0000000000000148E-003    -5.4464605269543442E-028
   2.1000000000000185E-003    -1.7856190836753615E-028
   3.2000000000000084E-003     7.4299464000064855E-028
   4.3000000000000121E-003     2.0356780030866230E-027
   5.4000000000000159E-003     3.0075769944647877E-027
   6.5000000000000058E-003     2.5107286430186316E-027
   7.6000000000000234E-003    -5.7726477663806658E-028
   8.7000000000000133E-003    -6.4080049640821753E-027
   9.8000000000000032E-003    -1.3064879587123287E-026
   1.0900000000000021E-002    -1.6049151613299697E-026
   1.2000000000000011E-002    -9.3232463995153555E-027
   1.3100000000000001E-002     1.1425915444207470E-026
   1.4200000000000018E-002     4.3761252157137066E-026
   1.5300000000000008E-002     7.3959374368741207E-026
   1.6400000000000026E-002     7.6904143202523944E-026
   1.7500000000000016E-002     2.4545276509210574E-026
   1.8600000000000005E-002    -9.5706251379859277E-026
   1.9700000000000023E-002    -2.5750083575895544E-025
   2.0800000000000013E-002    -3.7988474582752836E-025
   2.1900000000000003E-002    -3.3780183484614639E-025
   2.3000000000000020E-002    -1.3824619380837057E-026
   2.4100000000000010E-002     6.1080119430166352E-025
   2.5200000000000000E-002     1.3574855000871012E-024
   2.6300000000000018E-002     1.8074890053401066E-024
   2.7400000000000008E-002     1.3914891638690100E-024
   2.8500000000000025E-002    -3.4192896654701731E-025
   2.9600000000000015E-002    -3.3184462654852212E-024
   3.0700000000000005E-002    -6.5575000983339075E-024
   3.1800000000000023E-002    -8.0987230850541838E-024
   3.2900000000000013E-002    -5.5266146786240694E-024
   3.4000000000000002E-002     2.7895916707830222E-024
   3.5100000000000020E-002     1.6007749225741571E-023
   3.6200000000000010E-002     2.9438895942641601E-023
   3.7300000000000028E-002     3.4615815084094303E-023
   3.8400000000000017E-002     2.1836424250520687E-023
   3.9500000000000007E-002    -1.4612273679672711E-023
   4.0600000000000025E-002    -6.9893123077525853E-023
   4.1700000000000015E-002    -1.2386405744041195E-022
   4.2800000000000005E-002    -1.4237065233498464E-022
   4.3900000000000022E-002    -8.8059427084795968E-023
   4.5000000000000012E-002     5.9238412743608757E-023
   4.6100000000000002E-002     2.7827228305317557E-022
   4.7200000000000020E-002     4.9018256647380501E-022
   4.8300000000000010E-002     5.6539778535176526E-022
   4.9400000000000027E-002     3.6494698230818404E-022
   5.0500000000000017E-002    -1.8524649441081202E-022
   5.1600000000000007E-002    -1.0085831816662062E-021
   5.2700000000000025E-002    -1.8222938029671800E-021
   5.3800000000000014E-002    -2.1630072281492189E-021
   5.4900000000000004E-002    -1.5298907399085335E-021
   5.6000000000000022E-002     3.6155170373455577E-022
   5.7100000000000012E-002     3.2875062669373926E-021
   5.8200000000000002E-002     6.3224989164943402E-021
   5.9300000000000019E-002     7.9084844704851067E-021
   6.0400000000000009E-002     6.3039999721804290E-021
   6.1500000000000027E-002     3.9544773585736493E-022
   6.2600000000000017E-002    -9.3493591075807244E-021
   6.3700000000000007E-002    -2.0202862746728948E-020
   6.4800000000000024E-002    -2.7279440282731889E-020
   6.5900000000000014E-002    -2.4795171510289207E-020
   6.7000000000000004E-002    -8.4765053545272122E-021
   6.8100000000000022E-002     2.1475704201373356E-020
   6.9200000000000012E-002     5.8046582868741373E-020
   7.0300000000000029E-002     8.7168093284236635E-020
   7.1400000000000019E-002     9.0774162104174364E-020
   7.2500000000000009E-002     5.3342717084154111E-020
   7.3600000000000027E-002    -2.9458030683533743E-020
   7.4700000000000016E-002    -1.4306308980778823E-019
   7.5800000000000006E-002    -2.5128705742897361E-019
   7.6900000000000024E-002    -3.0219805246256923E-019
   7.8000000000000014E-002    -2.4391959746081227E-019
   7.9100000000000004E-002    -4.7798235040610025E-020
   8.0200000000000021E-002     2.6804185336108340E-019
   8.1300000000000011E-002     6.2491723282586552E-019
   8.2400000000000029E-002     8.8977926854028219E-019
   8.3500000000000019E-002     9.0723489050367114E-019
   8.4600000000000009E-002     5.5468031858809037E-019
   8.5700000000000026E-002    -1.9289218594309139E-019
   8.6800000000000016E-002    -1.2110496645703783E-018
   8.7900000000000006E-002    -2.2130090831184178E-018
   8.9000000000000024E-002    -2.7957486082904053E-018
   9.0100000000000013E-002    -2.5493743713189852E-018
   9.1200000000000003E-002    -1.2111411797286260E-018
   9.2300000000000021E-002     1.1777209451510386E-018
   9.3400000000000011E-002     4.1692740141291669E-018
   9.4500000000000028E-002     6.9160965216493669E-018
   9.5600000000000018E-002     8.3231238308329935E-018
   9.6700000000000008E-002     7.3394553329836290E-018
   9.7800000000000026E-002     3.3368297871928445E-018
   9.8900000000000016E-002    -3.5227828895702555E-018
  0.10000000000000001         -1.2052840570768219E-017
  0.10110000000000002         -2.0057079191101684E-017
  0.10220000000000001         -2.4667185773818730E-017
  0.10330000000000003         -2.3003268189701485E-017
  0.10440000000000002         -1.3065304850426225E-017
  0.10550000000000001          5.3269121942701798E-018
  0.10660000000000003          2.9795785299948101E-017
  0.10770000000000002          5.5145185361021113E-017
  0.10880000000000001          7.3817684314067688E-017
  0.10990000000000003          7.7206171618672604E-017
  0.11100000000000002          5.7781361396765588E-017
  0.11210000000000001          1.1763716636220249E-017
  0.11320000000000002         -5.8190823536539430E-017
  0.11430000000000001         -1.4105147734830380E-016
  0.11540000000000003         -2.1710114648348302E-016
  0.11650000000000002         -2.6005749687992578E-016
  0.11760000000000001         -2.4207904699734434E-016
  0.11870000000000003         -1.4145227705552438E-016
  0.11980000000000002          4.8148126460594648E-017
  0.12090000000000001          3.0891732457538427E-016
  0.12200000000000003          5.9357532088895072E-016
  0.12310000000000001          8.2654753559520250E-016
  0.12420000000000003          9.1419212838734840E-016
  0.12530000000000002          7.6494550062604569E-016
  0.12640000000000001          3.1763220669348887E-016
  0.12750000000000003         -4.2701705233449306E-016
  0.12860000000000002         -1.3796412452153770E-015
  0.12970000000000001         -2.3502348698446250E-015
  0.13080000000000003         -3.0605307088820420E-015
  0.13190000000000002         -3.1873240723640094E-015
  0.13300000000000001         -2.4370090954575522E-015
  0.13410000000000000         -6.4277919075986052E-016
  0.13520000000000004          2.1339051087186190E-015
  0.13630000000000003          5.5245046620632756E-015
  0.13740000000000002          8.8285255826263001E-015
  0.13850000000000001          1.1071280258563519E-014
  0.13960000000000000          1.1161570618435273E-014
  0.14070000000000005          8.1460765858708621E-015
  0.14180000000000004          1.5297204882006681E-015
  0.14290000000000003         -8.3985547835323100E-015
  0.14400000000000002         -2.0320285738331765E-014
  0.14510000000000001         -3.1820006692258251E-014
  0.14620000000000000         -3.9584441149769884E-014
  0.14730000000000004         -3.9921263607357196E-014
  0.14840000000000003         -2.9587201389692064E-014
  0.14950000000000002         -6.8307932293824688E-015
  0.15060000000000001          2.7536993918514452E-014
  0.15170000000000000          6.9310315826310023E-014
  0.15280000000000005          1.1060178323530098E-013
  0.15390000000000004          1.4038881561067658E-013
  0.15500000000000003          1.4608014307555382E-013
  0.15610000000000002          1.1610511389838929E-013
  0.15720000000000001          4.3273937911904715E-014
  0.15830000000000000         -7.1631128473327756E-014
  0.15940000000000004         -2.1683759655994798E-013
  0.16050000000000003         -3.6810832048964436E-013
  0.16160000000000002         -4.8977503370063194E-013
  0.16270000000000001         -5.3900140014735056E-013
  0.16380000000000000         -4.7348897783062715E-013
  0.16490000000000005         -2.6208872679086488E-013
  0.16600000000000004          1.0312382032922893E-013
  0.16710000000000003          5.9565199123520668E-013
  0.16820000000000002          1.1472837447129676E-012
  0.16930000000000001          1.6479442861240596E-012
  0.17040000000000000          1.9554783804396887E-012
  0.17150000000000004          1.9168585858779893E-012
  0.17260000000000003          1.4002021862970153E-012
  0.17370000000000002          3.3422850558644083E-013
  0.17480000000000001         -1.2511967950359364E-012
  0.17590000000000000         -3.1924025195573211E-012
  0.17700000000000005         -5.1776337612467072E-012
  0.17810000000000004         -6.7613438057168364E-012
  0.17920000000000003         -7.4145267299271030E-012
  0.18030000000000002         -6.6131869432746620E-012
  0.18140000000000001         -3.9592707766286508E-012
  0.18250000000000000          6.8090827313721106E-013
  0.18360000000000004          7.0450300132601628E-012
  0.18470000000000003          1.4381500954581503E-011
  0.18580000000000002          2.1429177427125705E-011
  0.18690000000000001          2.6501315858748017E-011
  0.18800000000000000          2.7693710595617274E-011
  0.18910000000000005          2.3217481756502393E-011
  0.19020000000000004          1.1830550750347740E-011
  0.19130000000000003         -6.6883368408604002E-012
  0.19240000000000002         -3.1108096503865389E-011
  0.19350000000000001         -5.8462575543766735E-011
  0.19460000000000005         -8.4029422469147642E-011
  0.19570000000000004         -1.0166890234549544E-010
  0.19680000000000003         -1.0458139933338641E-010
  0.19790000000000002         -8.6477178088966733E-011
  0.19900000000000001         -4.3065819372961976E-011
  0.20010000000000000          2.6324126823344391E-011
  0.20120000000000005          1.1727656320448765E-010
  0.20230000000000004          2.1931856029345253E-010
  0.20340000000000003          3.1581918836288835E-010
  0.20450000000000002          3.8508031388915174E-010
  0.20560000000000000          4.0281993930900734E-010
  0.20670000000000005          3.4604542917176103E-010
  0.20780000000000004          1.9804387411525342E-010
  0.20890000000000003         -4.6090131820601849E-011
