 -0.12000000000000000          1.5028090477241538E-003
 -0.11889999999999999          4.3055915930033800E-003
 -0.11780000000000000          6.3077589927699818E-003
 -0.11670000000000000          7.0335042775873857E-003
 -0.11559999999999999          6.6668616930911162E-003
 -0.11449999999999999          5.9535849200364963E-003
 -0.11340000000000000          5.8480317850258855E-003
 -0.11230000000000000          7.0847672688555963E-003
 -0.11119999999999999          9.8857228600293372E-003
 -0.11009999999999999          1.3939465845143264E-002
 -0.10900000000000000          1.8648960484875736E-002
 -0.10790000000000000          2.3510289663846457E-002
 -0.10679999999999999          2.8424802636769452E-002
 -0.10569999999999999          3.3789794813706232E-002
 -0.10460000000000000          4.0333781606365852E-002
 -0.10349999999999999          4.8797534094453747E-002
 -0.10239999999999999          5.9640861960140533E-002
 -0.10130000000000000          7.2937427095942017E-002
 -0.10020000000000000          8.8516183119867684E-002
  -9.9099999999999994E-002    0.10627378213242593
  -9.7999999999999990E-002    0.12648863983943612
  -9.6899999999999986E-002    0.14996401114628910
  -9.5799999999999996E-002    0.17791667786714632
  -9.4699999999999993E-002    0.21166326647025818
  -9.3599999999999989E-002    0.25226675881193167
  -9.2499999999999999E-002    0.30033273954206546
  -9.1399999999999995E-002    0.35607268506410122
  -9.0299999999999991E-002    0.41961602354334293
  -8.9200000000000002E-002    0.49142303743228649
  -8.8099999999999984E-002    0.57259402317196695
  -8.6999999999999994E-002    0.66491674674314516
  -8.5899999999999990E-002    0.77062174100476055
  -8.4799999999999986E-002    0.89195942656016203
  -8.3699999999999997E-002     1.0308013692962745
  -8.2599999999999993E-002     1.1884553302450074
  -8.1499999999999989E-002     1.3657762971116709
  -8.0399999999999999E-002     1.5635075369511651
  -7.9299999999999995E-002     1.7826714044444933
  -7.8199999999999992E-002     2.0248062508537941
  -7.7100000000000002E-002     2.2919240833752275
  -7.5999999999999984E-002     2.5862029681960710
  -7.4899999999999994E-002     2.9095575193006127
  -7.3799999999999991E-002     3.2632851126217437
  -7.2699999999999987E-002     3.6479386376354181
  -7.1599999999999997E-002     4.0634543834646246
  -7.0499999999999993E-002     4.5094298606205498
  -6.9399999999999989E-002     4.9853697915467068
  -6.8300000000000000E-002     5.4907376729144906
  -6.7199999999999996E-002     6.0247540047287655
  -6.6099999999999992E-002     6.5860158398339692
  -6.5000000000000002E-002     7.1721061998837046
  -6.3899999999999985E-002     7.7793677136929871
  -6.2799999999999995E-002     8.4029301126874554
  -6.1699999999999991E-002     9.0369504756468046
  -6.0599999999999994E-002     9.6749165776567594
  -5.9499999999999990E-002     10.309833939261866
  -5.8399999999999994E-002     10.934181893952454
  -5.7299999999999990E-002     11.539649989431878
  -5.6199999999999986E-002     12.116788393758231
  -5.5099999999999996E-002     12.654761551958696
  -5.3999999999999992E-002     13.141354262422643
  -5.2899999999999989E-002     13.563263809218061
  -5.1799999999999985E-002     13.906579610458833
  -5.0699999999999995E-002     14.157270232720922
  -4.9599999999999991E-002     14.301507759088098
  -4.8499999999999988E-002     14.325755586001746
  -4.7399999999999998E-002     14.216678171003155
  -4.6299999999999994E-002     13.961032241596630
  -4.5199999999999990E-002     13.545717187233940
  -4.4099999999999986E-002     12.958089035913924
  -4.2999999999999997E-002     12.186515490183522
  -4.1899999999999993E-002     11.221033805045005
  -4.0799999999999989E-002     10.053927232045464
  -3.9699999999999985E-002     8.6800815249172345
  -3.8599999999999995E-002     7.0970956280472937
  -3.7499999999999992E-002     5.3052412913221749
  -3.6399999999999988E-002     3.3074327498506939
  -3.5299999999999984E-002     1.1093461443224433
  -3.4199999999999994E-002    -1.2802690013741929
  -3.3099999999999991E-002    -3.8491661841129523
  -3.1999999999999987E-002    -6.5812298022585782
  -3.0899999999999997E-002    -9.4563199201729979
  -2.9799999999999993E-002    -12.450418383193901
  -2.8699999999999989E-002    -15.536038661754136
  -2.7599999999999986E-002    -18.682761022975896
  -2.6499999999999996E-002    -21.857726248046319
  -2.5399999999999992E-002    -25.025978707082292
  -2.4299999999999988E-002    -28.150662498607936
  -2.3199999999999985E-002    -31.193183654528873
  -2.2099999999999995E-002    -34.113500339676385
  -2.0999999999999991E-002    -36.870665973928624
  -1.9899999999999987E-002    -39.423645787176881
  -1.8799999999999983E-002    -41.732308302849297
  -1.7699999999999994E-002    -43.758419536238357
  -1.6599999999999990E-002    -45.466475669898685
  -1.5499999999999986E-002    -46.824294184919118
  -1.4399999999999996E-002    -47.803399846653861
  -1.3299999999999992E-002    -48.379330837066838
  -1.2199999999999989E-002    -48.532006928550558
  -1.1099999999999985E-002    -48.246238766564524
  -9.9999999999999950E-003    -47.512348726068041
  -8.8999999999999913E-003    -46.326776160012017
  -7.7999999999999875E-003    -44.692503668936354
  -6.6999999999999837E-003    -42.619184801290288
  -5.5999999999999939E-003    -40.122954789860437
  -4.4999999999999901E-003    -37.226012973438174
  -3.3999999999999864E-003    -33.956124627039259
  -2.2999999999999826E-003    -30.346172549539233
  -1.1999999999999927E-003    -26.433806065603484
  -9.9999999999988987E-005    -22.261131627758562
   1.0000000000000148E-003    -17.874319638838823
   2.1000000000000185E-003    -13.323003082795625
   3.2000000000000084E-003    -8.6594149916962682
   4.3000000000000121E-003    -3.9373173174435787
   5.4000000000000159E-003    0.78914027724345992
   6.5000000000000058E-003     5.4664702026662182
   7.6000000000000234E-003     10.042694708813316
   8.7000000000000133E-003     14.467979151936026
   9.8000000000000032E-003     18.695133274941156
   1.0900000000000021E-002     22.680106953705444
   1.2000000000000011E-002     26.382578591343304
   1.3100000000000001E-002     29.766649951842741
   1.4200000000000018E-002     32.801565325005065
   1.5300000000000008E-002     35.462315476177338
   1.6400000000000026E-002     37.729997596169703
   1.7500000000000016E-002     39.591876033546413
   1.8600000000000005E-002     41.041187680516003
   1.9700000000000023E-002     42.076810808228615
   2.0800000000000013E-002     42.702930345376259
   2.1900000000000003E-002     42.928781065902662
   2.3000000000000020E-002     42.768461485320756
   2.4100000000000010E-002     42.240732457409713
   2.5200000000000000E-002     41.368686557447504
   2.6300000000000018E-002     40.179211481947426
   2.7400000000000008E-002     38.702253284089380
   2.8500000000000025E-002     36.969970478723766
   2.9600000000000015E-002     35.015914134557107
   3.0700000000000005E-002     32.874349778559889
   3.1800000000000023E-002     30.579764655462217
   3.2900000000000013E-002     28.166515894694584
   3.4000000000000002E-002     25.668516192693783
   3.5100000000000020E-002     23.118852971301642
   3.6200000000000010E-002     20.549293639644379
   3.7300000000000028E-002     17.989713274296573
   3.8400000000000017E-002     15.467548018188745
   3.9500000000000007E-002     13.007393134887888
   4.0600000000000025E-002     10.630820909538533
   4.1700000000000015E-002     8.3564127496358811
   4.2800000000000005E-002     6.1999227169806659
   4.3900000000000022E-002     4.1744546089348917
   4.5000000000000012E-002     2.2905579799076303
   4.6100000000000002E-002    0.55621671009660223
   4.7200000000000020E-002    -1.0232189670547851
   4.8300000000000010E-002    -2.4450592761568433
   4.9400000000000027E-002    -3.7091697167051425
   5.0500000000000017E-002    -4.8176988592156222
   5.1600000000000007E-002    -5.7746792623505421
   5.2700000000000025E-002    -6.5855973696991139
   5.3800000000000014E-002    -7.2570364632704587
   5.4900000000000004E-002    -7.7964542700781330
   5.6000000000000022E-002    -8.2120863813024130
   5.7100000000000012E-002    -8.5129047516713641
   5.8200000000000002E-002    -8.7085384929223011
   5.9300000000000019E-002    -8.8090921333822436
   6.0400000000000009E-002    -8.8248587650655406
   6.1500000000000027E-002    -8.7659890080894662
   6.2600000000000017E-002    -8.6422084323510830
   6.3700000000000007E-002    -8.4626598752856150
   6.4800000000000024E-002    -8.2358917822649840
   6.5900000000000014E-002    -7.9699480430540088
   6.7000000000000004E-002    -7.6724724600517682
   6.8100000000000022E-002    -7.3507431861117993
   6.9200000000000012E-002    -7.0115973520520365
   7.0300000000000029E-002    -6.6612700609802822
   7.1400000000000019E-002    -6.3052220280280880
   7.2500000000000009E-002    -5.9480410890715829
   7.3600000000000027E-002    -5.5934696670709014
   7.4700000000000016E-002    -5.2445506460828399
   7.5800000000000006E-002    -4.9038286621579381
   7.6900000000000024E-002    -4.5735205409846786
   7.8000000000000014E-002    -4.2555885814849681
   7.9100000000000004E-002    -3.9517025568893183
   8.0200000000000021E-002    -3.6631336069335569
   8.1300000000000011E-002    -3.3906566316376971
   8.2400000000000029E-002    -3.1345311989602238
   8.3500000000000019E-002    -2.8945888754212770
   8.4600000000000009E-002    -2.6703996730914192
   8.5700000000000026E-002    -2.4614503921467086
   8.6800000000000016E-002    -2.2672628659822238
   8.7900000000000006E-002    -2.0874119015140606
   8.9000000000000024E-002    -1.9214538278396298
   9.0100000000000013E-002    -1.7688204416318545
   9.1200000000000003E-002    -1.6287476298232675
   9.2300000000000021E-002    -1.5002865294777008
   9.3400000000000011E-002    -1.3823997358887454
   9.4500000000000028E-002    -1.2740996745647946
   9.5600000000000018E-002    -1.1745640755965023
   9.6700000000000008E-002    -1.0831753094933738
   9.7800000000000026E-002   -0.99946927567117894
   9.8900000000000016E-002   -0.92302500322620074
  0.10000000000000001        -0.85335472848091332
  0.10110000000000002        -0.78985175417818432
  0.10220000000000001        -0.73182188405628057
  0.10330000000000003        -0.67858044664902040
  0.10440000000000002        -0.62956348359678072
  0.10550000000000001        -0.58439533827856027
  0.10660000000000003        -0.54287816010515955
  0.10770000000000002        -0.50490911688595230
  0.10880000000000001        -0.47036745526238993
  0.10990000000000003        -0.43902761303776588
  0.11100000000000002        -0.41053985102776303
  0.11210000000000001        -0.38448463460459203
  0.11320000000000002        -0.36046972218563278
  0.11430000000000001        -0.33821855627751674
  0.11540000000000003        -0.31760488570884876
  0.11650000000000002        -0.29861750192633829
  0.11760000000000001        -0.28127511583625298
  0.11870000000000003        -0.26553614423431360
  0.11980000000000002        -0.25124931889044327
  0.12090000000000001        -0.23816877051313343
  0.12200000000000003        -0.22602366151343103
  0.12310000000000001        -0.21460499285712076
  0.12420000000000003        -0.20382464778708781
  0.12530000000000002        -0.19371724755694833
  0.12640000000000001        -0.18438533020776599
  0.12750000000000003        -0.17591702765073522
  0.12860000000000002        -0.16831829114045482
  0.12970000000000001        -0.16149280547920769
  0.13080000000000003        -0.15527732332843477
  0.13190000000000002        -0.14951173081202401
  0.13300000000000001        -0.14410626882538907
  0.13410000000000000        -0.13907114820333122
  0.13520000000000004        -0.13449417402831740
  0.13630000000000003        -0.13047895014863839
  0.13740000000000002        -0.12707584327359461
  0.13850000000000001        -0.12424046735697351
  0.13960000000000000        -0.12183933384239805
  0.14070000000000005        -0.11969784428371946
  0.14180000000000004        -0.11766475038081974
  0.14290000000000003        -0.11566011056519945
  0.14400000000000002        -0.11368366617686557
  0.14510000000000001        -0.11178172709975363
  0.14620000000000000        -0.10999188330121769
  0.14730000000000004        -0.10829535878391430
  0.14840000000000003        -0.10660170748909835
  0.14950000000000002        -0.10477306854166561
  0.15060000000000001        -0.10267475467944157
  0.15170000000000000        -0.10022605754898324
  0.15280000000000005         -9.7426045372000197E-002
  0.15390000000000004         -9.4342756850151990E-002
  0.15500000000000003         -9.1073084385295169E-002
  0.15610000000000002         -8.7694967226204817E-002
  0.15720000000000001         -8.4236214545038005E-002
  0.15830000000000000         -8.0674515396250521E-002
  0.15940000000000004         -7.6966511759115327E-002
  0.16050000000000003         -7.3089024646474654E-002
  0.16160000000000002         -6.9070072862669599E-002
  0.16270000000000001         -6.4993549610786003E-002
  0.16380000000000000         -6.0975604295016861E-002
  0.16490000000000005         -5.7125313296049050E-002
  0.16600000000000004         -5.3509687135981657E-002
  0.16710000000000003         -5.0139980540396610E-002
  0.16820000000000002         -4.6984714666434252E-002
  0.16930000000000001         -4.4001077706012207E-002
  0.17040000000000000         -4.1167543813605080E-002
  0.17150000000000004         -3.8500894300384093E-002
  0.17260000000000003         -3.6049713335538310E-002
  0.17370000000000002         -3.3868916276339540E-002
  0.17480000000000001         -3.1989419871097963E-002
  0.17590000000000000         -3.0398968939512206E-002
  0.17700000000000005         -2.9043809533627580E-002
  0.17810000000000004         -2.7849969920074623E-002
  0.17920000000000003         -2.6753147800226178E-002
  0.18030000000000002         -2.5722470810649597E-002
  0.18140000000000001         -2.4767237904710263E-002
  0.18250000000000000         -2.3924783293886417E-002
  0.18360000000000004         -2.3236970884047387E-002
  0.18470000000000003         -2.2727798199819457E-002
  0.18580000000000002         -2.2392964124115684E-002
  0.18690000000000001         -2.2205319656526081E-002
  0.18800000000000000         -2.2131766630213236E-002
  0.18910000000000005         -2.2151737234420914E-002
  0.19020000000000004         -2.2267420478720060E-002
  0.19130000000000003         -2.2500965523690186E-002
  0.19240000000000002         -2.2881000826977291E-002
  0.19350000000000001         -2.3426139673320131E-002
  0.19460000000000005         -2.4134068987419259E-002
  0.19570000000000004         -2.4981186120318431E-002
  0.19680000000000003         -2.5931791260789559E-002
  0.19790000000000002         -2.6950858926295038E-002
  0.19900000000000001         -2.8012969781880098E-002
  0.20010000000000000         -2.9102625306160843E-002
  0.20120000000000005         -3.0206247485125771E-002
  0.20230000000000004         -3.1300846480070012E-002
  0.20340000000000003         -3.2346149995796623E-002
  0.20450000000000002         -3.3285098577471098E-002
  0.20560000000000000         -3.4053174245252130E-002
  0.20670000000000005         -3.4592469614663515E-002
  0.20780000000000004         -3.4864083673419893E-002
  0.20890000000000003         -3.4853429745014437E-002
