 -0.12000000000000000          0.0000000000000000
 -0.11889999999999999          0.0000000000000000
 -0.11780000000000000          0.0000000000000000
 -0.11670000000000000          0.0000000000000000
 -0.11559999999999999          0.0000000000000000
 -0.11449999999999999          0.0000000000000000
 -0.11340000000000000          5.3816274784673974E-080
 -0.11230000000000000         -1.9375317336418951E-041
 -0.11119999999999999          2.5508002662943928E-016
 -0.11009999999999999          2.5014095011464076E-015
 -0.10900000000000000          1.1117992846069648E-014
 -0.10790000000000000          2.6260782166069639E-014
 -0.10679999999999999          1.7753337132366274E-014
 -0.10569999999999999         -1.0188207293225462E-013
 -0.10460000000000000         -4.1114067818405005E-013
 -0.10349999999999999         -6.9440740189546436E-013
 -0.10239999999999999         -4.0982065901233737E-014
 -0.10130000000000000          2.9813725222731204E-012
 -0.10020000000000000          8.4483514215042649E-012
  -9.9099999999999994E-002     1.1351301383652392E-011
  -9.7999999999999990E-002    -7.2725818384730444E-013
  -9.6899999999999986E-002    -4.1138825275267161E-011
  -9.5799999999999996E-002    -1.0256178255661193E-010
  -9.4699999999999993E-002    -1.2749184666902227E-010
  -9.3599999999999989E-002    -3.3100256178685610E-012
  -9.2499999999999999E-002     3.6833003719821781E-010
  -9.1399999999999995E-002     9.0566331800493420E-010
  -9.0299999999999991E-002     1.1614429911732276E-009
  -8.9200000000000002E-002     3.3314948160403064E-010
  -8.8099999999999984E-002    -2.2624685609435812E-009
  -8.6999999999999994E-002    -6.1861612514590044E-009
  -8.5899999999999990E-002    -8.8181630682418503E-009
  -8.4799999999999986E-002    -5.3735872624492748E-009
  -8.3699999999999997E-002     8.6986008889295681E-009
  -8.2599999999999993E-002     3.2628707773495284E-008
  -8.1499999999999989E-002     5.4668352118889468E-008
  -8.0399999999999999E-002     5.0846570013873050E-008
  -7.9299999999999995E-002    -5.9068718024283964E-009
  -7.8199999999999992E-002    -1.2400382925063641E-007
  -7.7100000000000002E-002    -2.6584194423220420E-007
  -7.5999999999999984E-002    -3.3356347662850177E-007
  -7.4899999999999994E-002    -1.9258369065635473E-007
  -7.3799999999999991E-002     2.5218870416990670E-007
  -7.2699999999999987E-002     9.4278578095479140E-007
  -7.1599999999999997E-002     1.5753474037267366E-006
  -7.0499999999999993E-002     1.6171905946312497E-006
  -6.9399999999999989E-002     5.0967504216785573E-007
  -6.8300000000000000E-002    -1.9471471863838540E-006
  -6.7199999999999996E-002    -5.1667174766304266E-006
  -6.6099999999999992E-002    -7.5732999388700769E-006
  -6.5000000000000002E-002    -6.9230101309283173E-006
  -6.3899999999999985E-002    -1.2937461094385793E-006
  -6.2799999999999995E-002     9.4574159321976493E-006
  -6.1699999999999991E-002     2.2397108092437960E-005
  -6.0599999999999994E-002     3.1283406105956357E-005
  -5.9499999999999990E-002     2.8173583852342157E-005
  -5.8399999999999994E-002     6.9767516731735877E-006
  -5.7299999999999990E-002    -3.2024131278786585E-005
  -5.6199999999999986E-002    -7.8707234325129752E-005
  -5.5099999999999996E-002    -1.1313090235891587E-004
  -5.3999999999999992E-002    -1.1070350256601688E-004
  -5.2899999999999989E-002    -5.2189185893809953E-005
  -5.1799999999999985E-002     6.4372689544267713E-005
  -5.0699999999999995E-002     2.1484059522022095E-004
  -4.9599999999999991E-002     3.4855290959169018E-004
  -4.8499999999999988E-002     3.9947396086743083E-004
  -4.7399999999999998E-002     3.0780947102922591E-004
  -4.6299999999999994E-002     4.6196388218961342E-005
  -4.5199999999999990E-002    -3.5864539938075182E-004
  -4.4099999999999986E-002    -8.1782862738899399E-004
  -4.2999999999999997E-002    -1.1911076756766443E-003
  -4.1899999999999993E-002    -1.3160257282143265E-003
  -4.0799999999999989E-002    -1.0493707786842735E-003
  -3.9699999999999985E-002    -3.1216001366974044E-004
  -3.8599999999999995E-002     8.7009049638803366E-004
  -3.7499999999999992E-002     2.3379749190821763E-003
  -3.6399999999999988E-002     3.7852940357035202E-003
  -3.5299999999999984E-002     4.7712729128566141E-003
  -3.4199999999999994E-002     4.7717703230972111E-003
  -3.3099999999999991E-002     3.2852293194455973E-003
  -3.1999999999999987E-002     3.0507629505744416E-008
  -3.0899999999999997E-002    -4.9949392760077031E-003
  -2.9799999999999993E-002    -1.1011859882098447E-002
  -2.8699999999999989E-002    -1.6668261823705500E-002
  -2.7599999999999986E-002    -1.9995874917353905E-002
  -2.6499999999999996E-002    -1.8822978737235267E-002
  -2.5399999999999992E-002    -1.1416026619305103E-002
  -2.4299999999999988E-002     2.7493791312601852E-003
  -2.3199999999999985E-002     2.2324781200321275E-002
  -2.2099999999999995E-002     4.3814203960110272E-002
  -2.0999999999999991E-002     6.1913149982047368E-002
  -1.9899999999999987E-002     7.0521135053460790E-002
  -1.8799999999999983E-002     6.4257939964874167E-002
  -1.7699999999999994E-002     4.0101248761272461E-002
  -1.6599999999999990E-002    -1.3402615227395590E-003
  -1.5499999999999986E-002    -5.5339045313807483E-002
  -1.4399999999999996E-002   -0.11353839392445582
  -1.3299999999999992E-002   -0.16530047899790209
  -1.2199999999999989E-002   -0.19952510455712455
  -1.1099999999999985E-002   -0.20644492529673122
  -9.9999999999999950E-003   -0.17900929031656965
  -8.8999999999999913E-003   -0.11373815977495798
  -7.7999999999999875E-003    -1.1221243274438289E-002
  -6.6999999999999837E-003    0.12341024470490980
  -5.5999999999999939E-003    0.27980966346856556
  -4.4999999999999901E-003    0.44164115194606463
  -3.3999999999999864E-003    0.58622129423793223
  -2.2999999999999826E-003    0.68535511022623297
  -1.1999999999999927E-003    0.70806034944464746
  -9.9999999999988987E-005    0.62538429237324322
   1.0000000000000148E-003    0.41676207067201348
   2.1000000000000185E-003     7.6640049309722680E-002
   3.2000000000000084E-003   -0.38028341974939622
   4.3000000000000121E-003   -0.91666863303650548
   5.4000000000000159E-003    -1.4737797150013694
   6.5000000000000058E-003    -1.9762374099601814
   7.6000000000000234E-003    -2.3394132091819166
   8.7000000000000133E-003    -2.4783394070808060
   9.8000000000000032E-003    -2.3172809994356540
   1.0900000000000021E-002    -1.7996578742407248
   1.2000000000000011E-002   -0.89836830634243237
   1.3100000000000001E-002    0.37365167831478124
   1.4200000000000018E-002     1.9536866466654381
   1.5300000000000008E-002     3.7225932111027267
   1.6400000000000026E-002     5.5044027858614273
   1.7500000000000016E-002     7.0751717299232402
   1.8600000000000005E-002     8.1825078950267969
   1.9700000000000023E-002     8.5744837508661575
   2.0800000000000013E-002     8.0336392707855584
   2.1900000000000003E-002     6.4096439361797648
   2.3000000000000020E-002     3.6438781173992822
   2.4100000000000010E-002   -0.21901983239813796
   2.5200000000000000E-002    -5.0343187380552719
   2.6300000000000018E-002    -10.573257457758071
   2.7400000000000008E-002    -16.547872727518239
   2.8500000000000025E-002    -22.640178002573180
   2.9600000000000015E-002    -28.532936110366098
   3.0700000000000005E-002    -33.941816335891552
   3.1800000000000023E-002    -38.650651718862029
   3.2900000000000013E-002    -42.551573151304332
   3.4000000000000002E-002    -45.689662686587177
   3.5100000000000020E-002    -48.308232914988082
   3.6200000000000010E-002    -50.887480903551818
   3.7300000000000028E-002    -54.167706609112805
   3.8400000000000017E-002    -59.149414898550923
   3.9500000000000007E-002    -67.066171382631651
   4.0600000000000025E-002    -79.330794682927930
   4.1700000000000015E-002    -97.459742230677534
   4.2800000000000005E-002    -122.98324367347470
   4.3900000000000022E-002    -157.34967537131021
   4.5000000000000012E-002    -201.83254678122054
   4.6100000000000002E-002    -257.44823228505601
   4.7200000000000020E-002    -324.89263778088963
   4.8300000000000010E-002    -404.50475286433448
   4.9400000000000027E-002    -496.26315606981416
   5.0500000000000017E-002    -599.81677788949662
   5.1600000000000007E-002    -714.54353583271859
   5.2700000000000025E-002    -839.62157406437188
   5.3800000000000014E-002    -974.09091372589182
   5.4900000000000004E-002    -1116.8815458803090
   5.6000000000000022E-002    -1266.7888534460508
   5.7100000000000012E-002    -1422.3872380107459
   5.8200000000000002E-002    -1581.8835860180072
   5.9300000000000019E-002    -1742.9181725195733
   6.0400000000000009E-002    -1902.3176644240903
   6.1500000000000027E-002    -2055.7928060812678
   6.2600000000000017E-002    -2197.5566035480701
   6.3700000000000007E-002    -2319.8250911684331
   6.4800000000000024E-002    -2412.1597246055048
   6.5900000000000014E-002    -2460.6218818821449
   6.7000000000000004E-002    -2446.7333302001493
   6.8100000000000022E-002    -2346.2632987008856
   6.9200000000000012E-002    -2127.8817438206929
   7.0300000000000029E-002    -1751.7205253768705
   7.1400000000000019E-002    -1167.8672293081293
   7.2500000000000009E-002    -314.78633176882067
   7.3600000000000027E-002     882.36840568604657
   7.4700000000000016E-002     2513.6046298057395
   7.5800000000000006E-002     4686.1566660373783
   7.6900000000000024E-002     7526.7934205883284
   7.8000000000000014E-002     11184.362251220780
   7.9100000000000004E-002     15832.530176073056
   8.0200000000000021E-002     21672.666883136393
   8.1300000000000011E-002     28936.817039979327
   8.2400000000000029E-002     37890.727624992767
   8.3500000000000019E-002     48836.917384866239
   8.4600000000000009E-002     62117.786603511195
   8.5700000000000026E-002     78118.757642093115
   8.6800000000000016E-002     97271.410455721954
   8.7900000000000006E-002     120056.54094328848
   8.9000000000000024E-002     147007.03548087028
   9.0100000000000013E-002     178710.43158652438
   9.1200000000000003E-002     215811.02451709809
   9.2300000000000021E-002     259011.37739629476
   9.3400000000000011E-002     309073.08927354490
   9.4500000000000028E-002     366816.66453291132
   9.5600000000000018E-002     433120.30810635170
   9.6700000000000008E-002     508917.45078186406
   9.7800000000000026E-002     595192.79733685567
   9.8900000000000016E-002     692976.69394305546
  0.10000000000000001          803337.62916271808
  0.10110000000000002          927372.70586994116
  0.10220000000000001          1066195.9377180224
  0.10330000000000003          1220924.2263502155
  0.10440000000000002          1392660.8683206064
  0.10550000000000001          1582476.4387286892
  0.10660000000000003          1791386.9215287555
  0.10770000000000002          2020329.0178469692
  0.10880000000000001          2270132.6614649165
  0.10990000000000003          2541490.8852879135
  0.11100000000000002          2834927.2842238029
  0.11210000000000001          3150761.3828077167
  0.11320000000000002          3489072.2335207271
  0.11430000000000001          3849660.5635804436
  0.11540000000000003          4232009.7939660689
  0.11650000000000002          4635246.3175102733
  0.11760000000000001          5058099.5671956316
  0.11870000000000003          5498862.6211708011
  0.11980000000000002          5955354.3323998740
  0.12090000000000001          6424884.1748131132
  0.12200000000000003          6904221.1096927328
  0.12310000000000001          7389567.7755879834
  0.12420000000000003          7876541.2178011620
  0.12530000000000002          8360161.2607174097
  0.12640000000000001          8834847.5570836868
  0.12750000000000003          9294426.3657743540
  0.12860000000000002          9732148.2065284178
  0.12970000000000001          10140717.657570070
  0.13080000000000003          10512336.611384554
  0.13190000000000002          10838762.204548880
  0.13300000000000001          11111380.352202056
  0.13410000000000000          11321295.369947882
  0.13520000000000004          11459435.630526280
  0.13630000000000003          11516674.673915306
  0.13740000000000002          11483966.742291873
  0.13850000000000001          11352495.371429972
  0.13960000000000000          11113833.409325942
  0.14070000000000005          10760112.587848935
  0.14180000000000004          10284200.479590420
  0.14290000000000003          9679882.2956668679
  0.14400000000000002          8942044.5316844247
  0.14510000000000001          8066856.9963593781
  0.14620000000000000          7051949.3225163110
  0.14730000000000004          5896577.7147366470
  0.14840000000000003          4601777.4592507631
  0.14950000000000002          3170496.6171639184
  0.15060000000000001          1607706.3447297278
  0.15170000000000000         -79516.552930239835
  0.15280000000000005         -1881938.9012234462
  0.15390000000000004         -3788155.8234525118
  0.15500000000000003         -5784613.6618247284
  0.15610000000000002         -7855673.2016979409
  0.15720000000000001         -9983714.3930049334
  0.15830000000000000         -12149282.959490560
  0.15940000000000004         -14331278.586342840
  0.16050000000000003         -16507183.754652357
  0.16160000000000002         -18653331.643495042
  0.16270000000000001         -20745210.706935670
  0.16380000000000000         -22757802.448105898
  0.16490000000000005         -24665947.555345442
  0.16600000000000004         -26444734.074728448
  0.16710000000000003         -28069899.919197302
  0.16820000000000002         -29518241.033778716
  0.16930000000000001         -30768016.142607525
  0.17040000000000000         -31799339.220953304
  0.17150000000000004         -32594551.499141525
  0.17260000000000003         -33138565.623160314
  0.17370000000000002         -33419175.272199675
  0.17480000000000001         -33427323.896106999
  0.17590000000000000         -33157326.322293241
  0.17700000000000005         -32607037.026149150
  0.17810000000000004         -31777959.194764119
  0.17920000000000003         -30675289.626303781
  0.18030000000000002         -29307896.104207832
  0.18140000000000001         -27688226.039260879
  0.18250000000000000         -25832147.564604864
  0.18360000000000004         -23758726.510288794
  0.18470000000000003         -21489944.463112283
  0.18580000000000002         -19050364.305512186
  0.18690000000000001         -16466750.300949866
  0.18800000000000000         -13767650.170815418
  0.18910000000000005         -10982946.933347462
  0.19020000000000004         -8143388.7088866355
  0.19130000000000003         -5280105.2588328458
  0.19240000000000002         -2424120.6146932882
  0.19350000000000001          394128.39183196635
  0.19460000000000005          3145257.7075979081
  0.19570000000000004          5801375.9275844814
  0.19680000000000003          8336489.1736502647
  0.19790000000000002          10726862.586504886
  0.19900000000000001          12951331.260579308
  0.20010000000000000          14991555.014241753
  0.20120000000000005          16832213.253471028
  0.20230000000000004          18461138.238368992
  0.20340000000000003          19869387.076228779
  0.20450000000000002          21051254.455603350
  0.20560000000000000          22004229.256657392
  0.20670000000000005          22728898.643852305
  0.20780000000000004          23228803.233096853
  0.20890000000000003          23510246.812867105
