 -0.12000000000000000          0.0000000000000000
 -0.11889999999999999          0.0000000000000000
 -0.11780000000000000          0.0000000000000000
 -0.11670000000000000          0.0000000000000000
 -0.11559999999999999          0.0000000000000000
 -0.11449999999999999          0.0000000000000000
 -0.11340000000000000          0.0000000000000000
 -0.11230000000000000          0.0000000000000000
 -0.11119999999999999          1.2853384796644261E-069
 -0.11009999999999999          1.1435749459610449E-044
 -0.10900000000000000          6.4534377534658414E-020
 -0.10790000000000000          7.8113222587084280E-019
 -0.10679999999999999          4.3523323583795687E-018
 -0.10569999999999999          1.3655740496650464E-017
 -0.10460000000000000          1.9706025362951915E-017
 -0.10349999999999999         -2.9997296686586360E-017
 -0.10239999999999999         -2.4418880021333067E-016
 -0.10130000000000000         -6.4394154808206741E-016
 -0.10020000000000000         -7.0505596274556491E-016
  -9.9099999999999994E-002     1.1744207124936796E-015
  -9.7999999999999990E-002     7.0365762338178725E-015
  -9.6899999999999986E-002     1.5522073223853830E-014
  -9.5799999999999996E-002     1.4692840546988467E-014
  -9.4699999999999993E-002    -2.1486549389453622E-014
  -9.3599999999999989E-002    -1.1622665393400638E-013
  -9.2499999999999999E-002    -2.3671520995996466E-013
  -9.1399999999999995E-002    -2.2149177072206682E-013
  -9.0299999999999991E-002     2.2442352978476565E-013
  -8.9200000000000002E-002     1.3181985477128979E-012
  -8.8099999999999984E-002     2.6868520951077687E-012
  -8.6999999999999994E-002     2.7791826032975379E-012
  -8.5899999999999990E-002    -1.0605688829083095E-012
  -8.4799999999999986E-002    -1.0809387878836354E-011
  -8.3699999999999997E-002    -2.3860027606078661E-011
  -8.2599999999999993E-002    -2.8747947251626732E-011
  -8.1499999999999989E-002    -5.4163308466677125E-012
  -8.0399999999999999E-002     6.3467458408659684E-011
  -7.9299999999999995E-002     1.6761337112803995E-010
  -7.8199999999999992E-002     2.4042518066544142E-010
  -7.7100000000000002E-002     1.5374398463629708E-010
  -7.5999999999999984E-002    -2.2711369902482263E-010
  -7.4899999999999994E-002    -9.0900298407962252E-010
  -7.3799999999999991E-002    -1.5973596648111890E-009
  -7.2699999999999987E-002    -1.6109430958344340E-009
  -7.1599999999999997E-002    -7.3324798526200894E-011
  -7.0499999999999993E-002     3.4839384110099445E-009
  -6.9399999999999989E-002     8.2094628389159622E-009
  -6.8300000000000000E-002     1.1207428582438476E-008
  -6.7199999999999996E-002     7.8455556760206133E-009
  -6.6099999999999992E-002    -6.1026871600666595E-009
  -6.5000000000000002E-002    -3.0453303571496540E-008
  -6.3899999999999985E-002    -5.6245062557844297E-008
  -6.2799999999999995E-002    -6.4220457459718310E-008
  -6.1699999999999991E-002    -3.0033447960031915E-008
  -6.0599999999999994E-002     6.1730411602322329E-008
  -5.9499999999999990E-002     1.9757273111707467E-007
  -5.8399999999999994E-002     3.1890216190129365E-007
  -5.7299999999999990E-002     3.2474199008011126E-007
  -5.6199999999999986E-002     1.0703140591683777E-007
  -5.5099999999999996E-002    -3.7997040801304937E-007
  -5.3999999999999992E-002    -1.0371478308020837E-006
  -5.2899999999999989E-002    -1.5705600835569883E-006
  -5.1799999999999985E-002    -1.5316090146093366E-006
  -5.0699999999999995E-002    -4.8722096999917501E-007
  -4.9599999999999991E-002     1.6956085569857276E-006
  -4.8499999999999988E-002     4.5491395983498416E-006
  -4.7399999999999998E-002     6.8613614440105637E-006
  -4.6299999999999994E-002     6.8795925298035586E-006
  -4.5199999999999990E-002     2.9644221519943065E-006
  -4.4099999999999986E-002    -5.4019171062182761E-006
  -4.2999999999999997E-002    -1.6607893479733188E-005
  -4.1899999999999993E-002    -2.6465149385441342E-005
  -4.0799999999999989E-002    -2.8885993376897927E-005
  -3.9699999999999985E-002    -1.7951997267964035E-005
  -3.8599999999999995E-002     8.9535852644903906E-006
  -3.7499999999999992E-002     4.7992156836913340E-005
  -3.6399999999999988E-002     8.7259504874123410E-005
  -3.5299999999999984E-002     1.0826019351157572E-004
  -3.4199999999999994E-002     9.1217372484905988E-005
  -3.3099999999999991E-002     2.3483681882821493E-005
  -3.1999999999999987E-002    -9.1420552789871876E-005
  -3.0899999999999997E-002    -2.2788853800909106E-004
  -2.9799999999999993E-002    -3.3923353414665961E-004
  -2.8699999999999989E-002    -3.6784523352858530E-004
  -2.7599999999999986E-002    -2.6368446549379019E-004
  -2.6499999999999996E-002    -6.6918893995875415E-006
  -2.5399999999999992E-002     3.7415827254569752E-004
  -2.4299999999999988E-002     7.9318443524262845E-004
  -2.3199999999999985E-002     1.1176773076520905E-003
  -2.2099999999999995E-002     1.1963322109706436E-003
  -2.0999999999999991E-002     9.0203006156782707E-004
  -1.9899999999999987E-002     1.7938616784148531E-004
  -1.8799999999999983E-002    -9.1538382699458791E-004
  -1.7699999999999994E-002    -2.1944705421350435E-003
  -1.6599999999999990E-002    -3.3474522009369219E-003
  -1.5499999999999986E-002    -3.9835562610268790E-003
  -1.4399999999999996E-002    -3.7061744166093109E-003
  -1.3299999999999992E-002    -2.2132077074553734E-003
  -1.2199999999999989E-002     5.8909692956885505E-004
  -1.1099999999999985E-002     4.4783578753932272E-003
  -9.9999999999999950E-003     8.8421371606848178E-003
  -8.8999999999999913E-003     1.2672638559133642E-002
  -7.7999999999999875E-003     1.4665455115903956E-002
  -6.6999999999999837E-003     1.3446247503002986E-002
  -5.5999999999999939E-003     7.9214643471968386E-003
  -4.4999999999999901E-003    -2.2932418820331281E-003
  -3.3999999999999864E-003    -1.6461053953181353E-002
  -2.2999999999999826E-003    -3.2459415429567796E-002
  -1.1999999999999927E-003    -4.6800707459696611E-002
  -9.9999999999988987E-005    -5.5039232724246191E-002
   1.0000000000000148E-003    -5.2583545082207396E-002
   2.1000000000000185E-003    -3.5821016470561275E-002
   3.2000000000000084E-003    -3.3488861605269608E-003
   4.3000000000000121E-003     4.2971473882075450E-002
   5.4000000000000159E-003     9.7433623099946867E-002
   6.5000000000000058E-003    0.15061311346124917
   7.6000000000000234E-003    0.19031285811478202
   8.7000000000000133E-003    0.20328262371797082
   9.8000000000000032E-003    0.17752337613504079
   1.0900000000000021E-002    0.10488238176774628
   1.2000000000000011E-002    -1.6409365041496770E-002
   1.3100000000000001E-002   -0.17962161324189985
   1.4200000000000018E-002   -0.36819620987480101
   1.5300000000000008E-002   -0.55557247351591055
   1.6400000000000026E-002   -0.70652927563858647
   1.7500000000000016E-002   -0.78035734457368644
   1.8600000000000005E-002   -0.73602521123954989
   1.9700000000000023E-002   -0.53920503914815043
   2.0800000000000013E-002   -0.17057781373478972
   2.1900000000000003E-002    0.36569425845831116
   2.3000000000000020E-002     1.0349252284433066
   2.4100000000000010E-002     1.7681597532643842
   2.5200000000000000E-002     2.4634938007594944
   2.6300000000000018E-002     2.9936876216867998
   2.7400000000000008E-002     3.2203427504029256
   2.8500000000000025E-002     3.0137053177620903
   2.9600000000000015E-002     2.2759339485429435
   3.0700000000000005E-002    0.96469473669837325
   3.1800000000000023E-002   -0.88656794993647126
   3.2900000000000013E-002    -3.1552766086173740
   3.4000000000000002E-002    -5.6262515306118379
   3.5100000000000020E-002    -8.0000278918829242
   3.6200000000000010E-002    -9.9135182042592707
   3.7300000000000028E-002    -10.972154634204076
   3.8400000000000017E-002    -10.791302538321377
   3.9500000000000007E-002    -9.0436035515966662
   4.0600000000000025E-002    -5.5080813160042235
   4.1700000000000015E-002   -0.11640423129788439
   4.2800000000000005E-002     7.0082866781441702
   4.3900000000000022E-002     15.524064147289257
   4.5000000000000012E-002     24.857472199747434
   4.6100000000000002E-002     34.206918970103551
   4.7200000000000020E-002     42.561902332944847
   4.8300000000000010E-002     48.735672531658004
   4.9400000000000027E-002     51.406801758579327
   5.0500000000000017E-002     49.163169674438535
   5.1600000000000007E-002     40.540323926108371
   5.2700000000000025E-002     24.045289760380872
   5.3800000000000014E-002    -1.8430734130066586
   5.4900000000000004E-002    -38.704964251247716
   5.6000000000000022E-002    -88.247373512754720
   5.7100000000000012E-002    -152.41119320427558
   5.8200000000000002E-002    -233.51685497287122
   5.9300000000000019E-002    -334.44473521854815
   6.0400000000000009E-002    -458.84496155761161
   6.1500000000000027E-002    -611.37161972364254
   6.2600000000000017E-002    -797.93887392206716
   6.3700000000000007E-002    -1026.0007240125597
   6.4800000000000024E-002    -1304.8609856709982
   6.5900000000000014E-002    -1646.0242414308514
   6.7000000000000004E-002    -2063.6007570291049
   6.8100000000000022E-002    -2574.7780719468674
   6.9200000000000012E-002    -3200.3694137579714
   7.0300000000000029E-002    -3965.4453429501914
   7.1400000000000019E-002    -4900.0516446469328
   7.2500000000000009E-002    -6040.0148269326664
   7.3600000000000027E-002    -7427.8373035683226
   7.4700000000000016E-002    -9113.6870186376127
   7.5800000000000006E-002    -11156.489555539954
   7.6900000000000024E-002    -13625.132883024309
   7.8000000000000014E-002    -16599.794354475009
   7.9100000000000004E-002    -20173.395862783087
   8.0200000000000021E-002    -24453.186823364027
   8.1300000000000011E-002    -29562.447496849778
   8.2400000000000029E-002    -35642.298875345812
   8.3500000000000019E-002    -42853.601113050827
   8.4600000000000009E-002    -51378.920185560615
   8.5700000000000026E-002    -61424.540623691668
   8.6800000000000016E-002    -73222.498391510831
   8.7900000000000006E-002    -87032.599889393852
   8.9000000000000024E-002    -103144.37932439080
   9.0100000000000013E-002    -121878.92770642717
   9.1200000000000003E-002    -143590.50474572685
   9.2300000000000021E-002    -168667.82346930576
   9.3400000000000011E-002    -197534.88021307808
   9.4500000000000028E-002    -230651.19265251711
   9.5600000000000018E-002    -268511.30681210372
   9.6700000000000008E-002    -311643.43955970259
   9.7800000000000026E-002    -360607.13319512666
   9.8900000000000016E-002    -415989.80969809956
  0.10000000000000001         -478402.12050131307
  0.10110000000000002         -548471.99105610827
  0.10220000000000001         -626837.25778887968
  0.10330000000000003         -714136.79052923340
  0.10440000000000002         -810999.99048292043
  0.10550000000000001         -918034.55795194255
  0.10660000000000003         -1035812.4408314242
  0.10770000000000002         -1164853.9083856894
  0.10880000000000001         -1305609.7459290170
  0.10990000000000003         -1458441.6322308735
  0.11100000000000002         -1623600.8369942631
  0.11210000000000001         -1801205.4532905070
  0.11320000000000002         -1991216.4527987335
  0.11430000000000001         -2193412.9166233959
  0.11540000000000003         -2407366.8523746012
  0.11650000000000002         -2632418.0642726519
  0.11760000000000001         -2867649.6043399819
  0.11870000000000003         -3111864.4046168155
  0.11980000000000002         -3363563.7728168783
  0.12090000000000001         -3620928.5196043258
  0.12200000000000003         -3881803.5607447326
  0.12310000000000001         -4143686.8847504691
  0.12420000000000003         -4403723.7817911496
  0.12530000000000002         -4658707.1859686207
  0.12640000000000001         -4905084.8949219184
  0.12750000000000003         -5138974.3125668522
  0.12860000000000002         -5356185.2321695304
  0.12970000000000001         -5552251.0551814204
  0.13080000000000003         -5722468.7340787239
  0.13190000000000002         -5861947.6290034018
  0.13300000000000001         -5965667.3598517021
  0.13410000000000000         -6028544.5926871980
  0.13520000000000004         -6045508.4999440247
  0.13630000000000003         -6011584.3679177938
  0.13740000000000002         -5921984.5004330194
  0.13850000000000001         -5772205.2099530743
  0.13960000000000000         -5558128.3340284405
  0.14070000000000005         -5276125.4046310512
  0.14180000000000004         -4923162.3601917820
  0.14290000000000003         -4496902.5377909699
  0.14400000000000002         -3995805.6098096408
  0.14510000000000001         -3419220.1145871556
  0.14620000000000000         -2767467.2476261030
  0.14730000000000004         -2041913.6069863618
  0.14840000000000003         -1245030.6160373094
  0.14950000000000002         -380438.38941555307
  0.15060000000000001          547068.10871701792
  0.15170000000000000          1531512.6045932870
  0.15280000000000005          2565752.4714118647
  0.15390000000000004          3641516.4173434754
  0.15500000000000003          4749465.6878265217
  0.15610000000000002          5879278.9350945698
  0.15720000000000001          7019760.2326464830
  0.15830000000000000          8158969.0550847901
  0.15940000000000004          9284370.4618242234
  0.16050000000000003          10383003.251805874
  0.16160000000000002          11441663.497643253
  0.16270000000000001          12447100.589989176
  0.16380000000000000          13386222.672379011
  0.16490000000000005          14246308.068102002
  0.16600000000000004          15015218.961651525
  0.16710000000000003          15681613.208270276
  0.16820000000000002          16235149.764530802
  0.16930000000000001          16666682.955747716
  0.17040000000000000          16968440.726196859
  0.17150000000000004          17134182.233284645
  0.17260000000000003          17159330.667837746
  0.17370000000000002          17041077.959581051
  0.17480000000000001          16778458.948228266
  0.17590000000000000          16372393.525303951
  0.17700000000000005          15825696.053283432
  0.17810000000000004          15143051.976398652
  0.17920000000000003          14330961.960530376
  0.18030000000000002          13397654.222165136
  0.18140000000000001          12352966.055785680
  0.18250000000000000          11208196.066508576
  0.18360000000000004          9975929.3259383906
  0.18470000000000003          8669838.5724008512
  0.18580000000000002          7304465.5609725080
  0.18690000000000001          5894987.5633204179
  0.18800000000000000          4456974.6436402947
  0.18910000000000005          3006143.5652322904
  0.19020000000000004          1558113.9746854261
  0.19130000000000003          128171.93581673650
  0.19240000000000002         -1268954.9007474789
  0.19350000000000001         -2619307.0080164471
  0.19460000000000005         -3909884.7293971870
  0.19570000000000004         -5128819.5961294891
  0.19680000000000003         -6265522.8704651808
  0.19790000000000002         -7310808.9442877164
  0.19900000000000001         -8256991.2342599379
  0.20010000000000000         -9097948.4582125917
  0.20120000000000005         -9829159.7947177533
  0.20230000000000004         -10447708.451565761
  0.20340000000000003         -10952254.499424376
  0.20450000000000002         -11342979.248024961
  0.20560000000000000         -11621504.676314158
  0.20670000000000005         -11790792.217372337
  0.20780000000000004         -11855025.388501883
  0.20890000000000003         -11819480.352506317
