 -0.12000000000000000          0.0000000000000000
 -0.11889999999999999          0.0000000000000000
 -0.11780000000000000          0.0000000000000000
 -0.11670000000000000          0.0000000000000000
 -0.11559999999999999          0.0000000000000000
 -0.11449999999999999          0.0000000000000000
 -0.11340000000000000          0.0000000000000000
 -0.11230000000000000          0.0000000000000000
 -0.11119999999999999          2.9691866827059213E-026
 -0.11009999999999999          3.8492832326736982E-025
 -0.10900000000000000          2.4380043640142438E-024
 -0.10790000000000000          9.8782619146702526E-024
 -0.10679999999999999          2.7891201006347952E-023
 -0.10569999999999999          5.4554170472100109E-023
 -0.10460000000000000          6.0718945790568987E-023
 -0.10349999999999999         -2.9921438862253309E-023
 -0.10239999999999999         -3.2362872578657306E-022
 -0.10130000000000000         -8.5956686722325358E-022
 -0.10020000000000000         -1.4445714135633059E-021
  -9.9099999999999994E-002    -1.5402565918869713E-021
  -9.7999999999999990E-002    -3.7917911451148250E-022
  -9.6899999999999986E-002     2.6655410399286975E-021
  -9.5799999999999996E-002     7.7816242527505190E-021
  -9.4699999999999993E-002     1.4954908056458555E-020
  -9.3599999999999989E-002     2.4488787205059074E-020
  -9.2499999999999999E-002     3.5878836767572669E-020
  -9.1399999999999995E-002     4.2008970908023197E-020
  -9.0299999999999991E-002     1.8261411832839882E-020
  -8.9200000000000002E-002    -8.5130672081048898E-020
  -8.8099999999999984E-002    -3.2735284154720760E-019
  -8.6999999999999994E-002    -7.1469526464443325E-019
  -8.5899999999999990E-002    -1.0909710388045950E-018
  -8.4799999999999986E-002    -1.0358300555048649E-018
  -8.3699999999999997E-002     1.0553279348481141E-019
  -8.2599999999999993E-002     2.9149253991611982E-018
  -8.1499999999999989E-002     7.2656012969454182E-018
  -8.0399999999999999E-002     1.1554320674901438E-017
  -7.9299999999999995E-002     1.2314473822928863E-017
  -7.8199999999999992E-002     4.9028107889890893E-018
  -7.7100000000000002E-002    -1.4270762215101214E-017
  -7.5999999999999984E-002    -4.4261018439326058E-017
  -7.4899999999999994E-002    -7.6248734273834826E-017
  -7.3799999999999991E-002    -9.2615241510925404E-017
  -7.2699999999999987E-002    -7.0598599694361176E-017
  -7.1599999999999997E-002     8.8203507052118261E-018
  -7.0499999999999993E-002     1.4876222201962440E-016
  -6.9399999999999989E-002     3.2547907002083326E-016
  -6.8300000000000000E-002     4.8387807858025630E-016
  -6.7199999999999996E-002     5.4323300500667061E-016
  -6.6099999999999992E-002     4.1345769010914644E-016
  -6.5000000000000002E-002     1.9506992927850786E-017
  -6.3899999999999985E-002    -6.6869257967282857E-016
  -6.2799999999999995E-002    -1.6011396843762480E-015
  -6.1699999999999991E-002    -2.6071268234844487E-015
  -6.0599999999999994E-002    -3.3555686611482924E-015
  -5.9499999999999990E-002    -3.3402983142323087E-015
  -5.8399999999999994E-002    -1.9365671616234469E-015
  -5.7299999999999990E-002     1.4157677599117457E-015
  -5.6199999999999986E-002     6.8742581713159889E-015
  -5.5099999999999996E-002     1.3751441349390383E-014
  -5.3999999999999992E-002     2.0134607601066914E-014
  -5.2899999999999989E-002     2.2837391503495184E-014
  -5.1799999999999985E-002     1.7964974413036817E-014
  -5.0699999999999995E-002     2.2282985140580589E-015
  -4.9599999999999991E-002    -2.5170294294723987E-014
  -4.8499999999999988E-002    -6.0649556567285784E-014
  -4.7399999999999998E-002    -9.5225119358016346E-014
  -4.6299999999999994E-002    -1.1521586929345448E-013
  -4.5199999999999990E-002    -1.0514367900657054E-013
  -4.4099999999999986E-002    -5.2541875443067778E-014
  -4.2999999999999997E-002     4.6443704724885969E-014
  -4.1899999999999993E-002     1.8233341222164937E-013
  -4.0799999999999989E-002     3.3014558590204699E-013
  -3.9699999999999985E-002     4.5087606388786845E-013
  -3.8599999999999995E-002     4.9684432921000975E-013
  -3.7499999999999992E-002     4.2039858823261939E-013
  -3.6399999999999988E-002     1.8520368312065779E-013
  -3.5299999999999984E-002    -2.2058997938959826E-013
  -3.4199999999999994E-002    -7.7017300039292236E-013
  -3.3099999999999991E-002    -1.3849395514699004E-012
  -3.1999999999999987E-002    -1.9268381237343382E-012
  -3.0899999999999997E-002    -2.2034976459490666E-012
  -2.9799999999999993E-002    -1.9946596803331482E-012
  -2.8699999999999989E-002    -1.1056112540359613E-012
  -2.7599999999999986E-002     5.5510975752990549E-013
  -2.6499999999999996E-002     2.8894258936397204E-012
  -2.5399999999999992E-002     5.5437060782796877E-012
  -2.4299999999999988E-002     7.8985893302604589E-012
  -2.3199999999999985E-002     9.1441584610479390E-012
  -2.2099999999999995E-002     8.4488213681298267E-012
  -2.0999999999999991E-002     5.1982295671527172E-012
  -1.9899999999999987E-002    -7.5163667332270947E-013
  -1.8799999999999983E-002    -8.8819157904766746E-012
  -1.7699999999999994E-002    -1.7948715324601965E-011
  -1.6599999999999990E-002    -2.6091515573095107E-011
  -1.5499999999999986E-002    -3.1107616909224092E-011
  -1.4399999999999996E-002    -3.0846056624227171E-011
  -1.3299999999999992E-002    -2.3651539335240092E-011
  -1.2199999999999989E-002    -8.7913764941594353E-012
  -1.1099999999999985E-002     1.3182940747090301E-011
  -9.9999999999999950E-003     4.0173634475902009E-011
  -8.8999999999999913E-003     6.8417532657323434E-011
  -7.7999999999999875E-003     9.2589381778274397E-011
  -6.6999999999999837E-003     1.0624637648931625E-010
  -5.5999999999999939E-003     1.0273230874632621E-010
  -4.4999999999999901E-003     7.6577465833166285E-011
  -3.3999999999999864E-003     2.5254839443389816E-011
  -2.2999999999999826E-003    -4.9074323614677648E-011
  -1.1999999999999927E-003    -1.3837952789260611E-010
  -9.9999999999988987E-005    -2.2873320757200650E-010
   1.0000000000000148E-003    -3.0183072190506693E-010
   2.1000000000000185E-003    -3.3804100326284656E-010
   3.2000000000000084E-003    -3.2045963194028329E-010
   4.3000000000000121E-003    -2.3902080003605604E-010
   5.4000000000000159E-003    -9.3597010976671470E-011
   6.5000000000000058E-003     1.0473201653405682E-010
   7.6000000000000234E-003     3.3449888599943739E-010
   8.7000000000000133E-003     5.6637326753427268E-010
   9.8000000000000032E-003     7.6657960155009462E-010
   1.0900000000000021E-002     9.0038973237306162E-010
   1.2000000000000011E-002     9.3529396777900464E-010
   1.3100000000000001E-002     8.4406390671731484E-010
   1.4200000000000018E-002     6.0833026948177493E-010
   1.5300000000000008E-002     2.2316875124319094E-010
   1.6400000000000026E-002    -2.9756407971214387E-010
   1.7500000000000016E-002    -9.1648738350872781E-010
   1.8600000000000005E-002    -1.5707293266271087E-009
   1.9700000000000023E-002    -2.1749168668784372E-009
   2.0800000000000013E-002    -2.6301616211544630E-009
   2.1900000000000003E-002    -2.8380710805049865E-009
   2.3000000000000020E-002    -2.7167435484163852E-009
   2.4100000000000010E-002    -2.2146094490978234E-009
   2.5200000000000000E-002    -1.3186084728235201E-009
   2.6300000000000018E-002    -5.5528798714266587E-011
   2.7400000000000008E-002     1.5115519166088288E-009
   2.8500000000000025E-002     3.2874430343494654E-009
   2.9600000000000015E-002     5.1452461233927750E-009
   3.0700000000000005E-002     6.9212896813746108E-009
   3.1800000000000023E-002     8.4075507003035610E-009
   3.2900000000000013E-002     9.3490544763580853E-009
   3.4000000000000002E-002     9.4556353552003265E-009
   3.5100000000000020E-002     8.4349544630290445E-009
   3.6200000000000010E-002     6.0469002753714020E-009
   3.7300000000000028E-002     2.1706681242093520E-009
   3.8400000000000017E-002    -3.1314487314030583E-009
   3.9500000000000007E-002    -9.5717472813880774E-009
   4.0600000000000025E-002    -1.6630052704474438E-008
   4.1700000000000015E-002    -2.3585910336312243E-008
   4.2800000000000005E-002    -2.9582841489448919E-008
   4.3900000000000022E-002    -3.3709751875016949E-008
   4.5000000000000012E-002    -3.5083878960484493E-008
   4.6100000000000002E-002    -3.2926232282215954E-008
   4.7200000000000020E-002    -2.6630792567975030E-008
   4.8300000000000010E-002    -1.5836900921140213E-008
   4.9400000000000027E-002    -5.1486028962895352E-010
   5.0500000000000017E-002     1.8934217413277621E-008
   5.1600000000000007E-002     4.1578866984971742E-008
   5.2700000000000025E-002     6.5887596824141132E-008
   5.3800000000000014E-002     8.9724901857103404E-008
   5.4900000000000004E-002     1.1044106994711049E-007
   5.6000000000000022E-002     1.2506315727491817E-007
   5.7100000000000012E-002     1.3056813573108684E-007
   5.8200000000000002E-002     1.2419812618366178E-007
   5.9300000000000019E-002     1.0377120328320272E-007
   6.0400000000000009E-002     6.7952413081157457E-008
   6.1500000000000027E-002     1.6472667294643436E-008
   6.2600000000000017E-002    -4.9694292904920471E-008
   6.3700000000000007E-002    -1.2817797685259048E-007
   6.4800000000000024E-002    -2.1507397334544742E-007
   6.5900000000000014E-002    -3.0484795459705904E-007
   6.7000000000000004E-002    -3.9034046377734980E-007
   6.8100000000000022E-002    -4.6295299196121944E-007
   6.9200000000000012E-002    -5.1308727710905318E-007
   7.0300000000000029E-002    -5.3086798472886675E-007
   7.1400000000000019E-002    -5.0711483870101963E-007
   7.2500000000000009E-002    -4.3446575849737993E-007
   7.3600000000000027E-002    -3.0851135410269723E-007
   7.4700000000000016E-002    -1.2879805396224401E-007
   7.5800000000000006E-002     1.0040905368617610E-007
   7.6900000000000024E-002     3.6965906374181672E-007
   7.8000000000000014E-002     6.6415118033319509E-007
   7.9100000000000004E-002     9.6385987112271264E-007
   8.0200000000000021E-002     1.2439475125502576E-006
   8.1300000000000011E-002     1.4754966118027047E-006
   8.2400000000000029E-002     1.6266246528022779E-006
   8.3500000000000019E-002     1.6640474708738277E-006
   8.4600000000000009E-002     1.5551191051537042E-006
   8.5700000000000026E-002     1.2703046572136922E-006
   8.6800000000000016E-002     7.8596291531661035E-007
   8.7900000000000006E-002     8.7258858529924129E-008
   8.9000000000000024E-002    -8.2898465721391389E-007
   9.0100000000000013E-002    -1.9516489746719623E-006
   9.1200000000000003E-002    -3.2529806694172672E-006
   9.2300000000000021E-002    -4.6865692088485181E-006
   9.3400000000000011E-002    -6.1856173438811214E-006
   9.4500000000000028E-002    -7.6614717898803022E-006
   9.5600000000000018E-002    -9.0023898062294986E-006
   9.6700000000000008E-002    -1.0072510038060817E-005
   9.7800000000000026E-002    -1.0710943153250067E-005
   9.8900000000000016E-002    -1.0730788372184513E-005
  0.10000000000000001         -9.9177328249810602E-006
  0.10110000000000002         -8.0277407769918763E-006
  0.10220000000000001         -4.7832320076262063E-006
  0.10330000000000003          1.3289215809573565E-007
  0.10440000000000002          7.0859978039889315E-006
  0.10550000000000001          1.6501824124206517E-005
  0.10660000000000003          2.8882514619929829E-005
  0.10770000000000002          4.4827193678331182E-005
  0.10880000000000001          6.5057826064398631E-005
  0.10990000000000003          9.0451245984953725E-005
  0.11100000000000002          1.2207836732212694E-004
  0.11210000000000001          1.6125164058978191E-004
  0.11320000000000002          2.0958179473430760E-004
  0.11430000000000001          2.6904482941689809E-004
  0.11540000000000003          3.4206017489883743E-004
  0.11650000000000002          4.3158098044766011E-004
  0.11760000000000001          5.4119765914933688E-004
  0.11870000000000003          6.7525607939933514E-004
  0.11980000000000002          8.3899207188766248E-004
  0.12090000000000001          1.0386841188679511E-003
  0.12200000000000003          1.2818261411671485E-003
  0.12310000000000001          1.5773221908408957E-003
  0.12420000000000003          1.9357046518721330E-003
  0.12530000000000002          2.3693773394690113E-003
  0.12640000000000001          2.8928847416530576E-003
  0.12750000000000003          3.5232085662439631E-003
  0.12860000000000002          4.2800926537121843E-003
  0.12970000000000001          5.1863970371174807E-003
  0.13080000000000003          6.2684813123141375E-003
  0.13190000000000002          7.5566164227963816E-003
  0.13300000000000001          9.0854224666469113E-003
  0.13410000000000000          1.0894328303653984E-002
  0.13520000000000004          1.3028046738268316E-002
  0.13630000000000003          1.5537057017846887E-002
  0.13740000000000002          1.8478084370866052E-002
  0.13850000000000001          2.1914564266994264E-002
  0.13960000000000000          2.5917076889655798E-002
  0.14070000000000005          3.0563734854448611E-002
  0.14180000000000004          3.5940504447643518E-002
  0.14290000000000003          4.2141437689002831E-002
  0.14400000000000002          4.9268789549055975E-002
  0.14510000000000001          5.7432991932679769E-002
  0.14620000000000000          6.6752453808295614E-002
  0.14730000000000004          7.7353155252971983E-002
  0.14840000000000003          8.9368002233883886E-002
  0.14950000000000002         0.10293590863676240
  0.15060000000000001         0.11820057238772125
  0.15170000000000000         0.13530891359602745
  0.15280000000000005         0.15440914468748732
  0.15390000000000004         0.17564844579120262
  0.15500000000000003         0.19917022346554381
  0.15610000000000002         0.22511093738169116
  0.15720000000000001         0.25359648785702954
  0.15830000000000000         0.28473816704684302
  0.15940000000000004         0.31862818800026915
  0.16050000000000003         0.35533481852599186
  0.16160000000000002         0.39489716082497295
  0.16270000000000001         0.43731963311270933
  0.16380000000000000         0.48256622592103471
  0.16490000000000005         0.53055462324753422
  0.16600000000000004         0.58115029679711028
  0.16710000000000003         0.63416069959640187
  0.16820000000000002         0.68932970246815117
  0.16930000000000001         0.74633243241522429
  0.17040000000000000         0.80477068516271377
  0.17150000000000004         0.86416909437081557
  0.17260000000000003         0.92397224690959678
  0.17370000000000002         0.98354293665297232
  0.17480000000000001          1.0421617480008334
  0.17590000000000000          1.0990281541529037
  0.17700000000000005          1.1532633033431210
  0.17810000000000004          1.2039146481697760
  0.17920000000000003          1.2499625484202290
  0.18030000000000002          1.2903289463304544
  0.18140000000000001          1.3238881753482994
  0.18250000000000000          1.3494799197862237
  0.18360000000000004          1.3659242940145482
  0.18470000000000003          1.3720389568650104
  0.18580000000000002          1.3666581205052148
  0.18690000000000001          1.3486532541104064
  0.18800000000000000          1.3169552223236354
  0.18910000000000005          1.2705775382282967
  0.19020000000000004          1.2086403522081886
  0.19130000000000003          1.1303947437765220
  0.19240000000000002          1.0352468354412248
  0.19350000000000001         0.92278120802115604
  0.19460000000000005         0.79278306730569781
  0.19570000000000004         0.64525859396590513
  0.19680000000000003         0.48045290329451196
  0.19790000000000002         0.29886504962505905
  0.19900000000000001         0.10125953303111009
  0.20010000000000000        -0.11132619609261626
  0.20120000000000005        -0.33757868519857082
  0.20230000000000004        -0.57591026157643355
  0.20340000000000003        -0.82446594455863575
  0.20450000000000002         -1.0811356859995587
  0.20560000000000000         -1.3435720272713034
  0.20670000000000005         -1.6092131424041527
  0.20780000000000004         -1.8753111125125008
  0.20890000000000003         -2.1389651492647195
