 -0.12000000000000000          0.0000000000000000
 -0.11889999999999999          0.0000000000000000
 -0.11780000000000000          0.0000000000000000
 -0.11670000000000000          0.0000000000000000
 -0.11559999999999999          0.0000000000000000
 -0.11449999999999999          0.0000000000000000
 -0.11340000000000000          0.0000000000000000
 -0.11230000000000000          0.0000000000000000
 -0.11119999999999999          0.0000000000000000
 -0.11009999999999999          0.0000000000000000
 -0.10900000000000000          0.0000000000000000
 -0.10790000000000000          9.9269185621726167E-133
 -0.10679999999999999         -1.0282250460693175E-107
 -0.10569999999999999         -2.8180133549221598E-082
 -0.10460000000000000         -6.9614865140958618E-058
 -0.10349999999999999         -3.3089348937598021E-034
 -0.10239999999999999         -5.3425962829023026E-033
 -0.10130000000000000         -3.9164884938439886E-032
 -0.10020000000000000         -1.5959380585833421E-031
  -9.9099999999999994E-002    -2.9571434916771618E-031
  -9.7999999999999990E-002     5.6592716876028744E-031
  -9.6899999999999986E-002     5.7867656755409912E-030
  -9.5799999999999996E-002     1.8903044266562444E-029
  -9.4699999999999993E-002     2.5545324605454668E-029
  -9.3599999999999989E-002    -4.8556576583574998E-029
  -9.2499999999999999E-002    -3.4894835393192227E-028
  -9.1399999999999995E-002    -8.7326880112077030E-028
  -9.0299999999999991E-002    -7.7078176719242633E-028
  -8.9200000000000002E-002     2.4825329062379494E-027
  -8.8099999999999984E-002     1.1855253861308983E-026
  -8.6999999999999994E-002     2.3435604464668197E-026
  -8.5899999999999990E-002     1.2274715939188091E-026
  -8.4799999999999986E-002    -7.3157014715861958E-026
  -8.3699999999999997E-002    -2.6573087003818108E-025
  -8.2599999999999993E-002    -4.3925502013646955E-025
  -8.1499999999999989E-002    -1.2477395099056541E-025
  -8.0399999999999999E-002     1.4227426388855258E-024
  -7.9299999999999995E-002     4.3752089734009153E-024
  -7.8199999999999992E-002     6.4386318216046209E-024
  -7.7100000000000002E-002     1.1107852084717666E-024
  -7.5999999999999984E-002    -2.0164593823413447E-023
  -7.4899999999999994E-002    -5.6888538923326448E-023
  -7.3799999999999991E-002    -7.9373968518034318E-023
  -7.2699999999999987E-002    -1.5243479309027952E-023
  -7.1599999999999997E-002     2.2034105161191605E-022
  -7.0499999999999993E-002     6.1068275224365895E-022
  -6.9399999999999989E-002     8.5558231179471142E-022
  -6.8300000000000000E-002     2.7397751351310654E-022
  -6.7199999999999996E-002    -1.9001115195090134E-021
  -6.6099999999999992E-002    -5.5421256182189532E-021
  -6.5000000000000002E-002    -8.1726035542250761E-021
  -6.3899999999999985E-002    -4.2157985265202692E-021
  -6.2799999999999995E-002     1.2757888387258400E-020
  -6.1699999999999991E-002     4.2840892210100459E-020
  -6.0599999999999994E-002     6.9044753323443493E-020
  -5.9499999999999990E-002     5.1183518585854090E-020
  -5.8399999999999994E-002    -6.0672422119908039E-020
  -5.7299999999999990E-002    -2.7989454213021557E-019
  -5.6199999999999986E-002    -5.1106193096264094E-019
  -5.5099999999999996E-002    -4.9949667591301285E-019
  -5.3999999999999992E-002     1.0751880697058838E-019
  -5.2899999999999989E-002     1.5006760293078293E-018
  -5.1799999999999985E-002     3.2667674943354944E-018
  -5.0699999999999995E-002     4.0047174991968886E-018
  -4.9599999999999991E-002     1.4903360019778869E-018
  -4.8499999999999988E-002    -6.0713058603092770E-018
  -4.7399999999999998E-002    -1.7621431571050323E-017
  -4.6299999999999994E-002    -2.6662437246002757E-017
  -4.5199999999999990E-002    -2.0913053337275412E-017
  -4.4099999999999986E-002     1.2750510077744533E-017
  -4.2999999999999997E-002     7.6601583997754118E-017
  -4.1899999999999993E-002     1.4693244874916776E-016
  -4.0799999999999989E-002     1.6578496211109226E-016
  -3.9699999999999985E-002     5.4914971682831918E-017
  -3.8599999999999995E-002    -2.3615568395413868E-016
  -3.7499999999999992E-002    -6.5406429490865340E-016
  -3.6399999999999988E-002    -9.7476716791624737E-016
  -3.5299999999999984E-002    -8.1376839734519847E-016
  -3.4199999999999994E-002     2.1576153666074520E-016
  -3.3099999999999991E-002     2.1802325369355233E-015
  -3.1999999999999987E-002     4.4421583876073658E-015
  -3.0899999999999997E-002     5.4704290418639168E-015
  -2.9799999999999993E-002     3.1846291411386367E-015
  -2.8699999999999989E-002    -3.9330604015745088E-015
  -2.7599999999999986E-002    -1.5112690394977016E-014
  -2.6499999999999996E-002    -2.5727382819021294E-014
  -2.5399999999999992E-002    -2.7216502280883516E-014
  -2.4299999999999988E-002    -9.8864706369998821E-015
  -2.3199999999999985E-002     3.0965692143688993E-014
  -2.2099999999999995E-002     8.7214440759422330E-014
  -2.0999999999999991E-002     1.3254088621393975E-013
  -1.9899999999999987E-002     1.2540691162577299E-013
  -1.8799999999999983E-002     2.5121323343299369E-014
  -1.7699999999999994E-002    -1.7952806585504124E-013
  -1.6599999999999990E-002    -4.3857976207898087E-013
  -1.5499999999999986E-002    -6.2499709793686393E-013
  -1.4399999999999996E-002    -5.5717896283779358E-013
  -1.3299999999999992E-002    -7.4188365303787629E-014
  -1.2199999999999989E-002     8.4551179693812798E-013
  -1.1099999999999985E-002     1.9652444763894546E-012
  -9.9999999999999950E-003     2.7452972566868142E-012
  -8.8999999999999913E-003     2.4518252390866679E-012
  -7.7999999999999875E-003     4.6005678627070997E-013
  -6.6999999999999837E-003    -3.2967982613223695E-012
  -5.5999999999999939E-003    -7.8993657285808645E-012
  -4.4999999999999901E-003    -1.1296409517516957E-011
  -3.3999999999999864E-003    -1.0707715452369266E-011
  -2.2999999999999826E-003    -3.6984161507118924E-012
  -1.1999999999999927E-003     1.0249417518668967E-011
  -9.9999999999988987E-005     2.8218008702073624E-011
   1.0000000000000148E-003     4.3234405771141232E-011
   2.1000000000000185E-003     4.5412996455848326E-011
   3.2000000000000084E-003     2.5299584563075234E-011
   4.3000000000000121E-003    -2.1021176282665043E-011
   5.4000000000000159E-003    -8.6620295855785788E-011
   6.5000000000000058E-003    -1.5073415749306088E-010
   7.6000000000000234E-003    -1.8082452460341521E-010
   8.7000000000000133E-003    -1.4145944632233910E-010
   9.8000000000000032E-003    -9.5113897667086370E-012
   1.0900000000000021E-002     2.0800206033938259E-010
   1.2000000000000011E-002     4.6018371252939852E-010
   1.3100000000000001E-002     6.5096538750074845E-010
   1.4200000000000018E-002     6.5733124708690783E-010
   1.5300000000000008E-002     3.6922766001061432E-010
   1.6400000000000026E-002    -2.5484824024912697E-010
   1.7500000000000016E-002    -1.1322276984281999E-009
   1.8600000000000005E-002    -2.0239518559056121E-009
   1.9700000000000023E-002    -2.5518410552921912E-009
   2.0800000000000013E-002    -2.2832318377428339E-009
   2.1900000000000003E-002    -8.8357895049265754E-010
   2.3000000000000020E-002     1.6904954860794119E-009
   2.4100000000000010E-002     5.0157934017858535E-009
   2.5200000000000000E-002     8.1258751618009492E-009
   2.6300000000000018E-002     9.6163561355637711E-009
   2.7400000000000008E-002     7.9848134103011516E-009
   2.8500000000000025E-002     2.1899873491224571E-009
   2.9600000000000015E-002    -7.6821816633335590E-009
   3.0700000000000005E-002    -1.9859775802002209E-008
   3.1800000000000023E-002    -3.0714032734707819E-008
   3.2900000000000013E-002    -3.5243037542238890E-008
   3.4000000000000002E-002    -2.8347003290479725E-008
   3.5100000000000020E-002    -6.7825694042056024E-009
   3.6200000000000010E-002     2.8642567753949365E-008
   3.7300000000000028E-002     7.1379896340513585E-008
   3.8400000000000017E-002     1.0885413853174774E-007
   3.9500000000000007E-002     1.2434925612910661E-007
   4.0600000000000025E-002     1.0134401393575789E-007
   4.1700000000000015E-002     2.9760673436732079E-008
   4.2800000000000005E-002    -8.7367599924487287E-008
   4.3900000000000022E-002    -2.2909818323680427E-007
   4.5000000000000012E-002    -3.5619829488934286E-007
   4.6100000000000002E-002    -4.1715617791736502E-007
   4.7200000000000020E-002    -3.6104281034057875E-007
   4.8300000000000010E-002    -1.5543205266308152E-007
   4.9400000000000027E-002     1.9485727080728392E-007
   5.0500000000000017E-002     6.3428158607054209E-007
   5.1600000000000007E-002     1.0548545285370723E-006
   5.2700000000000025E-002     1.3110676479410789E-006
   5.3800000000000014E-002     1.2525624459601514E-006
   5.4900000000000004E-002     7.7032710801811352E-007
   5.6000000000000022E-002    -1.5349174797248969E-007
   5.7100000000000012E-002    -1.4064240772762655E-006
   5.8200000000000002E-002    -2.7327278157412719E-006
   5.9300000000000019E-002    -3.7592409368433888E-006
   6.0400000000000009E-002    -4.0650271495299040E-006
   6.1500000000000027E-002    -3.2885409259409728E-006
   6.2600000000000017E-002    -1.2532967242187557E-006
   6.3700000000000007E-002     1.9180124748642199E-006
   6.4800000000000024E-002     5.7368120273960290E-006
   6.5900000000000014E-002     9.3627681928923113E-006
   6.7000000000000004E-002     1.1719814882005292E-005
   6.8100000000000022E-002     1.1713559709315844E-005
   6.9200000000000012E-002     8.5219299850506012E-006
   7.0300000000000029E-002     1.9030624215271855E-006
   7.1400000000000019E-002    -7.5562480237298341E-006
   7.2500000000000009E-002    -1.8334261515691885E-005
   7.3600000000000027E-002    -2.8078759670828733E-005
   7.4700000000000016E-002    -3.3955056230826794E-005
   7.5800000000000006E-002    -3.3216826122281879E-005
   7.6900000000000024E-002    -2.3917416427737106E-005
   7.8000000000000014E-002    -5.6235292348035984E-006
   7.9100000000000004E-002     2.0041432827412959E-005
   8.0200000000000021E-002     4.9197588887795166E-005
   8.1300000000000011E-002     7.5985346067552638E-005
   8.2400000000000029E-002     9.3372716241005117E-005
   8.3500000000000019E-002     9.4440779763114576E-005
   8.4600000000000009E-002     7.3979638488897242E-005
   8.5700000000000026E-002     3.0125314720631406E-005
   8.6800000000000016E-002    -3.4299013858159396E-005
   8.7900000000000006E-002    -1.1108936145388155E-004
   8.9000000000000024E-002    -1.8692014520030361E-004
   9.0100000000000013E-002    -2.4475021283318273E-004
   9.1200000000000003E-002    -2.6639825208192526E-004
   9.2300000000000021E-002    -2.3609110483207058E-004
   9.3400000000000011E-002    -1.4454361755479803E-004
   9.4500000000000028E-002     7.1084082016071134E-006
   9.5600000000000018E-002     2.0438286336069665E-004
   9.6700000000000008E-002     4.1846388573477117E-004
   9.7800000000000026E-002     6.0797979860925178E-004
   9.8900000000000016E-002     7.2405300155316829E-004
  0.10000000000000001          7.1857877223098444E-004
  0.10110000000000002          5.5495586387615257E-004
  0.10220000000000001          2.1968330319615390E-004
  0.10330000000000003         -2.6747456555874135E-004
  0.10440000000000002         -8.4746368079504069E-004
  0.10550000000000001         -1.4226790707634674E-003
  0.10660000000000003         -1.8663739545346865E-003
  0.10770000000000002         -2.0412851563516672E-003
  0.10880000000000001         -1.8261468173891530E-003
  0.10990000000000003         -1.1466626717010649E-003
  0.11100000000000002         -5.5834910886342488E-006
  0.11210000000000001          1.4947486148676834E-003
  0.11320000000000002          3.1442462331353681E-003
  0.11430000000000001          4.6370243482089252E-003
  0.11540000000000003          5.6065644262832332E-003
  0.11650000000000002          5.6833449858804215E-003
  0.11760000000000001          4.5695228828104293E-003
  0.11870000000000003          2.1204996505777159E-003
  0.11980000000000002         -1.5807424912890186E-003
  0.12090000000000001         -6.1728769822641657E-003
  0.12200000000000003         -1.1005084692289150E-002
  0.12310000000000001         -1.5178226278557408E-002
  0.12420000000000003         -1.7644588851221783E-002
  0.12530000000000002         -1.7363359561096647E-002
  0.12640000000000001         -1.3498251761682086E-002
  0.12750000000000003         -5.6328667566132975E-003
  0.12860000000000002          6.0297572732533672E-003
  0.12970000000000001          2.0522481978955679E-002
  0.13080000000000003          3.6063609606542257E-002
  0.13190000000000002          5.0133761444318088E-002
  0.13300000000000001          5.9700239229406184E-002
  0.13410000000000000          6.1589813481852350E-002
  0.13520000000000004          5.2987109454741409E-002
  0.13630000000000003          3.2010075628383844E-002
  0.13740000000000002         -1.7100676237042783E-003
  0.13850000000000001         -4.6535444624597945E-002
  0.13960000000000000         -9.8514441395047836E-002
  0.14070000000000005        -0.15135603199284819
  0.14180000000000004        -0.19676035869733774
  0.14290000000000003        -0.22514410430547679
  0.14400000000000002        -0.22674888475482272
  0.14510000000000001        -0.19306127040438750
  0.14620000000000000        -0.11841124351594347
  0.14730000000000004         -1.5607703540285705E-003
  0.14840000000000003         0.15294486719968692
  0.14950000000000002         0.33390471181902776
  0.15060000000000001         0.52329396510158588
  0.15170000000000000         0.69697518809007641
  0.15280000000000005         0.82638212890270868
  0.15390000000000004         0.88116183500902034
  0.15500000000000003         0.83263757459050092
  0.15610000000000002         0.65782953967664815
  0.15720000000000001         0.34365696087459008
  0.15830000000000000        -0.10914134200656755
  0.15940000000000004        -0.68287799356300105
  0.16050000000000003         -1.3410874996356064
  0.16160000000000002         -2.0284470543844475
  0.16270000000000001         -2.6727868100090024
  0.16380000000000000         -3.1893667728888335
  0.16490000000000005         -3.4873956448598804
  0.16600000000000004         -3.4785398369725455
  0.16710000000000003         -3.0869367083413919
  0.16820000000000002         -2.2600051428235015
  0.16930000000000001        -0.97915983267011220
  0.17040000000000000         0.73059688407450274
  0.17150000000000004          2.7932925806111180
  0.17260000000000003          5.0778742817827291
  0.17370000000000002          7.3983152361916487
  0.17480000000000001          9.5186730308985208
  0.17590000000000000          11.163535561188928
  0.17700000000000005          12.033923408071276
  0.17810000000000004          11.828303512707064
  0.17920000000000003          10.267941658890699
  0.18030000000000002          7.1254172481422211
  0.18140000000000001          2.2547822967384565
  0.18250000000000000         -4.3783946416452180
  0.18360000000000004         -12.668966282419690
  0.18470000000000003         -22.347939467257930
  0.18580000000000002         -32.963583884715220
  0.18690000000000001         -43.869076756522880
  0.18800000000000000         -54.217236200202819
  0.18910000000000005         -62.962115457446252
  0.19020000000000004         -68.866304037842539
  0.19130000000000003         -70.511753380938288
  0.19240000000000002         -66.310873670431477
  0.19350000000000001         -54.513609376770432
  0.19460000000000005         -33.205277670982248
  0.19570000000000004        -0.28922985233600573
  0.19680000000000003          46.552056850531869
  0.19790000000000002          109.92398463468687
  0.19900000000000001          192.82127195192666
  0.20010000000000000          298.76966801590720
  0.20120000000000005          432.01308530869892
  0.20230000000000004          597.75048120433803
  0.20340000000000003          802.42604601481491
  0.20450000000000002          1054.0756617743821
  0.20560000000000000          1362.7323166924932
  0.20670000000000005          1740.8932961761620
  0.20780000000000004          2204.0525784089436
  0.20890000000000003          2771.3029406375626
