 -0.12000000000000000          0.0000000000000000
 -0.11889999999999999          0.0000000000000000
 -0.11780000000000000          0.0000000000000000
 -0.11670000000000000          0.0000000000000000
 -0.11559999999999999          0.0000000000000000
 -0.11449999999999999          3.5024999520795894E-072
 -0.11340000000000000         -4.9306303432093729E-046
 -0.11230000000000000          5.5769822749853339E-021
 -0.11119999999999999          5.4928222357161003E-020
 -0.11009999999999999          2.5914367500911526E-019
 -0.10900000000000000          7.3679466083061527E-019
 -0.10790000000000000          1.2123167108496547E-018
 -0.10679999999999999          2.8530736821945721E-019
 -0.10569999999999999         -4.6929583908672519E-018
 -0.10460000000000000         -1.5060167589560170E-017
 -0.10349999999999999         -2.4125199852880608E-017
 -0.10239999999999999         -9.5716431002921699E-018
 -0.10130000000000000          6.3359831921480425E-017
 -0.10020000000000000          2.1154681892606770E-016
  -9.9099999999999994E-002     3.7226142649023738E-016
  -9.7999999999999990E-002     3.4336378659977455E-016
  -9.6899999999999986E-002    -1.9147931818014772E-016
  -9.5799999999999996E-002    -1.4534244829461368E-015
  -9.4699999999999993E-002    -3.1565407196858488E-015
  -9.3599999999999989E-002    -4.0802615435303098E-015
  -9.2499999999999999E-002    -2.0672118828567970E-015
  -9.1399999999999995E-002     5.0179938070479644E-015
  -9.0299999999999991E-002     1.7163924485121007E-014
  -8.9200000000000002E-002     2.9595472211726950E-014
  -8.8099999999999984E-002     3.1503377853762179E-014
  -8.6999999999999994E-002     8.6512422708436443E-015
  -8.5899999999999990E-002    -4.8408894754330005E-014
  -8.4799999999999986E-002    -1.3172749936400984E-013
  -8.3699999999999997E-002    -2.0473426391547941E-013
  -8.2599999999999993E-002    -2.0216681403508486E-013
  -8.1499999999999989E-002    -5.0903066306129395E-014
  -8.0399999999999999E-002     2.8557871457282631E-013
  -7.9299999999999995E-002     7.5060590422519831E-013
  -7.8199999999999992E-002     1.1538534090606324E-012
  -7.7100000000000002E-002     1.1852726459255056E-012
  -7.5999999999999984E-002     5.1402980321720779E-013
  -7.4899999999999994E-002    -1.0284057638609969E-012
  -7.3799999999999991E-002    -3.2324508039644675E-012
  -7.2699999999999987E-002    -5.3641471736032428E-012
  -7.1599999999999997E-002    -6.2128229087153436E-012
  -7.0499999999999993E-002    -4.4228104876242969E-012
  -6.9399999999999989E-002     9.0123279339193317E-013
  -6.8300000000000000E-002     9.4718075655439132E-012
  -6.7199999999999996E-002     1.9272424183962104E-011
  -6.6099999999999992E-002     2.6537122868380701E-011
  -6.5000000000000002E-002     2.6517991158505098E-011
  -6.3899999999999985E-002     1.5058141323280492E-011
  -6.2799999999999995E-002    -9.3608741589733080E-012
  -6.1699999999999991E-002    -4.3759847592581445E-011
  -6.0599999999999994E-002    -7.9817672199985197E-011
  -5.9499999999999990E-002    -1.0474501155133136E-010
  -5.8399999999999994E-002    -1.0413837558137164E-010
  -5.7299999999999990E-002    -6.6417388444492216E-011
  -5.6199999999999986E-002     1.2222759028337502E-011
  -5.5099999999999996E-002     1.2384190034180653E-010
  -5.3999999999999992E-002     2.4725912838838156E-010
  -5.2899999999999989E-002     3.5002151031262687E-010
  -5.1799999999999985E-002     3.9396257962302936E-010
  -5.0699999999999995E-002     3.4351466825799295E-010
  -4.9599999999999991E-002     1.7519296168922574E-010
  -4.8499999999999988E-002    -1.1363870082805673E-010
  -4.7399999999999998E-002    -4.9843958713497694E-010
  -4.6299999999999994E-002    -9.2482894236258048E-010
  -4.5199999999999990E-002    -1.3102772858941208E-009
  -4.4099999999999986E-002    -1.5505039332754920E-009
  -4.2999999999999997E-002    -1.5308728492267551E-009
  -4.1899999999999993E-002    -1.1431360302140054E-009
  -4.0799999999999989E-002    -3.0769898027353797E-010
  -3.9699999999999985E-002     9.9919880891142359E-010
  -3.8599999999999995E-002     2.7155786428603562E-009
  -3.7499999999999992E-002     4.6655196938795800E-009
  -3.6399999999999988E-002     6.5394509461305323E-009
  -3.5299999999999984E-002     7.8914482145992414E-009
  -3.4199999999999994E-002     8.1623355172225654E-009
  -3.3099999999999991E-002     6.7357477812868085E-009
  -3.1999999999999987E-002     3.0307206999101019E-009
  -3.0899999999999997E-002    -3.3706430560866311E-009
  -2.9799999999999993E-002    -1.2567373803147721E-008
  -2.8699999999999989E-002    -2.4167469732707998E-008
  -2.7599999999999986E-002    -3.7114238044532288E-008
  -2.6499999999999996E-002    -4.9526640925316158E-008
  -2.5399999999999992E-002    -5.8566976655029692E-008
  -2.4299999999999988E-002    -6.0344396061976840E-008
  -2.3199999999999985E-002    -4.9855800767167371E-008
  -2.2099999999999995E-002    -2.0957444975920534E-008
  -2.0999999999999991E-002     3.3647880251849285E-008
  -1.9899999999999987E-002     1.2243075750607162E-007
  -1.8799999999999983E-002     2.5509052782151173E-007
  -1.7699999999999994E-002     4.4267775961107965E-007
  -1.6599999999999990E-002     6.9781607355916264E-007
  -1.5499999999999986E-002     1.0350541598064422E-006
  -1.4399999999999996E-002     1.4713761822524215E-006
  -1.3299999999999992E-002     2.0268958986635607E-006
  -1.2199999999999989E-002     2.7257574009825953E-006
  -1.1099999999999985E-002     3.5972634544326391E-006
  -9.9999999999999950E-003     4.6772504275892570E-006
  -8.8999999999999913E-003     6.0097259402746258E-006
  -7.7999999999999875E-003     7.6487811517275855E-006
  -6.6999999999999837E-003     9.6607845748279663E-006
  -5.5999999999999939E-003     1.2126860171005103E-005
  -4.4999999999999901E-003     1.5145651897450709E-005
  -3.3999999999999864E-003     1.8836382466805196E-005
  -2.2999999999999826E-003     2.3342227208425446E-005
  -1.1999999999999927E-003     2.8834043658447153E-005
  -9.9999999999988987E-005     3.5514520283922586E-005
   1.0000000000000148E-003     4.3622828020800888E-005
   2.1000000000000185E-003     5.3439870122966844E-005
   3.2000000000000084E-003     6.5294224774559007E-005
   4.3000000000000121E-003     7.9568859763685791E-005
   5.4000000000000159E-003     9.6708671751016327E-005
   6.5000000000000058E-003     1.1722886978195842E-004
   7.6000000000000234E-003     1.4172419028320244E-004
   8.7000000000000133E-003     1.7087890421595064E-004
   9.8000000000000032E-003     2.0547755854579880E-004
   1.0900000000000021E-002     2.4641638205511433E-004
   1.2000000000000011E-002     2.9471527489084742E-004
   1.3100000000000001E-002     3.5153028588575313E-004
   1.4200000000000018E-002     4.1816645632639798E-004
   1.5300000000000008E-002     4.9609087096161167E-004
   1.6400000000000026E-002     5.8694570768739443E-004
   1.7500000000000016E-002     6.9256102056849836E-004
   1.8600000000000005E-002     8.1496693224322010E-004
   1.9700000000000023E-002     9.5640485654775438E-004
   2.0800000000000013E-002     1.1193373237500192E-003
   2.1900000000000003E-002     1.3064559398226140E-003
   2.3000000000000020E-002     1.5206869759601812E-003
   2.4100000000000010E-002     1.7651940517568168E-003
   2.5200000000000000E-002     2.0433773416036979E-003
   2.6300000000000018E-002     2.3588686966822189E-003
   2.7400000000000008E-002     2.7155220346285792E-003
   2.8500000000000025E-002     3.1173983090443283E-003
   2.9600000000000015E-002     3.5687443385143307E-003
   3.0700000000000005E-002     4.0739647594726074E-003
   3.1800000000000023E-002     4.6375863801277010E-003
   3.2900000000000013E-002     5.2642142635002352E-003
   3.4000000000000002E-002     5.9584789622932925E-003
   3.5100000000000020E-002     6.7249744666310774E-003
   3.6200000000000010E-002     7.5681866008548825E-003
   3.7300000000000028E-002     8.4924118056708981E-003
   3.8400000000000017E-002     9.5016664536179286E-003
   3.9500000000000007E-002     1.0599587058799636E-002
   4.0600000000000025E-002     1.1789321952947776E-002
   4.1700000000000015E-002     1.3073415214724177E-002
   4.2800000000000005E-002     1.4453683870231137E-002
   4.3900000000000022E-002     1.5931089644375361E-002
   4.5000000000000012E-002     1.7505606844597867E-002
   4.6100000000000002E-002     1.9176088299387203E-002
   4.7200000000000020E-002     2.0940131639325926E-002
   4.8300000000000010E-002     2.2793948571939504E-002
   4.9400000000000027E-002     2.4732240131462684E-002
   5.0500000000000017E-002     2.6748081151480266E-002
   5.1600000000000007E-002     2.8832817392739990E-002
   5.2700000000000025E-002     3.0975978854320140E-002
   5.3800000000000014E-002     3.3165212810082299E-002
   5.4900000000000004E-002     3.5386240056851523E-002
   5.6000000000000022E-002     3.7622837747684261E-002
   5.7100000000000012E-002     3.9856852016382414E-002
   5.8200000000000002E-002     4.2068243370046006E-002
   5.9300000000000019E-002     4.4235167516780464E-002
   6.0400000000000009E-002     4.6334093882972084E-002
   6.1500000000000027E-002     4.8339963539100868E-002
   6.2600000000000017E-002     5.0226387585131427E-002
   6.3700000000000007E-002     5.1965886250571899E-002
   6.4800000000000024E-002     5.3530168059504668E-002
   6.5900000000000014E-002     5.4890447428328909E-002
   6.7000000000000004E-002     5.6017798041571656E-002
   6.8100000000000022E-002     5.6883538328213794E-002
   6.9200000000000012E-002     5.7459644373291485E-002
   7.0300000000000029E-002     5.7719184675867861E-002
   7.1400000000000019E-002     5.7636770325096169E-002
   7.2500000000000009E-002     5.7189013423187572E-002
   7.3600000000000027E-002     5.6354985944180931E-002
   7.4700000000000016E-002     5.5116670685579010E-002
   7.5800000000000006E-002     5.3459395554994078E-002
   7.6900000000000024E-002     5.1372242153152836E-002
   7.8000000000000014E-002     4.8848419495757280E-002
   7.9100000000000004E-002     4.5885593796282778E-002
   8.0200000000000021E-002     4.2486165548418608E-002
   8.1300000000000011E-002     3.8657485731189767E-002
   8.2400000000000029E-002     3.4412003824046050E-002
   8.3500000000000019E-002     2.9767341449888650E-002
   8.4600000000000009E-002     2.4746286821282576E-002
   8.5700000000000026E-002     1.9376706689693927E-002
   8.6800000000000016E-002     1.3691374123519019E-002
   8.7900000000000006E-002     7.7277121095291855E-003
   8.9000000000000024E-002     1.5274546438208876E-003
   9.0100000000000013E-002    -4.8637713670773210E-003
   9.1200000000000003E-002    -1.1396938441540813E-002
   9.2300000000000021E-002    -1.8020178533244783E-002
   9.3400000000000011E-002    -2.4679402586929949E-002
   9.4500000000000028E-002    -3.1318970017475876E-002
   9.5600000000000018E-002    -3.7882397132229760E-002
   9.6700000000000008E-002    -4.4313092365258495E-002
   9.7800000000000026E-002    -5.0555105319403201E-002
   9.8900000000000016E-002    -5.6553876073717271E-002
  0.10000000000000001         -6.2256971039583490E-002
  0.10110000000000002         -6.7614791838639360E-002
  0.10220000000000001         -7.2581244205107004E-002
  0.10330000000000003         -7.7114354744847985E-002
  0.10440000000000002         -8.1176824469561593E-002
  0.10550000000000001         -8.4736509326094708E-002
  0.10660000000000003         -8.7766819422808229E-002
  0.10770000000000002         -9.0247030287243207E-002
  0.10880000000000001         -9.2162501243887418E-002
  0.10990000000000003         -9.3504797848878607E-002
  0.11100000000000002         -9.4271717228848056E-002
  0.11210000000000001         -9.4467217109432663E-002
  0.11320000000000002         -9.4101251246689582E-002
  0.11430000000000001         -9.3189515847403689E-002
  0.11540000000000003         -9.1753113330593467E-002
  0.11650000000000002         -8.9818141384245001E-002
  0.11760000000000001         -8.7415216647810254E-002
  0.11870000000000003         -8.4578943447445321E-002
  0.11980000000000002         -8.1347338788805304E-002
  0.12090000000000001         -7.7761225258317274E-002
  0.12200000000000003         -7.3863603613948656E-002
  0.12310000000000001         -6.9699016700476624E-002
  0.12420000000000003         -6.5312915954041692E-002
  0.12530000000000002         -6.0751041214631971E-002
  0.12640000000000001         -5.6058823874772970E-002
  0.12750000000000003         -5.1280822568106593E-002
  0.12860000000000002         -4.6460199636208857E-002
  0.12970000000000001         -4.1638245496048783E-002
  0.13080000000000003         -3.6853956766238594E-002
  0.13190000000000002         -3.2143672623207588E-002
  0.13300000000000001         -2.7540772399110913E-002
  0.13410000000000000         -2.3075435968653270E-002
  0.13520000000000004         -1.8774467070790696E-002
  0.13630000000000003         -1.4661178429039157E-002
  0.13740000000000002         -1.0755336404252169E-002
  0.13850000000000001         -7.0731619471581615E-003
  0.13960000000000000         -3.6273838102870715E-003
  0.14070000000000005         -4.2733932048838729E-004
  0.14180000000000004          2.5208825033002083E-003
  0.14290000000000003          5.2142610800746982E-003
  0.14400000000000002          7.6526334785437244E-003
  0.14510000000000001          9.8384586550994586E-003
  0.14620000000000000          1.1776562655727995E-002
  0.14730000000000004          1.3473870613650777E-002
  0.14840000000000003          1.4939131184963218E-002
  0.14950000000000002          1.6182638797738198E-002
  0.15060000000000001          1.7215958740149039E-002
  0.15170000000000000          1.8051659666941628E-002
  0.15280000000000005          1.8703057551833827E-002
  0.15390000000000004          1.9183974463838405E-002
  0.15500000000000003          1.9508514830440072E-002
  0.15610000000000002          1.9690861124413712E-002
  0.15720000000000001          1.9745090236783048E-002
  0.15830000000000000          1.9685011227747455E-002
  0.15940000000000004          1.9524024703345948E-002
  0.16050000000000003          1.9275003734988506E-002
  0.16160000000000002          1.8950195979057002E-002
  0.16270000000000001          1.8561146410852550E-002
  0.16380000000000000          1.8118639819258639E-002
  0.16490000000000005          1.7632661902651076E-002
  0.16600000000000004          1.7112377483599277E-002
  0.16710000000000003          1.6566124064817837E-002
  0.16820000000000002          1.6001418732043526E-002
  0.16930000000000001          1.5424976306982347E-002
  0.17040000000000000          1.4842736674355846E-002
  0.17150000000000004          1.4259899333155289E-002
  0.17260000000000003          1.3680963417647830E-002
  0.17370000000000002          1.3109771659246195E-002
  0.17480000000000001          1.2549556985116238E-002
  0.17590000000000000          1.2002990655262459E-002
  0.17700000000000005          1.1472231018959471E-002
  0.17810000000000004          1.0958972120369717E-002
  0.17920000000000003          1.0464491499087474E-002
  0.18030000000000002          9.9896966128133168E-003
  0.18140000000000001          9.5351693616543848E-003
  0.18250000000000000          9.1012082332150405E-003
  0.18360000000000004          8.6878676416419116E-003
  0.18470000000000003          8.2949941306665401E-003
  0.18580000000000002          7.9222592663814213E-003
  0.18690000000000001          7.5691892504640042E-003
  0.18800000000000000          7.2351915001489962E-003
  0.18910000000000005          6.9195786095231438E-003
  0.19020000000000004          6.6215901720763325E-003
  0.19130000000000003          6.3404128784357887E-003
  0.19240000000000002          6.0751991212910561E-003
  0.19350000000000001          5.8250841007688259E-003
  0.19460000000000005          5.5892012114656863E-003
  0.19570000000000004          5.3666953836924358E-003
  0.19680000000000003          5.1567340856650441E-003
  0.19790000000000002          4.9585158563235027E-003
  0.19900000000000001          4.7712764680642918E-003
  0.20010000000000000          4.5942930300399872E-003
  0.20120000000000005          4.4268864623698079E-003
  0.20230000000000004          4.2684227661117652E-003
  0.20340000000000003          4.1183134003187523E-003
  0.20450000000000002          3.9760149128906424E-003
  0.20560000000000000          3.8410278264927201E-003
  0.20670000000000005          3.7128947084831580E-003
  0.20780000000000004          3.5911973726379573E-003
  0.20890000000000003          3.4755532506409344E-003
