 -0.12000000000000000          0.0000000000000000
 -0.11889999999999999          0.0000000000000000
 -0.11780000000000000          0.0000000000000000
 -0.11670000000000000          0.0000000000000000
 -0.11559999999999999          0.0000000000000000
 -0.11449999999999999          0.0000000000000000
 -0.11340000000000000          0.0000000000000000
 -0.11230000000000000          0.0000000000000000
 -0.11119999999999999         -3.5370693802471932E-098
 -0.11009999999999999          2.6165794161715751E-072
 -0.10900000000000000         -2.9508154450007175E-047
 -0.10790000000000000         -9.3703937000935735E-023
 -0.10679999999999999         -1.1826552848017656E-021
 -0.10569999999999999         -6.7813152384123568E-021
 -0.10460000000000000         -2.1352938214162828E-020
 -0.10349999999999999         -2.7609618824562939E-020
 -0.10239999999999999          7.0518095961140339E-020
 -0.10130000000000000          4.5679506089821500E-019
 -0.10020000000000000          1.0719148428607445E-018
  -9.9099999999999994E-002     6.5817507982001350E-019
  -9.7999999999999990E-002    -4.0619723465857824E-018
  -9.6899999999999986E-002    -1.5893145551304422E-017
  -9.5799999999999996E-002    -2.7027822612994553E-017
  -9.4699999999999993E-002    -4.1298691440756225E-018
  -9.3599999999999989E-002     1.0748578793181085E-016
  -9.2499999999999999E-002     3.1542159718678570E-016
  -9.1399999999999995E-002     4.2868314440534868E-016
  -9.0299999999999991E-002    -6.3425621665114843E-017
  -8.9200000000000002E-002    -1.7577968744243610E-015
  -8.8099999999999984E-002    -4.3763921597383882E-015
  -8.6999999999999994E-002    -5.2494500956014016E-015
  -8.5899999999999990E-002     1.2259931356084810E-015
  -8.4799999999999986E-002     2.0210638504247197E-014
  -8.3699999999999997E-002     4.6966614926345324E-014
  -8.2599999999999993E-002     5.4815746401501457E-014
  -8.1499999999999989E-002    -5.6964134255690574E-015
  -8.0399999999999999E-002    -1.7526041000018399E-013
  -7.9299999999999995E-002    -4.1163178942622713E-013
  -7.8199999999999992E-002    -5.0533714367323226E-013
  -7.7100000000000002E-002    -8.3035728707453771E-014
  -7.5999999999999984E-002     1.1684971927604582E-012
  -7.4899999999999994E-002     3.0081274868173282E-012
  -7.3799999999999991E-002     4.0903740075705177E-012
  -7.2699999999999987E-002     1.9452333868989282E-012
  -7.1599999999999997E-002    -5.7457465472966888E-012
  -7.0499999999999993E-002    -1.8275211452845030E-011
  -6.9399999999999989E-002    -2.8537331933085496E-011
  -6.8300000000000000E-002    -2.2207359013107243E-011
  -6.7199999999999996E-002     1.6414590814174033E-011
  -6.6099999999999992E-002     8.9774057256807411E-011
  -6.5000000000000002E-002     1.6802215765133174E-010
  -6.3899999999999985E-002     1.7944910081972418E-010
  -6.2799999999999995E-002     3.0711826125597221E-011
  -6.1699999999999991E-002    -3.2898617952489750E-010
  -6.0599999999999994E-002    -8.1174766262064573E-010
  -5.9499999999999990E-002    -1.1171814780541083E-009
  -5.8399999999999994E-002    -7.7142344968290328E-010
  -5.7299999999999990E-002     6.3902603664363914E-010
  -5.6199999999999986E-002     3.0453527919872765E-009
  -5.5099999999999996E-002     5.4611506314062687E-009
  -5.3999999999999992E-002     5.8868815899266511E-009
  -5.2899999999999989E-002     1.9562482856102879E-009
  -5.1799999999999985E-002    -7.5083810352315901E-009
  -5.0699999999999995E-002    -2.0441450697790651E-008
  -4.9599999999999991E-002    -3.0144242053663481E-008
  -4.8499999999999988E-002    -2.6213652180558103E-008
  -4.7399999999999998E-002     9.2026197741433485E-010
  -4.6299999999999994E-002     5.2188480200055131E-008
  -4.5199999999999990E-002     1.1183223264040308E-007
  -4.4099999999999986E-002     1.4471638423911960E-007
  -4.2999999999999997E-002     1.0517118550751413E-007
  -4.1899999999999993E-002    -3.9846903797950893E-008
  -4.0799999999999989E-002    -2.7828436694070683E-007
  -3.9699999999999985E-002    -5.2623213467971729E-007
  -3.8599999999999995E-002    -6.2889132613325777E-007
  -3.7499999999999992E-002    -4.0851420670906420E-007
  -3.6399999999999988E-002     2.3864364988453181E-007
  -3.5299999999999984E-002     1.2243045958395519E-006
  -3.4199999999999994E-002     2.1888174649287135E-006
  -3.3099999999999991E-002     2.5349394712701724E-006
  -3.1999999999999987E-002     1.6272875557597815E-006
  -3.0899999999999997E-002    -8.5719992606590167E-007
  -2.9799999999999993E-002    -4.5409873501773639E-006
  -2.8699999999999989E-002    -8.1223662159980304E-006
  -2.7599999999999986E-002    -9.5417063818747265E-006
  -2.6499999999999996E-002    -6.6689892833591761E-006
  -2.5399999999999992E-002     1.5746715241670287E-006
  -2.4299999999999988E-002     1.4035019313452366E-005
  -2.3199999999999985E-002     2.6685130467654173E-005
  -2.2099999999999995E-002     3.3150766501916259E-005
  -2.0999999999999991E-002     2.6720660796602619E-005
  -1.9899999999999987E-002     3.5474167217481161E-006
  -1.8799999999999983E-002    -3.4002299460776215E-005
  -1.7699999999999994E-002    -7.5442340512723487E-005
  -1.6599999999999990E-002    -1.0329458003103604E-004
  -1.5499999999999986E-002    -9.8044160659804930E-005
  -1.4399999999999996E-002    -4.6213328755153356E-005
  -1.3299999999999992E-002     5.0911490968798353E-005
  -1.2199999999999989E-002     1.7162283738315369E-004
  -1.1099999999999985E-002     2.7491459320910669E-004
  -9.9999999999999950E-003     3.1037597569579537E-004
  -8.8999999999999913E-003     2.3566354391946738E-004
  -7.7999999999999875E-003     3.6690589192262493E-005
  -6.6999999999999837E-003    -2.5697564742277750E-004
  -5.5999999999999939E-003    -5.6919634478349538E-004
  -4.4999999999999901E-003    -7.9149404449445522E-004
  -3.3999999999999864E-003    -8.1341481222156056E-004
  -2.2999999999999826E-003    -5.6144202893968810E-004
  -1.1999999999999927E-003    -3.4030227620116363E-005
  -9.9999999999988987E-005     6.8050751316825746E-004
   1.0000000000000148E-003     1.4123578983073993E-003
   2.1000000000000185E-003     1.9457552952054150E-003
   3.2000000000000084E-003     2.0733747021861142E-003
   4.3000000000000121E-003     1.6544566048012903E-003
   5.4000000000000159E-003     6.6017262663354062E-004
   6.5000000000000058E-003    -8.0558183638245633E-004
   7.6000000000000234E-003    -2.5131343779947958E-003
   8.7000000000000133E-003    -4.1363498528151979E-003
   9.8000000000000032E-003    -5.2947058382641710E-003
   1.0900000000000021E-002    -5.6006801310641294E-003
   1.2000000000000011E-002    -4.7120634204573623E-003
   1.3100000000000001E-002    -2.3959144474641775E-003
   1.4200000000000018E-002     1.3881384569028469E-003
   1.5300000000000008E-002     6.3868805568765173E-003
   1.6400000000000026E-002     1.1955342022645163E-002
   1.7500000000000016E-002     1.7003809834759579E-002
   1.8600000000000005E-002     2.0045868922185493E-002
   1.9700000000000023E-002     1.9397424086756307E-002
   2.0800000000000013E-002     1.3545380442031499E-002
   2.1900000000000003E-002     1.6512558775843792E-003
   2.3000000000000020E-002    -1.5907323806064896E-002
   2.4100000000000010E-002    -3.7105631197098754E-002
   2.5200000000000000E-002    -5.8119825630155310E-002
   2.6300000000000018E-002    -7.3597746354626986E-002
   2.7400000000000008E-002    -7.7425177291141248E-002
   2.8500000000000025E-002    -6.3953704518205048E-002
   2.9600000000000015E-002    -2.9535244759916618E-002
   3.0700000000000005E-002     2.5902171787859741E-002
   3.1800000000000023E-002     9.7579228979949625E-002
   3.2900000000000013E-002    0.17525678159509114
   3.4000000000000002E-002    0.24362001344169829
   3.5100000000000020E-002    0.28387183103780383
   3.6200000000000010E-002    0.27657436382924011
   3.7300000000000028E-002    0.20554282894194575
   3.8400000000000017E-002     6.2329587326002578E-002
   3.9500000000000007E-002   -0.14942005161354768
   4.0600000000000025E-002   -0.41064821390237843
   4.1700000000000015E-002   -0.68557017432020351
   4.2800000000000005E-002   -0.92321731255915129
   4.3900000000000022E-002    -1.0623726906237596
   4.5000000000000012E-002    -1.0399394790190681
   4.6100000000000002E-002   -0.80217153080253267
   4.7200000000000020E-002   -0.31756096314589272
   4.8300000000000010E-002    0.41038005902544600
   4.9400000000000027E-002     1.3325996046060660
   5.0500000000000017E-002     2.3485702511957589
   5.1600000000000007E-002     3.3071543426932135
   5.2700000000000025E-002     4.0160771663156858
   5.3800000000000014E-002     4.2610636698723754
   5.4900000000000004E-002     3.8345704041548117
   5.6000000000000022E-002     2.5725510264529006
   5.7100000000000012E-002    0.39591535532556871
   5.8200000000000002E-002    -2.6485129675714831
   5.9300000000000019E-002    -6.3543233109719184
   6.0400000000000009E-002    -10.336798665389479
   6.1500000000000027E-002    -14.036576922898016
   6.2600000000000017E-002    -16.751465874429922
   6.3700000000000007E-002    -17.699106107999238
   6.4800000000000024E-002    -16.108993776043686
   6.5900000000000014E-002    -11.337718021934057
   6.7000000000000004E-002    -2.9969456192069237
   6.8100000000000022E-002     8.9194969965251616
   6.9200000000000012E-002     23.924523238727215
   7.0300000000000029E-002     40.957124093980902
   7.1400000000000019E-002     58.343967581133690
   7.2500000000000009E-002     73.810745966240816
   7.3600000000000027E-002     84.545163427626733
   7.4700000000000016E-002     87.307086366303409
   7.5800000000000006E-002     78.574691580300893
   7.6900000000000024E-002     54.708915961230588
   7.8000000000000014E-002     12.112691732730658
   7.9100000000000004E-002    -52.642961953443894
   8.0200000000000021E-002    -142.75612435380705
   8.1300000000000011E-002    -261.22379388032419
   8.2400000000000029E-002    -410.98943749717273
   8.3500000000000019E-002    -595.22558834470794
   8.4600000000000009E-002    -817.75815704016622
   8.5700000000000026E-002    -1083.6268609892302
   8.6800000000000016E-002    -1399.7640568385959
   8.7900000000000006E-002    -1775.7642112959827
   8.9000000000000024E-002    -2224.7100289218415
   9.0100000000000013E-002    -2764.0201701723759
   9.1200000000000003E-002    -3416.2881616565705
   9.2300000000000021E-002    -4210.0923658933707
   9.3400000000000011E-002    -5180.7717847355989
   9.4500000000000028E-002    -6371.1803185941108
   9.5600000000000018E-002    -7832.4505760396614
   9.6700000000000008E-002    -9624.8147297769192
   9.7800000000000026E-002    -11818.541542996127
   9.8900000000000016E-002    -14495.053322330585
  0.10000000000000001         -17748.282954092050
  0.10110000000000002         -21686.319465347940
  0.10220000000000001         -26433.372246974697
  0.10330000000000003         -32132.061777293449
  0.10440000000000002         -38946.021372340932
  0.10550000000000001         -47062.772713857121
  0.10660000000000003         -56696.819154608354
  0.10770000000000002         -68092.885300323876
  0.10880000000000001         -81529.218436037001
  0.10990000000000003         -97320.856150586333
  0.11100000000000002         -115822.75477195873
  0.11210000000000001         -137432.66571465533
  0.11320000000000002         -162593.64305200957
  0.11430000000000001         -191796.06689672990
  0.11540000000000003         -225579.07351643036
  0.11650000000000002         -264531.29236607283
  0.11760000000000001         -309290.79803407984
  0.11870000000000003         -360544.18598301127
  0.11980000000000002         -419024.67017257103
  0.12090000000000001         -485509.07623580756
  0.12200000000000003         -560813.56809162733
  0.12310000000000001         -645787.90525739081
  0.12420000000000003         -741307.99209544249
  0.12530000000000002         -848266.45860636083
  0.12640000000000001         -967561.01268512523
  0.12750000000000003         -1100080.3292455943
  0.12860000000000002         -1246687.2907782050
  0.12970000000000001         -1408199.4614660807
  0.13080000000000003         -1585366.7560066413
  0.13190000000000002         -1778846.3484598631
  0.13300000000000001         -1989174.9517593284
  0.13410000000000000         -2216738.6838042890
  0.13520000000000004         -2461740.8223860529
  0.13630000000000003         -2724167.8406747938
  0.13740000000000002         -3003754.2093393854
  0.13850000000000001         -3299946.5510092862
  0.13960000000000000         -3611867.8363772682
  0.14070000000000005         -3938282.4156843224
  0.14180000000000004         -4277562.7799674645
  0.14290000000000003         -4627659.0374059230
  0.14400000000000002         -4986072.1648079567
  0.14510000000000001         -5349832.1464169649
  0.14620000000000000         -5715482.1370074721
  0.14730000000000004         -6079069.7818077318
  0.14840000000000003         -6436146.7938388586
  0.14950000000000002         -6781777.8344510002
  0.15060000000000001         -7110559.6704265065
  0.15170000000000000         -7416651.4934087200
  0.15280000000000005         -7693817.1808339618
  0.15390000000000004         -7935480.1406821236
  0.15500000000000003         -8134791.1982511254
  0.15610000000000002         -8284709.7344993679
  0.15720000000000001         -8378097.9619466839
  0.15830000000000000         -8407827.8288773075
  0.15940000000000004         -8366899.5952644916
  0.16050000000000003         -8248570.6577449990
  0.16160000000000002         -8046492.7550390204
  0.16270000000000001         -7754855.2930993987
  0.16380000000000000         -7368532.2098408947
  0.16490000000000005         -6883229.5523553789
  0.16600000000000004         -6295630.7489919672
  0.16710000000000003         -5603536.4023532467
  0.16820000000000002         -4805995.2913394803
  0.16930000000000001         -3903423.1517987563
  0.17040000000000000         -2897705.7274404815
  0.17150000000000004         -1792282.5822658290
  0.17260000000000003         -592208.28355421091
  0.17370000000000002          695812.16908762581
  0.17480000000000001          2063416.3685686206
  0.17590000000000000          3500608.1118734591
  0.17700000000000005          4995813.0572204730
  0.17810000000000004          6535967.1503058067
  0.17920000000000003          8106637.7888079323
  0.18030000000000002          9692176.9512167946
  0.18140000000000001          11275904.798159787
  0.18250000000000000          12840321.562054882
  0.18360000000000004          14367344.867341906
  0.18470000000000003          15838568.962504925
  0.18580000000000002          17235541.697154935
  0.18690000000000001          18540054.453538269
  0.18800000000000000          19734439.664449286
  0.18910000000000005          20801870.052001335
  0.19020000000000004          21726653.345910836
  0.19130000000000003          22494516.031649943
  0.19240000000000002          23092869.680066954
  0.19350000000000001          23511053.648796007
  0.19460000000000005          23740548.425090339
  0.19570000000000004          23775154.571010876
  0.19680000000000003          23611133.076384064
  0.19790000000000002          23247303.845842917
  0.19900000000000001          22685099.969860751
  0.20010000000000000          21928576.308399379
  0.20120000000000005          20984371.744013034
  0.20230000000000004          19861625.275639284
  0.20340000000000003          18571846.985780630
  0.20450000000000002          17128745.876023587
  0.20560000000000000          15548017.642142616
  0.20670000000000005          13847096.602684980
  0.20780000000000004          12044877.097745219
  0.20890000000000003          10161410.600488015
