 -0.12000000000000000          0.0000000000000000
 -0.11889999999999999          0.0000000000000000
 -0.11780000000000000          0.0000000000000000
 -0.11670000000000000          0.0000000000000000
 -0.11559999999999999          0.0000000000000000
 -0.11449999999999999          0.0000000000000000
 -0.11340000000000000          0.0000000000000000
 -0.11230000000000000          0.0000000000000000
 -0.11119999999999999          0.0000000000000000
 -0.11009999999999999          0.0000000000000000
 -0.10900000000000000          0.0000000000000000
 -0.10790000000000000          0.0000000000000000
 -0.10679999999999999          0.0000000000000000
 -0.10569999999999999          0.0000000000000000
 -0.10460000000000000          0.0000000000000000
 -0.10349999999999999          1.2364168910222711E-208
 -0.10239999999999999         -2.4612451724097027E-182
 -0.10130000000000000          6.2163901207894794E-157
 -0.10020000000000000          3.9164263744294069E-132
  -9.9099999999999994E-002    -8.5567413643544057E-107
  -9.7999999999999990E-002     1.7304583780220041E-082
  -9.6899999999999986E-002     1.0598863287575525E-057
  -9.5799999999999996E-002     2.3416603314878714E-056
  -9.4699999999999993E-002     2.4108999331435459E-055
  -9.3599999999999989E-002     1.4808787507550616E-054
  -9.2499999999999999E-002     5.5507055500099350E-054
  -9.1399999999999995E-002     9.1292605667270150E-054
  -9.0299999999999991E-002    -2.8290861762449310E-053
  -8.9200000000000002E-002    -2.4725905723319489E-052
  -8.8099999999999984E-002    -8.0016106554303340E-052
  -8.6999999999999994E-002    -9.2445489533952127E-052
  -8.5899999999999990E-002     3.6032136581643488E-051
  -8.4799999999999986E-002     2.1753386823979695E-050
  -8.3699999999999997E-002     5.2333323857734424E-050
  -8.2599999999999993E-002     2.6471680234266302E-050
  -8.1499999999999989E-002    -2.7473193307464994E-049
  -8.0399999999999999E-002    -1.1100969596491033E-048
  -7.9299999999999995E-002    -1.9456791401616168E-048
  -7.8199999999999992E-002     3.9365942880187840E-049
  -7.7100000000000002E-002     1.2535752707190657E-047
  -7.5999999999999984E-002     3.7054922101149632E-047
  -7.4899999999999994E-002     4.6866811926288883E-047
  -7.3799999999999991E-002    -4.9736754567581458E-047
  -7.2699999999999987E-002    -3.8359168827806483E-046
  -7.1599999999999997E-002    -8.9146794729769353E-046
  -7.0499999999999993E-002    -7.9425470183088403E-046
  -6.9399999999999989E-002     1.7899856412811259E-045
  -6.8300000000000000E-002     8.6494189598477442E-045
  -6.7199999999999996E-002     1.6676535689824429E-044
  -6.6099999999999992E-002     1.0058913375404019E-044
  -6.5000000000000002E-002    -4.1076588740987330E-044
  -6.3899999999999985E-002    -1.5376493292752436E-043
  -6.2799999999999995E-002    -2.5738988938127710E-043
  -6.1699999999999991E-002    -1.0172711851617667E-043
  -6.0599999999999994E-002     7.0406580419376799E-043
  -5.9499999999999990E-002     2.2614395376489288E-042
  -5.8399999999999994E-002     3.4318559315154192E-042
  -5.7299999999999990E-002     9.3565998147377012E-043
  -5.6199999999999986E-002    -9.6617504268104922E-042
  -5.5099999999999996E-002    -2.8463920466209712E-041
  -5.3999999999999992E-002    -4.0877574823121412E-041
  -5.2899999999999989E-002    -9.8339053180333153E-042
  -5.1799999999999985E-002     1.1012671167596465E-040
  -5.0699999999999995E-002     3.1370944095760427E-040
  -4.9599999999999991E-002     4.4422012776822681E-040
  -4.8499999999999988E-002     1.3038571910220459E-040
  -4.7399999999999998E-002    -1.0614685872028154E-039
  -4.6299999999999994E-002    -3.0700974726511144E-039
  -4.5199999999999990E-002    -4.4464363180947994E-039
  -4.4099999999999986E-002    -1.8379051555143589E-039
  -4.2999999999999997E-002     8.6667498490185165E-039
  -4.1899999999999993E-002     2.6853262366163490E-038
  -4.0799999999999989E-002     4.1027940211755148E-038
  -3.9699999999999985E-002     2.3644542746667652E-038
  -3.8599999999999995E-002    -5.8724795877277485E-038
  -3.7499999999999992E-002    -2.0988731011879480E-037
  -3.6399999999999988E-002    -3.4741827761153674E-037
  -3.5299999999999984E-002    -2.6483965000460671E-037
  -3.4199999999999994E-002     3.0674912793129521E-037
  -3.3099999999999991E-002     1.4552043185455838E-036
  -3.1999999999999987E-002     2.6801394325445906E-036
  -3.0899999999999997E-002     2.5738760056557748E-036
  -2.9799999999999993E-002    -8.7782007582506812E-037
  -2.8699999999999989E-002    -8.7906361995429880E-036
  -2.7599999999999986E-002    -1.8659446384368491E-035
  -2.6499999999999996E-002    -2.1831065032664426E-035
  -2.5399999999999992E-002    -4.4149007526975869E-036
  -2.4299999999999988E-002     4.4432947351557672E-035
  -2.3199999999999985E-002     1.1573907074616856E-034
  -2.2099999999999995E-002     1.6233454118827196E-034
  -2.0999999999999991E-002     9.7034186794378299E-035
  -1.9899999999999987E-002    -1.6786937175859583E-034
  -1.8799999999999983E-002    -6.2650261923303559E-034
  -1.7699999999999994E-002    -1.0582028925992712E-033
  -1.6599999999999990E-002    -9.7143699917125762E-034
  -1.5499999999999986E-002     2.4355817743627869E-034
  -1.4399999999999996E-002     2.8417524810949649E-033
  -1.3299999999999992E-002     6.0042481362162516E-033
  -1.2199999999999989E-002     7.2884604441762970E-033
  -1.1099999999999985E-002     3.0058175883409689E-033
  -9.9999999999999950E-003    -9.7063527497103772E-033
  -8.8999999999999913E-003    -2.9082132552741644E-032
  -7.7999999999999875E-003    -4.4782841176753180E-032
  -6.6999999999999837E-003    -3.7402803100992976E-032
  -5.5999999999999939E-003     1.4069459550858295E-032
  -4.4999999999999901E-003     1.1458616472971914E-031
  -3.3999999999999864E-003     2.2979833091984572E-031
  -2.2999999999999826E-003     2.7215079749990411E-031
  -1.1999999999999927E-003     1.1931745352646232E-031
  -9.9999999999988987E-005    -3.1575660135013666E-031
   1.0000000000000148E-003    -9.6878557479853539E-031
   2.1000000000000185E-003    -1.5139779172800926E-030
   3.2000000000000084E-003    -1.3616217732071149E-030
   4.3000000000000121E-003     1.2061029072133444E-031
   5.4000000000000159E-003     3.1168698335834558E-030
   6.5000000000000058E-003     6.7372796785438675E-030
   7.6000000000000234E-003     8.6404728482244460E-030
   8.7000000000000133E-003     5.4672971699401210E-030
   9.8000000000000032E-003    -5.4571380727563401E-030
   1.0900000000000021E-002    -2.3275437921731115E-029
   1.2000000000000011E-002    -4.0765271622015676E-029
   1.3100000000000001E-002    -4.3786580000664899E-029
   1.4200000000000018E-002    -1.5628257644759246E-029
   1.5300000000000008E-002     5.2488174745036655E-029
   1.6400000000000026E-002     1.4708236596647142E-028
   1.7500000000000016E-002     2.2167728979058935E-028
   1.8600000000000005E-002     2.0108197428673470E-028
   1.9700000000000023E-002     1.1123536754898931E-029
   2.0800000000000013E-002    -3.6541986438296732E-028
   2.1900000000000003E-002    -8.2462290406566350E-028
   2.3000000000000020E-002    -1.1085839010444894E-027
   2.4100000000000010E-002    -8.5503706670350494E-028
   2.5200000000000000E-002     2.3517872641917043E-028
   2.6300000000000018E-002     2.1314310334881180E-027
   2.7400000000000008E-002     4.2116545381674049E-027
   2.8500000000000025E-002     5.1927071939999399E-027
   2.9600000000000015E-002     3.4594108117639668E-027
   3.0700000000000005E-002    -2.1078745900675473E-027
   3.1800000000000023E-002    -1.0967089404570631E-026
   3.2900000000000013E-002    -1.9925065377186756E-026
   3.4000000000000002E-002    -2.3125641697543586E-026
   3.5100000000000020E-002    -1.3787963701464105E-026
   3.6200000000000010E-002     1.2091406599087876E-026
   3.7300000000000028E-002     5.0977607372347425E-026
   3.8400000000000017E-002     8.8246199784095345E-026
   3.9500000000000007E-002     9.9017740723492920E-026
   4.0600000000000025E-002     5.6099197688815369E-026
   4.1700000000000015E-002    -5.4747130047063954E-026
   4.2800000000000005E-002    -2.1640172868009094E-025
   4.3900000000000022E-002    -3.6796256518403017E-025
   4.5000000000000012E-002    -4.1013246826664210E-025
   4.6100000000000002E-002    -2.3763805714809094E-025
   4.7200000000000020E-002     2.0206655445034414E-025
   4.8300000000000010E-002     8.4076358909428023E-025
   4.9400000000000027E-002     1.4459416822242278E-024
   5.0500000000000017E-002     1.6436469501722853E-024
   5.1600000000000007E-002     1.0383993945204416E-024
   5.2700000000000025E-002    -5.7523604949336857E-025
   5.3800000000000014E-002    -2.9706469720073551E-024
   5.4900000000000004E-002    -5.3338519514216506E-024
   5.6000000000000022E-002    -6.3364065998061289E-024
   5.7100000000000012E-002    -4.5384382032056282E-024
   5.8200000000000002E-002     8.9610718745613510E-025
   5.9300000000000019E-002     9.3710594130819210E-024
   6.0400000000000009E-002     1.8294773022523371E-023
   6.1500000000000027E-002     2.3239859351878868E-023
   6.2600000000000017E-002     1.9164758041409575E-023
   6.3700000000000007E-002     2.6712693152012734E-024
   6.4800000000000024E-002    -2.5281540001394114E-023
   6.5900000000000014E-002    -5.7343499306808881E-023
   6.7000000000000004E-002    -7.9830917324030378E-023
   6.8100000000000022E-002    -7.5991811086768752E-023
   6.9200000000000012E-002    -3.2584368081008988E-023
   7.0300000000000029E-002     5.1710671224462269E-023
   7.1400000000000019E-002     1.5918543714431162E-022
   7.2500000000000009E-002     2.5141382785364592E-022
   7.3600000000000027E-002     2.7653941472945068E-022
   7.4700000000000016E-002     1.8660616034987168E-022
   7.5800000000000006E-002    -3.8199382847683430E-023
   7.6900000000000024E-002    -3.6622536599387030E-022
   7.8000000000000014E-002    -7.0303509826533575E-022
   7.9100000000000004E-002    -9.0284848040765734E-022
   8.0200000000000021E-002    -8.0819121535467784E-022
   8.1300000000000011E-002    -3.1315640301327375E-022
   8.2400000000000029E-002     5.6662669686222638E-022
   8.3500000000000019E-002     1.6443579877753472E-021
   8.4600000000000009E-002     2.5625434559703032E-021
   8.5700000000000026E-002     2.8646546886691463E-021
   8.6800000000000016E-002     2.1381806468955020E-021
   8.7900000000000006E-002     2.0034542661431387E-022
   8.9000000000000024E-002    -2.7304393359650177E-021
   9.0100000000000013E-002    -5.9503015116245779E-021
   9.1200000000000003E-002    -8.3390629528667842E-021
   9.2300000000000021E-002    -8.6148121070275542E-021
   9.3400000000000011E-002    -5.7480768735344987E-021
   9.4500000000000028E-002     5.5759072405661355E-022
   9.5600000000000018E-002     9.4673354740941084E-021
   9.6700000000000008E-002     1.8868463151889198E-020
   9.7800000000000026E-002     2.5614137206658093E-020
   9.8900000000000016E-002     2.6209488683713455E-020
  0.10000000000000001          1.7864014849603527E-020
  0.10110000000000002         -3.0676057197662900E-022
  0.10220000000000001         -2.6261559370820177E-020
  0.10330000000000003         -5.4574569274377838E-020
  0.10440000000000002         -7.6868749388163443E-020
  0.10550000000000001         -8.3318239945315530E-020
  0.10660000000000003         -6.5149542560769038E-020
  0.10770000000000002         -1.7767512285429698E-020
  0.10880000000000001          5.6169865233477419E-020
  0.10990000000000003          1.4463139320551925E-019
  0.11100000000000002          2.2602344279455717E-019
  0.11210000000000001          2.7175038827840357E-019
  0.11320000000000002          2.5190361939424174E-019
  0.11430000000000001          1.4373057649801683E-019
  0.11540000000000003         -5.8409630772026593E-020
  0.11650000000000002         -3.3389194576564580E-019
  0.11760000000000001         -6.3053612390786331E-019
  0.11870000000000003         -8.6646584915980340E-019
  0.11980000000000002         -9.4173113343001703E-019
  0.12090000000000001         -7.6053997094649518E-019
  0.12200000000000003         -2.6211301936417157E-019
  0.12310000000000001          5.4532573500919653E-019
  0.12420000000000003          1.5562915589452741E-018
  0.12530000000000002          2.5565484174613634E-018
  0.12640000000000001          3.2391716603225750E-018
  0.12750000000000003          3.2553392721870392E-018
  0.12860000000000002          2.2997341451866904E-018
  0.12970000000000001          2.2012853271320984E-019
  0.13080000000000003         -2.8707825684714851E-018
  0.13190000000000002         -6.5130390268272829E-018
  0.13300000000000001         -9.8828955276723052E-018
  0.13410000000000000         -1.1874459036833898E-017
  0.13520000000000004         -1.1297009747344000E-017
  0.13630000000000003         -7.1798677976529362E-018
  0.13740000000000002          8.5690050919520826E-019
  0.13850000000000001          1.2242888484124926E-017
  0.13960000000000000          2.5213717078034952E-017
  0.14070000000000005          3.6798343844682529E-017
  0.14180000000000004          4.3135085566950851E-017
  0.14290000000000003          4.0163728918724001E-017
  0.14400000000000002          2.4658265043179769E-017
  0.14510000000000001         -4.5408997056058842E-018
  0.14620000000000000         -4.5345749679788386E-017
  0.14730000000000004         -9.1626670235099635E-017
  0.14840000000000003         -1.3317252961597422E-016
  0.14950000000000002         -1.5671851329242218E-016
  0.15060000000000001         -1.4820027472061566E-016
  0.15170000000000000         -9.6137126671690374E-017
  0.15280000000000005          4.2824200972664116E-018
  0.15390000000000004          1.4718679644597180E-016
  0.15500000000000003          3.1313781444075490E-016
  0.15610000000000002          4.6856311121219029E-016
  0.15720000000000001          5.6856906501721142E-016
  0.15830000000000000          5.6376577461838061E-016
  0.15940000000000004          4.1098058237589031E-016
  0.16050000000000003          8.6723062186495051E-017
  0.16160000000000002         -3.9885772270132731E-016
  0.16270000000000001         -9.9078201195489547E-016
  0.16380000000000000         -1.5846608030254988E-015
  0.16490000000000005         -2.0324577631822754E-015
  0.16600000000000004         -2.1612560019654019E-015
  0.16710000000000003         -1.8055853584579720E-015
  0.16820000000000002         -8.5082162124794698E-016
  0.16930000000000001          7.1843887991055688E-016
  0.17040000000000000          2.7746558082249844E-015
  0.17150000000000004          5.0204913168778726E-015
  0.17260000000000003          6.9917446971565614E-015
  0.17370000000000002          8.1009361267313061E-015
  0.17480000000000001          7.7270474094467313E-015
  0.17590000000000000          5.3483031776522466E-015
  0.17700000000000005          7.0376186642062517E-016
  0.17810000000000004         -6.0424910970905097E-015
  0.17920000000000003         -1.4171194506156416E-014
  0.18030000000000002         -2.2354449902930136E-014
  0.18140000000000001         -2.8720205781360672E-014
  0.18250000000000000         -3.1064845611513167E-014
  0.18360000000000004         -2.7222207580458801E-014
  0.18470000000000003         -1.5565779582340805E-014
  0.18580000000000002          4.4170945196205052E-015
  0.18690000000000001          3.1578410757335750E-014
  0.18800000000000000          6.2719989408866145E-014
  0.18910000000000005          9.2504574067693751E-014
  0.19020000000000004          1.1379844927317140E-013
  0.19130000000000003          1.1853178571845877E-013
  0.19240000000000002          9.9084108223278520E-014
  0.19350000000000001          5.0093973409954909E-014
  0.19460000000000005         -2.9533557973008315E-014
  0.19570000000000004         -1.3477075602216993E-013
  0.19680000000000003         -2.5320514313309831E-013
  0.19790000000000002         -3.6484983455562008E-013
  0.19900000000000001         -4.4345493492882510E-013
  0.20010000000000000         -4.5959463717613629E-013
  0.20120000000000005         -3.8554185591746734E-013
  0.20230000000000004         -2.0158619812626343E-013
  0.20340000000000003          9.6958976728128201E-014
  0.20450000000000002          4.9321601627209093E-013
  0.20560000000000000          9.4413566728426219E-013
  0.20670000000000005          1.3794198827519073E-012
  0.20780000000000004          1.7054356114621365E-012
  0.20890000000000003          1.8151164058054647E-012
