 -0.12000000000000000          0.0000000000000000
 -0.11889999999999999          0.0000000000000000
 -0.11780000000000000          0.0000000000000000
 -0.11670000000000000          0.0000000000000000
 -0.11559999999999999          0.0000000000000000
 -0.11449999999999999          0.0000000000000000
 -0.11340000000000000          0.0000000000000000
 -0.11230000000000000          0.0000000000000000
 -0.11119999999999999          0.0000000000000000
 -0.11009999999999999          0.0000000000000000
 -0.10900000000000000          0.0000000000000000
 -0.10790000000000000          0.0000000000000000
 -0.10679999999999999          0.0000000000000000
 -0.10569999999999999          0.0000000000000000
 -0.10460000000000000          1.0218321413407199E-202
 -0.10349999999999999         -2.0340869193468615E-176
 -0.10239999999999999          5.1375124965202303E-151
 -0.10130000000000000          3.2367160119251293E-126
 -0.10020000000000000         -7.0716870779788470E-101
  -9.9099999999999994E-002     1.4301308909272759E-076
  -9.7999999999999990E-002     8.7593911467566319E-052
  -9.6899999999999986E-002     1.7600686493688930E-050
  -9.5799999999999996E-002     1.6141873802756589E-049
  -9.4699999999999993E-002     8.4472344416630669E-049
  -9.3599999999999989E-002     2.3388744147224515E-048
  -9.2499999999999999E-002    -4.0600973763453970E-049
  -9.1399999999999995E-002    -3.3883204418093720E-047
  -9.0299999999999991E-002    -1.5003972986906547E-046
  -8.9200000000000002E-002    -2.7597835771825857E-046
  -8.8099999999999984E-002     3.5422163513500052E-046
  -8.6999999999999994E-002     3.8445970109920310E-045
  -8.5899999999999990E-002     1.1258268274637581E-044
  -8.4799999999999986E-002     1.0272532122263952E-044
  -8.3699999999999997E-002    -4.6645934427456896E-044
  -8.2599999999999993E-002    -2.2755534684747777E-043
  -8.1499999999999989E-002    -4.4145571344259264E-043
  -8.0399999999999999E-002    -1.7946606451229007E-046
  -7.9299999999999995E-002     2.6239014458479405E-042
  -7.8199999999999992E-002     8.1014501730787470E-042
  -7.7100000000000002E-002     1.0228988525264624E-041
  -7.5999999999999984E-002    -1.2154776503156800E-041
  -7.4899999999999994E-002    -8.7946658114883955E-041
  -7.3799999999999991E-002    -1.9607551009637438E-040
  -7.2699999999999987E-002    -1.4381927711499616E-040
  -7.1599999999999997E-002     5.0007397064994894E-040
  -7.0499999999999993E-002     2.0553942955745457E-039
  -6.9399999999999989E-002     3.5332173350864528E-039
  -6.8300000000000000E-002     9.6502761273559210E-040
  -6.7199999999999996E-002    -1.2103090119336442E-038
  -6.6099999999999992E-002    -3.6791636199975982E-038
  -6.5000000000000002E-002    -5.0870117413343522E-038
  -6.3899999999999985E-002     7.4904030849456733E-039
  -6.2799999999999995E-002     2.1428737794946543E-037
  -6.1699999999999991E-002     5.3729764615276374E-037
  -6.0599999999999994E-002     6.2114116590513735E-037
  -5.9499999999999990E-002    -3.1979945420551308E-037
  -5.8399999999999994E-002    -3.0302581354612716E-036
  -5.7299999999999990E-002    -6.6952185605310836E-036
  -5.6199999999999986E-002    -6.7807930835660792E-036
  -5.5099999999999996E-002     5.2797650268491910E-036
  -5.3999999999999992E-002     3.5915143687603130E-035
  -5.2899999999999989E-002     7.3485080569346985E-035
  -5.1799999999999985E-002     6.9109183708794770E-035
  -5.0699999999999995E-002    -6.0390117744642149E-035
  -4.9599999999999991E-002    -3.6722735163359076E-034
  -4.8499999999999988E-002    -7.2563627904049405E-034
  -4.7399999999999998E-002    -6.7502031334155268E-034
  -4.6299999999999994E-002     5.2255375206992922E-034
  -4.5199999999999990E-002     3.2932809983670451E-033
  -4.4099999999999986E-002     6.5257221834317641E-033
  -4.2999999999999997E-002     6.3486425724066949E-033
  -4.1899999999999993E-002    -3.3155658442589412E-033
  -4.0799999999999989E-002    -2.6081053975767888E-032
  -3.9699999999999985E-002    -5.3707389387485652E-032
  -3.8599999999999995E-002    -5.6853864146753841E-032
  -3.7499999999999992E-002     1.1265741114690383E-032
  -3.6399999999999988E-002     1.8190875628072063E-031
  -3.5299999999999984E-002     4.0414062010658829E-031
  -3.4199999999999994E-002     4.7674910138709644E-031
  -3.3099999999999991E-002     6.3206548251833038E-032
  -3.1999999999999987E-002    -1.1001640833783656E-030
  -3.0899999999999997E-002    -2.7648203756958899E-030
  -2.9799999999999993E-002    -3.6868760679645257E-030
  -2.8699999999999989E-002    -1.6165240174442856E-030
  -2.7599999999999986E-002     5.5348690384541918E-030
  -2.6499999999999996E-002     1.7014696634927910E-029
  -2.5399999999999992E-002     2.5976598201891249E-029
  -2.4299999999999988E-002     1.8560558091202994E-029
  -2.3199999999999985E-002    -2.0422027233477257E-029
  -2.2099999999999995E-002    -9.2475888294212425E-029
  -2.0999999999999991E-002    -1.6496132575130617E-028
  -1.9899999999999987E-002    -1.6010718092683101E-028
  -1.8799999999999983E-002     2.2258656287771867E-029
  -1.7699999999999994E-002     4.2848443536714814E-028
  -1.6599999999999990E-002     9.3242089518968818E-028
  -1.5499999999999986E-002     1.1431397744224378E-027
  -1.4399999999999996E-002     4.6636475327487664E-028
  -1.3299999999999992E-002    -1.5523002869101168E-027
  -1.2199999999999989E-002    -4.6007067469383247E-027
  -1.1099999999999985E-002    -6.9665516381950548E-027
  -9.9999999999999950E-003    -5.5071152603139836E-027
  -8.8999999999999913E-003     3.0372489082807686E-027
  -7.7999999999999875E-003     1.9074997272538625E-026
  -6.6999999999999837E-003     3.6439855021562862E-026
  -5.5999999999999939E-003     4.0532597129759974E-026
  -4.4999999999999901E-003     1.2145009100219581E-026
  -3.3999999999999864E-003    -6.0214627776915811E-026
  -2.2999999999999826E-003    -1.6131058723429766E-025
  -1.1999999999999927E-003    -2.3325678587037780E-025
  -9.9999999999988987E-005    -1.8012803187752050E-025
   1.0000000000000148E-003     8.9121182617224447E-026
   2.1000000000000185E-003     5.7648635252440868E-025
   3.2000000000000084E-003     1.0990710081450180E-024
   4.3000000000000121E-003     1.2512623792840266E-024
   5.4000000000000159E-003     5.1582669594899969E-025
   6.5000000000000058E-003    -1.4191873349420107E-024
   7.6000000000000234E-003    -4.1953461553428950E-024
   8.7000000000000133E-003    -6.4059996400100300E-024
   9.8000000000000032E-003    -5.6974087655192669E-024
   1.0900000000000021E-002     2.7145962701670332E-025
   1.2000000000000011E-002     1.1957458943500279E-023
   1.3100000000000001E-002     2.5768289863268491E-023
   1.4200000000000018E-002     3.3023231432967138E-023
   1.5300000000000008E-002     2.1882445315404033E-023
   1.6400000000000026E-002    -1.6528320163071771E-023
   1.7500000000000016E-002    -7.8669619279316183E-023
   1.8600000000000005E-002    -1.3996952233717445E-022
   1.9700000000000023E-002    -1.5420244926118223E-022
   2.0800000000000013E-002    -6.8313750863495769E-023
   2.1900000000000003E-002     1.4482813446600841E-022
   2.3000000000000020E-002     4.4422134819819031E-022
   2.4100000000000010E-002     6.9146194940635610E-022
   2.5200000000000000E-002     6.6614587929443974E-022
   2.6300000000000018E-002     1.5204231207466085E-022
   2.7400000000000008E-002    -9.0840566020392723E-022
   2.8500000000000025E-002    -2.2432636678252133E-021
   2.9600000000000015E-002    -3.1685859666078851E-021
   3.0700000000000005E-002    -2.7206028203897264E-021
   3.1800000000000023E-002    -8.1620791828959052E-023
   3.2900000000000013E-002     4.7581815307928019E-021
   3.4000000000000002E-002     1.0362193649947363E-020
   3.5100000000000020E-002     1.3670820086340908E-020
   3.6200000000000010E-002     1.0749446671659142E-020
   3.7300000000000028E-002    -1.3368664144724112E-021
   3.8400000000000017E-002    -2.1898389646570523E-020
   3.9500000000000007E-002    -4.4371970226508376E-020
   4.0600000000000025E-002    -5.6138665042315506E-020
   4.1700000000000015E-002    -4.1990306526568308E-020
   4.2800000000000005E-002     8.3419521727997516E-021
   4.3900000000000022E-002     9.0405730100270531E-020
   4.5000000000000012E-002     1.7740852413319258E-019
   4.6100000000000002E-002     2.2083487642965611E-019
   4.7200000000000020E-002     1.6445654797148825E-019
   4.8300000000000010E-002    -2.7701604557015195E-020
   4.9400000000000027E-002    -3.3675440097676883E-019
   5.0500000000000017E-002    -6.6359737487595125E-019
   5.1600000000000007E-002    -8.3337842013385653E-019
   5.2700000000000025E-002    -6.4609543677700502E-019
   5.3800000000000014E-002     2.6616481900570757E-020
   5.4900000000000004E-002     1.1245044058097664E-018
   5.6000000000000022E-002     2.3144818553594867E-018
   5.7100000000000012E-002     3.0054355322820350E-018
   5.8200000000000002E-002     2.5127329214578700E-018
   5.9300000000000019E-002     3.7087717670715932E-019
   6.0400000000000009E-002    -3.2881217190793007E-018
   6.1500000000000027E-002    -7.4547005287808150E-018
   6.2600000000000017E-002    -1.0263130095652072E-017
   6.3700000000000007E-002    -9.4705128846174265E-018
   6.4800000000000024E-002    -3.3959917262970078E-018
   6.5900000000000014E-002     7.9128440398291542E-018
   6.7000000000000004E-002     2.1757458061556287E-017
   6.8100000000000022E-002     3.2701104767353836E-017
   6.9200000000000012E-002     3.3791401900588013E-017
   7.0300000000000029E-002     1.9156798854857921E-017
   7.1400000000000019E-002    -1.2600310091334783E-017
   7.2500000000000009E-002    -5.5456862672338408E-017
   7.3600000000000027E-002    -9.5089951450730407E-017
   7.4700000000000016E-002    -1.1146470150245958E-016
   7.5800000000000006E-002    -8.5306148717877488E-017
   7.6900000000000024E-002    -7.2592967977508992E-018
   7.8000000000000014E-002     1.1322012407367271E-016
   7.9100000000000004E-002     2.4336417123578592E-016
   8.0200000000000021E-002     3.3089053494911117E-016
   8.1300000000000011E-002     3.1797379135049257E-016
   8.2400000000000029E-002     1.6359354631208342E-016
   8.3500000000000019E-002    -1.3185605183319410E-016
   8.4600000000000009E-002    -5.0915226074058902E-016
   8.5700000000000026E-002    -8.5007047477065046E-016
   8.6800000000000016E-002    -1.0011249409153254E-015
   8.7900000000000006E-002    -8.2061945644474669E-016
   8.9000000000000024E-002    -2.3890695295886686E-016
   9.0100000000000013E-002     6.8686011108872169E-016
   9.1200000000000003E-002     1.7462911463482952E-015
   9.2300000000000021E-002     2.5970945352510950E-015
   9.3400000000000011E-002     2.8420928628909562E-015
   9.4500000000000028E-002     2.1521298780548616E-015
   9.5600000000000018E-002     4.0610159318809516E-016
   9.6700000000000008E-002    -2.1945897710960308E-015
   9.7800000000000026E-002    -5.0829112212508496E-015
   9.8900000000000016E-002    -7.3891118274093314E-015
  0.10000000000000001         -8.1200839565869665E-015
  0.10110000000000002         -6.4330771712920553E-015
  0.10220000000000001         -1.9489347972843903E-015
  0.10330000000000003          4.9742394956793814E-015
  0.10440000000000002          1.3094784757548365E-014
  0.10550000000000001          2.0345609869172371E-014
  0.10660000000000003          2.4143250322969301E-014
  0.10770000000000002          2.1946567969890722E-014
  0.10880000000000001          1.2003430126557591E-014
  0.10990000000000003         -5.8425441181850296E-015
  0.11100000000000002         -2.9475292648918634E-014
  0.11210000000000001         -5.4193152370254694E-014
  0.11320000000000002         -7.2996920671126511E-014
  0.11430000000000001         -7.7658813532081404E-014
  0.11540000000000003         -6.0613312168244458E-014
  0.11650000000000002         -1.7489143098015143E-014
  0.11760000000000001          5.0177233793617718E-014
  0.11870000000000003          1.3278052973696402E-013
  0.11980000000000002          2.1194747665597964E-013
  0.12090000000000001          2.6217833809818325E-013
  0.12200000000000003          2.5538165519921033E-013
  0.12310000000000001          1.6820418972124742E-013
  0.12420000000000003         -8.8503846446184919E-015
  0.12530000000000002         -2.6250712037593195E-013
  0.12640000000000001         -5.5078977768326232E-013
  0.12750000000000003         -8.0311796600397741E-013
  0.12860000000000002         -9.2892602105217500E-013
  0.12970000000000001         -8.3578966009191277E-013
  0.13080000000000003         -4.5565731997611801E-013
  0.13190000000000002          2.2512393182708669E-013
  0.13300000000000001          1.1390851170937443E-012
  0.13410000000000000          2.1231510732656948E-012
  0.13520000000000004          2.9253658348769950E-012
  0.13630000000000003          3.2393606257496542E-012
  0.13740000000000002          2.7679501389103900E-012
  0.13850000000000001          1.3097856355209182E-012
  0.13960000000000000         -1.1456213448450000E-012
  0.14070000000000005         -4.3370950779993817E-012
  0.14180000000000004         -7.6926432814009705E-012
  0.14290000000000003         -1.0358766303568080E-011
  0.14400000000000002         -1.1317108159703651E-011
  0.14510000000000001         -9.5914753928899525E-012
  0.14620000000000000         -4.5256781662221071E-012
  0.14730000000000004          3.9132736978815328E-012
  0.14840000000000003          1.4875930334236884E-011
  0.14950000000000002          2.6499357229962375E-011
  0.15060000000000001          3.5987528493486568E-011
  0.15170000000000000          3.9963965884323559E-011
  0.15280000000000005          3.5111429404750918E-011
  0.15390000000000004          1.9046811277750143E-011
  0.15500000000000003         -8.6989431597915472E-012
  0.15610000000000002         -4.5801109889598479E-011
  0.15720000000000001         -8.6619210085828005E-011
  0.15830000000000000         -1.2229909243277648E-010
  0.15940000000000004         -1.4171266772471482E-010
  0.16050000000000003         -1.3332501214746039E-010
  0.16160000000000002         -8.7887193690698882E-011
  0.16270000000000001         -1.6152907578803888E-012
  0.16380000000000000          1.2072878587919564E-010
  0.16490000000000005          2.6363530692037212E-010
  0.16600000000000004          4.0038750602525294E-010
  0.16710000000000003          4.9511825925834288E-010
  0.16820000000000002          5.0784856524667671E-010
  0.16930000000000001          4.0244332822803608E-010
  0.17040000000000000          1.5670957052765326E-010
  0.17150000000000004         -2.2692737882165214E-010
  0.17260000000000003         -7.1244789314375499E-010
  0.17370000000000002         -1.2256860717845624E-009
  0.17480000000000001         -1.6569053838924871E-009
  0.17590000000000000         -1.8725595697827571E-009
  0.17700000000000005         -1.7369517787433997E-009
  0.17810000000000004         -1.1425210293841081E-009
  0.17920000000000003         -4.5084287361829758E-011
  0.18030000000000002          1.5020657176389955E-009
  0.18140000000000001          3.3232364035355692E-009
  0.18250000000000000          5.1134527778569065E-009
  0.18360000000000004          6.4576776587302772E-009
  0.18470000000000003          6.8813604163994302E-009
  0.18580000000000002          5.9325968064082102E-009
  0.18690000000000001          3.2894730692687232E-009
  0.18800000000000000         -1.1214826385973471E-009
  0.18910000000000005         -7.0171152507024380E-009
  0.19020000000000004         -1.3686395669578749E-008
  0.19130000000000003         -1.9984309041708777E-008
  0.19240000000000002         -2.4415253981936657E-008
  0.19350000000000001         -2.5320162454247606E-008
  0.19460000000000005         -2.1165013773717668E-008
  0.19570000000000004         -1.0906767819641961E-008
  0.19680000000000003          5.6113187507492937E-009
  0.19790000000000002          2.7305447148195570E-008
  0.19900000000000001          5.1624295971813068E-008
  0.20010000000000000          7.4539242566925777E-008
  0.20120000000000005          9.0828823580607421E-008
  0.20230000000000004          9.4702080217510499E-008
  0.20340000000000003          8.0753607181463707E-008
  0.20450000000000002          4.5175711957196998E-008
  0.20560000000000000         -1.2921847557459536E-008
  0.20670000000000005         -9.0304534510261042E-008
  0.20780000000000004         -1.7878920195611646E-007
  0.20890000000000003         -2.6509080883634765E-007
