 -0.12000000000000000          0.0000000000000000
 -0.11889999999999999          3.3061799049931382E-006
 -0.11780000000000000          9.4723015046074373E-006
 -0.11670000000000000          1.7183249689087099E-005
 -0.11559999999999999          2.4946010915299688E-005
 -0.11449999999999999          3.1850345413887558E-005
 -0.11340000000000000          3.8043897739379981E-005
 -0.11230000000000000          4.4716015340944508E-005
 -0.11119999999999999          5.3630385730862297E-005
 -0.11009999999999999          6.6464605633009054E-005
 -0.10900000000000000          8.4297210590177481E-005
 -0.10790000000000000          1.0749231869973566E-004
 -0.10679999999999999          1.3601984785063968E-004
 -0.10569999999999999          1.7002688450062846E-004
 -0.10460000000000000          2.1035739644079341E-004
 -0.10349999999999999          2.5876120403463336E-004
 -0.10239999999999999          3.1771197144859169E-004
 -0.10130000000000000          3.8997110034694259E-004
 -0.10020000000000000          4.7817431105966413E-004
  -9.9099999999999994E-002     5.8470670321065143E-004
  -9.7999999999999990E-002     7.1197663175100114E-004
  -9.6899999999999986E-002     8.6298171085741088E-004
  -9.5799999999999996E-002     1.0418974562728372E-003
  -9.4699999999999993E-002     1.2543984021651329E-003
  -9.3599999999999989E-002     1.5075566425074051E-003
  -9.2499999999999999E-002     1.8093852715513825E-003
  -9.1399999999999995E-002     2.1682886694999490E-003
  -9.0299999999999991E-002     2.5927451786924051E-003
  -8.9200000000000002E-002     3.0914439212953036E-003
  -8.8099999999999984E-002     3.6738758610434354E-003
  -8.6999999999999994E-002     4.3511507722736303E-003
  -8.5899999999999990E-002     5.1366927038783540E-003
  -8.4799999999999986E-002     6.0465186024841033E-003
  -8.3699999999999997E-002     7.0990034423107111E-003
  -8.2599999999999993E-002     8.3142816149359075E-003
  -8.1499999999999989E-002     9.7136051688497278E-003
  -8.0399999999999999E-002     1.1318989468581585E-002
  -7.9299999999999995E-002     1.3153321750142293E-002
  -7.8199999999999992E-002     1.5240866558359472E-002
  -7.7100000000000002E-002     1.7607895502020642E-002
  -7.5999999999999984E-002     2.0283099541784973E-002
  -7.4899999999999994E-002     2.3297542032051997E-002
  -7.3799999999999991E-002     2.6684126084246324E-002
  -7.2699999999999987E-002     3.0476769279819838E-002
  -7.1599999999999997E-002     3.4709591087044245E-002
  -7.0499999999999993E-002     3.9416368923442011E-002
  -6.9399999999999989E-002     4.4630336780409452E-002
  -6.8300000000000000E-002     5.0384182464844759E-002
  -6.7199999999999996E-002     5.6709959660821326E-002
  -6.6099999999999992E-002     6.3638641275248042E-002
  -6.5000000000000002E-002     7.1199194508456062E-002
  -6.3899999999999985E-002     7.9417274914992203E-002
  -6.2799999999999995E-002     8.8313803478580644E-002
  -6.1699999999999991E-002     9.7903721162904606E-002
  -6.0599999999999994E-002    0.10819509452500362
  -5.9499999999999990E-002    0.11918853763374948
  -5.8399999999999994E-002    0.13087672919137974
  -5.7299999999999990E-002    0.14324373780044489
  -5.6199999999999986E-002    0.15626395916812985
  -5.5099999999999996E-002    0.16990067226671299
  -5.3999999999999992E-002    0.18410443458243897
  -5.2899999999999989E-002    0.19881165164404280
  -5.1799999999999985E-002    0.21394361496271871
  -5.0699999999999995E-002    0.22940612678705224
  -4.9599999999999991E-002    0.24508960947470476
  -4.8499999999999988E-002    0.26086944385704608
  -4.7399999999999998E-002    0.27660627176390862
  -4.6299999999999994E-002    0.29214613583325305
  -4.5199999999999990E-002    0.30732054269542125
  -4.4099999999999986E-002    0.32194671364516775
  -4.2999999999999997E-002    0.33582833857443189
  -4.1899999999999993E-002    0.34875704772357147
  -4.0799999999999989E-002    0.36051461294553089
  -3.9699999999999985E-002    0.37087568763407147
  -3.8599999999999995E-002    0.37961079230034878
  -3.7499999999999992E-002    0.38648929801577553
  -3.6399999999999988E-002    0.39128232314125755
  -3.5299999999999984E-002    0.39376565006544700
  -3.4199999999999994E-002    0.39372288465876687
  -3.3099999999999991E-002    0.39094905826242377
  -3.1999999999999987E-002    0.38525471905371839
  -3.0899999999999997E-002    0.37647035269745488
  -2.9799999999999993E-002    0.36445081522933781
  -2.8699999999999989E-002    0.34907943225442833
  -2.7599999999999986E-002    0.33027153017347871
  -2.6499999999999996E-002    0.30797735800388132
  -2.5399999999999992E-002    0.28218453242777675
  -2.4299999999999988E-002    0.25292020484830025
  -2.3199999999999985E-002    0.22025307493083929
  -2.2099999999999995E-002    0.18429520080833672
  -2.0999999999999991E-002    0.14520337418355123
  -1.9899999999999987E-002    0.10317973566569374
  -1.8799999999999983E-002     5.8471353451762083E-002
  -1.7699999999999994E-002     1.1368657399425287E-002
  -1.6599999999999990E-002    -3.7797169527962304E-002
  -1.5499999999999986E-002    -8.8657589074351825E-002
  -1.4399999999999996E-002   -0.14081061673478437
  -1.3299999999999992E-002   -0.19382506873699032
  -1.2199999999999989E-002   -0.24724514457633143
  -1.1099999999999985E-002   -0.30059548397980157
  -9.9999999999999950E-003   -0.35338686986277340
  -8.8999999999999913E-003   -0.40512265117715124
  -7.7999999999999875E-003   -0.45530577741479983
  -6.6999999999999837E-003   -0.50344615924881131
  -5.5999999999999939E-003   -0.54906798397763856
  -4.4999999999999901E-003   -0.59171665978650423
  -3.3999999999999864E-003   -0.63096521251920246
  -2.2999999999999826E-003   -0.66642013396599054
  -1.1999999999999927E-003   -0.69772679212818867
  -9.9999999999988987E-005   -0.72457450731031814
   1.0000000000000148E-003   -0.74670128170925754
   2.1000000000000185E-003   -0.76389801051576356
   3.2000000000000084E-003   -0.77601188849140790
   4.3000000000000121E-003   -0.78294872349749545
   5.4000000000000159E-003   -0.78467398658978382
   6.5000000000000058E-003   -0.78121261488755978
   7.6000000000000234E-003   -0.77264775214391812
   8.7000000000000133E-003   -0.75911868652817049
   9.8000000000000032E-003   -0.74081819800965887
   1.0900000000000021E-002   -0.71798939332329992
   1.2000000000000011E-002   -0.69092196271150685
   1.3100000000000001E-002   -0.65994772042234473
   1.4200000000000018E-002   -0.62543533281745289
   1.5300000000000008E-002   -0.58778427670733358
   1.6400000000000026E-002   -0.54741823876986273
   1.7500000000000016E-002   -0.50477828199576025
   1.8600000000000005E-002   -0.46031611149606066
   1.9700000000000023E-002   -0.41448766909862500
   2.0800000000000013E-002   -0.36774712771795764
   2.1900000000000003E-002   -0.32054122233879723
   2.3000000000000020E-002   -0.27330380937297183
   2.4100000000000010E-002   -0.22645060707109158
   2.5200000000000000E-002   -0.18037419796667045
   2.6300000000000018E-002   -0.13543949664470709
   2.7400000000000008E-002    -9.1979932706386131E-002
   2.8500000000000025E-002    -5.0294539419710439E-002
   2.9600000000000015E-002    -1.0645997653193837E-002
   3.0700000000000005E-002     2.6740471676315204E-002
   3.1800000000000023E-002     6.1677571859637924E-002
   3.2900000000000013E-002     9.4015953918332076E-002
   3.4000000000000002E-002    0.12364390682796601
   3.5100000000000020E-002    0.15048668954225841
   3.6200000000000010E-002    0.17450538336482962
   3.7300000000000028E-002    0.19569513554947604
   3.8400000000000017E-002    0.21408275256828208
   3.9500000000000007E-002    0.22972374118949127
   4.0600000000000025E-002    0.24269901746503542
   4.1700000000000015E-002    0.25311154719047602
   4.2800000000000005E-002    0.26108312551423435
   4.3900000000000022E-002    0.26675137716783348
   4.5000000000000012E-002    0.27026692565389110
   4.6100000000000002E-002    0.27179060472363026
   4.7200000000000020E-002    0.27149060241610362
   4.8300000000000010E-002    0.26953952299610973
   4.9400000000000027E-002    0.26611147200855856
   5.0500000000000017E-002    0.26137934961935838
   5.1600000000000007E-002    0.25551253451828415
   5.2700000000000025E-002    0.24867505524218719
   5.3800000000000014E-002    0.24102422030494611
   5.4900000000000004E-002    0.23270957502299217
   5.6000000000000022E-002    0.22387202091077421
   5.7100000000000012E-002    0.21464298498412687
   5.8200000000000002E-002    0.20514363045709721
   5.9300000000000019E-002    0.19548420029969782
   6.0400000000000009E-002    0.18576362776365629
   6.1500000000000027E-002    0.17606951101655363
   6.2600000000000017E-002    0.16647845194585947
   6.3700000000000007E-002    0.15705665246538125
   6.4800000000000024E-002    0.14786060022023112
   6.5900000000000014E-002    0.13893769054439831
   6.7000000000000004E-002    0.13032671452551231
   6.8100000000000022E-002    0.12205825113228441
   6.9200000000000012E-002    0.11415507951606635
   7.0300000000000029E-002    0.10663273695776992
   7.1400000000000019E-002     9.9500285381909720E-002
   7.2500000000000009E-002     9.2761248496108117E-002
   7.3600000000000027E-002     8.6414594985952234E-002
   7.4700000000000016E-002     8.0455615228552144E-002
   7.5800000000000006E-002     7.4876583564569985E-002
   7.6900000000000024E-002     6.9667192171804684E-002
   7.8000000000000014E-002     6.4814838374403702E-002
   7.9100000000000004E-002     6.0304897292537754E-002
   8.0200000000000021E-002     5.6121092749247203E-002
   8.1300000000000011E-002     5.2246003357283931E-002
   8.2400000000000029E-002     4.8661648159644272E-002
   8.3500000000000019E-002     4.5350034719571441E-002
   8.4600000000000009E-002     4.2293552633717466E-002
   8.5700000000000026E-002     3.9475155438770324E-002
   8.6800000000000016E-002     3.6878361770994711E-002
   8.7900000000000006E-002     3.4487177133609437E-002
   8.9000000000000024E-002     3.2286055587663780E-002
   9.0100000000000013E-002     3.0259978712362252E-002
   9.1200000000000003E-002     2.8394650616073699E-002
   9.2300000000000021E-002     2.6676733926751062E-002
   9.3400000000000011E-002     2.5094020251222759E-002
   9.4500000000000028E-002     2.3635454507795826E-002
   9.5600000000000018E-002     2.2291000967180213E-002
   9.6700000000000008E-002     2.1051413541483523E-002
   9.7800000000000026E-002     1.9908015286294791E-002
   9.8900000000000016E-002     1.8852581135006929E-002
  0.10000000000000001          1.7877360279197150E-002
  0.10110000000000002          1.6975200732348920E-002
  0.10220000000000001          1.6139686420005146E-002
  0.10330000000000003          1.5365192587425103E-002
  0.10440000000000002          1.4646809437377301E-002
  0.10550000000000001          1.3980152923512186E-002
  0.10660000000000003          1.3361139693164468E-002
  0.10770000000000002          1.2785820971280833E-002
  0.10880000000000001          1.2250339636015371E-002
  0.10990000000000003          1.1751012569703574E-002
  0.11100000000000002          1.1284478887332285E-002
  0.11210000000000001          1.0847824897442494E-002
  0.11320000000000002          1.0438612691202182E-002
  0.11430000000000001          1.0054791508634102E-002
  0.11540000000000003          9.6945318673916439E-003
  0.11650000000000002          9.3560607600746346E-003
  0.11760000000000001          9.0375733631537000E-003
  0.11870000000000003          8.7372555052348776E-003
  0.11980000000000002          8.4533938458382103E-003
  0.12090000000000001          8.1845070036759039E-003
  0.12200000000000003          7.9294225507093169E-003
  0.12310000000000001          7.6872549483463547E-003
  0.12420000000000003          7.4572915664236506E-003
  0.12530000000000002          7.2388407232147605E-003
  0.12640000000000001          7.0311136217983640E-003
  0.12750000000000003          6.8331929967576747E-003
  0.12860000000000002          6.6440961609667455E-003
  0.12970000000000001          6.4628927562486735E-003
  0.13080000000000003          6.2888119889124884E-003
  0.13190000000000002          6.1212826449261173E-003
  0.13300000000000001          5.9598861811260354E-003
  0.13410000000000000          5.8042488535102613E-003
  0.13520000000000004          5.6539296550787068E-003
  0.13630000000000003          5.5083616706479632E-003
  0.13740000000000002          5.3668759647517031E-003
  0.13850000000000001          5.2287948154460554E-003
  0.13960000000000000          5.0935469365663609E-003
  0.14070000000000005          4.9607482809927795E-003
  0.14180000000000004          4.8302116791421783E-003
  0.14290000000000003          4.7018858301549763E-003
  0.14400000000000002          4.5757594358987403E-003
  0.14510000000000001          4.4517817645658726E-003
  0.14620000000000000          4.3298396362792821E-003
  0.14730000000000004          4.2097996213031931E-003
  0.14840000000000003          4.0915898469546701E-003
  0.14950000000000002          3.9752758648271764E-003
  0.15060000000000001          3.8610890961630054E-003
  0.15170000000000000          3.7493914045324045E-003
  0.15280000000000005          3.6405917695552419E-003
  0.15390000000000004          3.5350541047140041E-003
  0.15500000000000003          3.4330377044849078E-003
  0.15610000000000002          3.3346933190663546E-003
  0.15720000000000001          3.2401087765872570E-003
  0.15830000000000000          3.1493736470672709E-003
  0.15940000000000004          3.0626248427155058E-003
  0.16050000000000003          2.9800473211972173E-003
  0.16160000000000002          2.9018289884932616E-003
  0.16270000000000001          2.8280931608993440E-003
  0.16380000000000000          2.7588431793495322E-003
  0.16490000000000005          2.6939468314503066E-003
  0.16600000000000004          2.6331674900982242E-003
  0.16710000000000003          2.5762255197511472E-003
  0.16820000000000002          2.5228595329093518E-003
  0.16930000000000001          2.4728591474849921E-003
  0.17040000000000000          2.4260571619561253E-003
  0.17150000000000004          2.3822905510950611E-003
  0.17260000000000003          2.3413551944952799E-003
  0.17370000000000002          2.3029811817568764E-003
  0.17480000000000001          2.2668435786873326E-003
  0.17590000000000000          2.2326044580404606E-003
  0.17700000000000005          2.1999658470204060E-003
  0.17810000000000004          2.1687080770664800E-003
  0.17920000000000003          2.1386959131962416E-003
  0.18030000000000002          2.1098511519059824E-003
  0.18140000000000001          2.0821064774128122E-003
  0.18250000000000000          2.0553632285156198E-003
  0.18360000000000004          2.0294719541662622E-003
  0.18470000000000003          2.0042418925707152E-003
  0.18580000000000002          1.9794707981266590E-003
  0.18690000000000001          1.9549773714976604E-003
  0.18800000000000000          1.9306190948823016E-003
  0.18910000000000005          1.9062874849111915E-003
  0.19020000000000004          1.8818852729665758E-003
  0.19130000000000003          1.8572991598580072E-003
  0.19240000000000002          1.8323831488144572E-003
  0.19350000000000001          1.8069609580386573E-003
  0.19460000000000005          1.7808456415331531E-003
  0.19570000000000004          1.7538660062663349E-003
  0.19680000000000003          1.7258870320684524E-003
  0.19790000000000002          1.6968160654925978E-003
  0.19900000000000001          1.6665951424306032E-003
  0.20010000000000000          1.6351875319724615E-003
  0.20120000000000005          1.6025693667570495E-003
  0.20230000000000004          1.5687337875051849E-003
  0.20340000000000003          1.5337075045008955E-003
  0.20450000000000002          1.4975722575144325E-003
  0.20560000000000000          1.4604802876304593E-003
  0.20670000000000005          1.4226552741748778E-003
  0.20780000000000004          1.3843768544781994E-003
  0.20890000000000003          1.3459542900933542E-003
