 -0.12000000000000000          0.0000000000000000
 -0.11889999999999999          0.0000000000000000
 -0.11780000000000000          0.0000000000000000
 -0.11670000000000000         -3.0259495805679249E-035
 -0.11559999999999999          1.4574350479621233E-010
 -0.11449999999999999          8.4709016267934968E-010
 -0.11340000000000000          2.2467717312396391E-009
 -0.11230000000000000          2.8469585571717430E-009
 -0.11119999999999999         -1.2645035122497835E-009
 -0.11009999999999999         -1.3810127529395387E-008
 -0.10900000000000000         -3.1112702609396881E-008
 -0.10790000000000000         -3.4426740959527073E-008
 -0.10679999999999999          8.0859548760917466E-009
 -0.10569999999999999          1.1986636369819265E-007
 -0.10460000000000000          2.7681867840428531E-007
 -0.10349999999999999          3.7293979937909776E-007
 -0.10239999999999999          2.2922702886957590E-007
 -0.10130000000000000         -3.2211287225106534E-007
 -0.10020000000000000         -1.2850199404342347E-006
  -9.9099999999999994E-002    -2.3454427274968887E-006
  -9.7999999999999990E-002    -2.8297698541579264E-006
  -9.6899999999999986E-002    -1.8820688007128689E-006
  -9.5799999999999996E-002     1.1190475706594321E-006
  -9.4699999999999993E-002     6.0253795373433987E-006
  -9.3599999999999989E-002     1.1519752404230755E-005
  -9.2499999999999999E-002     1.5143224639761176E-005
  -9.1399999999999995E-002     1.3925750951851013E-005
  -9.0299999999999991E-002     5.5482102146220759E-006
  -8.9200000000000002E-002    -1.0322606629570008E-005
  -8.8099999999999984E-002    -3.1067801439686092E-005
  -8.6999999999999994E-002    -5.1029255932818323E-005
  -8.5899999999999990E-002    -6.2548698957903760E-005
  -8.4799999999999986E-002    -5.7983389027341974E-005
  -8.3699999999999997E-002    -3.2187621861191104E-005
  -8.2599999999999993E-002     1.5226303966111970E-005
  -8.1499999999999989E-002     7.8475177984944569E-005
  -8.0399999999999999E-002     1.4544920007154150E-004
  -7.9299999999999995E-002     1.9898491573672956E-004
  -7.8199999999999992E-002     2.1957881757642090E-004
  -7.7100000000000002E-002     1.8944497058965469E-004
  -7.5999999999999984E-002     9.7617417417463859E-005
  -7.4899999999999994E-002    -5.4641660517481938E-005
  -7.3799999999999991E-002    -2.4951990007125057E-004
  -7.2699999999999987E-002    -4.5138547503532287E-004
  -7.1599999999999997E-002    -6.1054497474706136E-004
  -7.0499999999999993E-002    -6.7301091923860812E-004
  -6.9399999999999989E-002    -5.9522561753862322E-004
  -6.8300000000000000E-002    -3.6016928547373143E-004
  -6.7199999999999996E-002     1.0635315402168171E-005
  -6.6099999999999992E-002     4.5483566947669848E-004
  -6.5000000000000002E-002     8.7996745452040628E-004
  -6.3899999999999985E-002     1.1860637197680540E-003
  -6.2799999999999995E-002     1.2940705786131251E-003
  -6.1699999999999991E-002     1.1705882300980391E-003
  -6.0599999999999994E-002     8.3947786146070685E-004
  -5.9499999999999990E-002     3.7488694695591191E-004
  -5.8399999999999994E-002    -1.2295402903192212E-004
  -5.7299999999999990E-002    -5.6088583482606094E-004
  -5.6199999999999986E-002    -8.8263798728677417E-004
  -5.5099999999999996E-002    -1.0839219699323760E-003
  -5.3999999999999992E-002    -1.2071165925589208E-003
  -5.2899999999999989E-002    -1.3180379572481100E-003
  -5.1799999999999985E-002    -1.4743519617981158E-003
  -5.0699999999999995E-002    -1.6979788923439138E-003
  -4.9599999999999991E-002    -1.9611785455820097E-003
  -4.8499999999999988E-002    -2.1893375456371210E-003
  -4.7399999999999998E-002    -2.2762025841602134E-003
  -4.6299999999999994E-002    -2.1030330635630310E-003
  -4.5199999999999990E-002    -1.5538169205804480E-003
  -4.4099999999999986E-002    -5.2347619910309126E-004
  -4.2999999999999997E-002     1.0783015566430162E-003
  -4.1899999999999993E-002     3.3221195610237501E-003
  -4.0799999999999989E-002     6.2494994830740907E-003
  -3.9699999999999985E-002     9.8620307986212359E-003
  -3.8599999999999995E-002     1.4118556128908116E-002
  -3.7499999999999992E-002     1.8952040066058665E-002
  -3.6399999999999988E-002     2.4312567413149192E-002
  -3.5299999999999984E-002     3.0231385119727384E-002
  -3.4199999999999994E-002     3.6888088409785698E-002
  -3.3099999999999991E-002     4.4655894810919243E-002
  -3.1999999999999987E-002     5.4103734523498995E-002
  -3.0899999999999997E-002     6.5949071098515458E-002
  -2.9799999999999993E-002     8.0976564378213808E-002
  -2.8699999999999989E-002     9.9955603036023341E-002
  -2.7599999999999986E-002    0.12359538779445087
  -2.6499999999999996E-002    0.15256551798447818
  -2.5399999999999992E-002    0.18758620285341876
  -2.4299999999999988E-002    0.22956501817233482
  -2.3199999999999985E-002    0.27973851116713938
  -2.2099999999999995E-002    0.33977548226199356
  -2.0999999999999991E-002    0.41181536159831328
  -1.9899999999999987E-002    0.49844236505420964
  -1.8799999999999983E-002    0.60262176272516943
  -1.7699999999999994E-002    0.72763731070854076
  -1.6599999999999990E-002    0.87706382516832726
  -1.5499999999999986E-002     1.0547898536916744
  -1.4399999999999996E-002     1.2650827729013909
  -1.3299999999999992E-002     1.5126737473419198
  -1.2199999999999989E-002     1.8028391543035687
  -1.1099999999999985E-002     2.1414664019911109
  -9.9999999999999950E-003     2.5351067095913402
  -8.8999999999999913E-003     2.9910248650688116
  -7.7999999999999875E-003     3.5172503853288082
  -6.6999999999999837E-003     4.1226185634115788
  -5.5999999999999939E-003     4.8167738326603313
  -4.4999999999999901E-003     5.6101038633549507
  -3.3999999999999864E-003     6.5135875280454272
  -2.2999999999999826E-003     7.5385695382162119
  -1.1999999999999927E-003     8.6965053756392052
  -9.9999999999988987E-005     9.9987346627068820
   1.0000000000000148E-003     11.456327525957093
   2.1000000000000185E-003     13.080008086154704
   3.2000000000000084E-003     14.880107628015857
   4.3000000000000121E-003     16.866461094098803
   5.4000000000000159E-003     19.048155063986478
   6.5000000000000058E-003     21.433070165012676
   7.6000000000000234E-003     24.027224081010676
   8.7000000000000133E-003     26.833986719176306
   9.8000000000000032E-003     29.853277737629135
   1.0900000000000021E-002     33.080850762465879
   1.2000000000000011E-002     36.507720667755400
   1.3100000000000001E-002     40.119722383819258
   1.4200000000000018E-002     43.897133471935369
   1.5300000000000008E-002     47.814274194435313
   1.6400000000000026E-002     51.839025873954817
   1.7500000000000016E-002     55.932266948209424
   1.8600000000000005E-002     60.047287559682943
   1.9700000000000023E-002     64.129278878224426
   2.0800000000000013E-002     68.114988092400139
   2.1900000000000003E-002     71.932590942966542
   2.3000000000000020E-002     75.501784831310061
   2.4100000000000010E-002     78.734074918069439
   2.5200000000000000E-002     81.533229875851433
   2.6300000000000018E-002     83.795919110598419
   2.7400000000000008E-002     85.412586695578270
   2.8500000000000025E-002     86.268640040274533
   2.9600000000000015E-002     86.246014505743929
   3.0700000000000005E-002     85.225121251487053
   3.1800000000000023E-002     83.087118472610413
   3.2900000000000013E-002     79.716399291798723
   3.4000000000000002E-002     75.003187895893930
   3.5100000000000020E-002     68.846181110062204
   3.6200000000000010E-002     61.155241715887939
   3.7300000000000028E-002     51.854203802188238
   3.8400000000000017E-002     40.883855487779776
   3.9500000000000007E-002     28.205109904162711
   4.0600000000000025E-002     13.802281201497093
   4.1700000000000015E-002    -2.3137097159011910
   4.2800000000000005E-002    -20.102421805025639
   4.3900000000000022E-002    -39.491473981246102
   4.5000000000000012E-002    -60.374741733182844
   4.6100000000000002E-002    -82.611197226289164
   4.7200000000000020E-002    -106.02435396856728
   4.8300000000000010E-002    -130.40227346096250
   4.9400000000000027E-002    -155.49814843224934
   5.0500000000000017E-002    -181.03156001567569
   5.1600000000000007E-002    -206.69056311262867
   5.2700000000000025E-002    -232.13474452940804
   5.3800000000000014E-002    -256.99931476366362
   5.4900000000000004E-002    -280.90016797849449
   5.6000000000000022E-002    -303.43973140082522
   5.7100000000000012E-002    -324.21337677105714
   5.8200000000000002E-002    -342.81620268126119
   5.9300000000000019E-002    -358.85009403239138
   6.0400000000000009E-002    -371.93106618871531
   6.1500000000000027E-002    -381.69694415772921
   6.2600000000000017E-002    -387.81537582598816
   6.3700000000000007E-002    -389.99204451590418
   6.4800000000000024E-002    -387.97878515396644
   6.5900000000000014E-002    -381.58119333741791
   6.7000000000000004E-002    -370.66530294857137
   6.8100000000000022E-002    -355.16300555609121
   6.9200000000000012E-002    -335.07605247345396
   7.0300000000000029E-002    -310.47864565976386
   7.1400000000000019E-002    -281.51871862164415
   7.2500000000000009E-002    -248.41800263374748
   7.3600000000000027E-002    -211.47088807051455
   7.4700000000000016E-002    -171.04198592933864
   7.5800000000000006E-002    -127.56223850398139
   7.6900000000000024E-002    -81.523460525947812
   7.8000000000000014E-002    -33.471305052819851
   7.9100000000000004E-002     16.003207949803770
   8.0200000000000021E-002     66.273351801537970
   8.1300000000000011E-002     116.68725846491407
   8.2400000000000029E-002     166.57914375702541
   8.3500000000000019E-002     215.28101390558282
   8.4600000000000009E-002     262.13470884010519
   8.5700000000000026E-002     306.50409732281418
   8.6800000000000016E-002     347.78713017217621
   8.7900000000000006E-002     385.42733423958970
   8.9000000000000024E-002     418.92426702589319
   9.0100000000000013E-002     447.84250585622664
   9.1200000000000003E-002     471.81891848947828
   9.2300000000000021E-002     490.56819426826576
   9.3400000000000011E-002     503.88680979140753
   9.4500000000000028E-002     511.65567371535832
   9.5600000000000018E-002     513.84160996321748
   9.6700000000000008E-002     510.49764123055303
   9.7800000000000026E-002     501.76182793835903
   9.8900000000000016E-002     487.85431580724008
  0.10000000000000001          469.07231800785399
  0.10110000000000002          445.78299522867724
  0.10220000000000001          418.41451082511094
  0.10330000000000003          387.44580251138888
  0.10440000000000002          353.39572217555929
  0.10550000000000001          316.81211698065550
  0.10660000000000003          278.26120854866792
  0.10770000000000002          238.31738146415825
  0.10880000000000001          197.55333003775007
  0.10990000000000003          156.53049489145627
  0.11100000000000002          115.78983218997345
  0.11210000000000001          75.843117392932626
  0.11320000000000002          37.165092753173909
  0.11430000000000001         0.18675909288997453
  0.11540000000000003         -34.710008448893333
  0.11650000000000002         -67.196506764893243
  0.11760000000000001         -97.000019232484206
  0.11870000000000003         -123.90551688923414
  0.11980000000000002         -147.75627450006331
  0.12090000000000001         -168.45330590631937
  0.12200000000000003         -185.95346307148412
  0.12310000000000001         -200.26611572088748
  0.12420000000000003         -211.44853031864503
  0.12530000000000002         -219.60031758476620
  0.12640000000000001         -224.85749537073784
  0.12750000000000003         -227.38671857085640
  0.12860000000000002         -227.38003699287239
  0.12970000000000001         -225.05022865334652
  0.13080000000000003         -220.62645839587154
  0.13190000000000002         -214.34986861170810
  0.13300000000000001         -206.46878964320243
  0.13410000000000000         -197.23352548381015
  0.13520000000000004         -186.89099773444943
  0.13630000000000003         -175.67975912042573
  0.13740000000000002         -163.82590555064732
  0.13850000000000001         -151.54021236522280
  0.13960000000000000         -139.01649157379774
  0.14070000000000005         -126.43086573845530
  0.14180000000000004         -113.94151505968367
  0.14290000000000003         -101.68852665158359
  0.14400000000000002         -89.793701538441397
  0.14510000000000001         -78.360424234526562
  0.14620000000000000         -67.473836960215920
  0.14730000000000004         -57.201517913754195
  0.14840000000000003         -47.594674310227333
  0.14950000000000002         -38.689641034067577
  0.15060000000000001         -30.509356947157020
  0.15170000000000000         -23.064549286399814
  0.15280000000000005         -16.354568732367145
  0.15390000000000004         -10.368070914372646
  0.15500000000000003         -5.0838918621301339
  0.15610000000000002        -0.47242070292023325
  0.15720000000000001          3.5024593980053753
  0.15830000000000000          6.8811000902171253
  0.15940000000000004          9.7059499929576489
  0.16050000000000003          12.020029320357617
  0.16160000000000002          13.866278092866485
  0.16270000000000001          15.287682824316249
  0.16380000000000000          16.327762435291181
  0.16490000000000005          17.030862159894159
  0.16600000000000004          17.441832288498372
  0.16710000000000003          17.604996028840109
  0.16820000000000002          17.562677129628415
  0.16930000000000001          17.353783334019624
  0.17040000000000000          17.012918000822282
  0.17150000000000004          16.570237713777011
  0.17260000000000003          16.051923450814762
  0.17370000000000002          15.480868619711186
  0.17480000000000001          14.877143143573031
  0.17590000000000000          14.257985880585853
  0.17700000000000005          13.637399534978051
  0.17810000000000004          13.025696247087248
  0.17920000000000003          12.429417004302493
  0.18030000000000002          11.851878836333977
  0.18140000000000001          11.294276941625752
  0.18250000000000000          10.756958401541576
  0.18360000000000004          10.240360247178399
  0.18470000000000003          9.7452431130721635
  0.18580000000000002          9.2721912215060254
  0.18690000000000001          8.8207204576471820
  0.18800000000000000          8.3885473976274572
  0.18910000000000005          7.9715094639811204
  0.19020000000000004          7.5643143004355649
  0.19130000000000003          7.1618874082544783
  0.19240000000000002          6.7607847780785102
  0.19350000000000001          6.3600926364654136
  0.19460000000000005          5.9614702197154674
  0.19570000000000004          5.5683836816918415
  0.19680000000000003          5.1849313736912137
  0.19790000000000002          4.8147986810115677
  0.19900000000000001          4.4607443219154028
  0.20010000000000000          4.1246932415710180
  0.20120000000000005          3.8081754665323340
  0.20230000000000004          3.5126872655695114
  0.20340000000000003          3.2396451695393926
  0.20450000000000002          2.9898964979366904
  0.20560000000000000          2.7630720499438683
  0.20670000000000005          2.5572280456889618
  0.20780000000000004          2.3691206873507338
  0.20890000000000003          2.1951290126592409
