 -0.12000000000000000          0.0000000000000000
 -0.11889999999999999          0.0000000000000000
 -0.11780000000000000          0.0000000000000000
 -0.11670000000000000          0.0000000000000000
 -0.11559999999999999          0.0000000000000000
 -0.11449999999999999          0.0000000000000000
 -0.11340000000000000         -1.2877436637015202E-071
 -0.11230000000000000         -9.6876625428803551E-047
 -0.11119999999999999          1.5115859475642893E-021
 -0.11009999999999999          1.3713637915354727E-020
 -0.10900000000000000          5.3236992488505390E-020
 -0.10790000000000000          8.8193688513960723E-020
 -0.10679999999999999         -1.0417705993270983E-019
 -0.10569999999999999         -9.4946243351092490E-019
 -0.10460000000000000         -2.3425135889333296E-018
 -0.10349999999999999         -1.8429099498904307E-018
 -0.10239999999999999          6.3315849495704133E-018
 -0.10130000000000000          2.6279743750412749E-017
 -0.10020000000000000          4.5029256842366069E-017
  -9.9099999999999994E-002     1.5572273406072974E-017
  -9.7999999999999990E-002    -1.2891908980036191E-016
  -9.6899999999999986E-002    -3.8787158783070296E-016
  -9.5799999999999996E-002    -5.4304779626164657E-016
  -9.4699999999999993E-002    -8.7136761784714882E-017
  -9.3599999999999989E-002     1.4981735175492851E-015
  -9.2499999999999999E-002     3.9305881968555627E-015
  -9.1399999999999995E-002     5.1078333202289268E-015
  -9.0299999999999991E-002     1.0326054529137032E-015
  -8.9200000000000002E-002    -1.1725588467526684E-014
  -8.8099999999999984E-002    -3.0517520732977775E-014
  -8.6999999999999994E-002    -4.0768449069856165E-014
  -8.5899999999999990E-002    -1.6634647580042823E-014
  -8.4799999999999986E-002     6.3882271627460030E-014
  -8.3699999999999997E-002     1.8819956902050500E-013
  -8.2599999999999993E-002     2.7783461091010381E-013
  -8.1499999999999989E-002     1.8993538943982556E-013
  -8.0399999999999999E-002    -2.1153578400981926E-013
  -7.9299999999999995E-002    -9.0911186783003614E-013
  -7.8199999999999992E-002    -1.5729125697320359E-012
  -7.7100000000000002E-002    -1.5302412537195875E-012
  -7.5999999999999984E-002    -2.4347326484427359E-014
  -7.4899999999999994E-002     3.1864364136801757E-012
  -7.3799999999999991E-002     7.0943819941681168E-012
  -7.2699999999999987E-002     9.0837227295250887E-012
  -7.1599999999999997E-002     5.5921059034149580E-012
  -7.0499999999999993E-002    -5.8555401413892263E-012
  -6.9399999999999989E-002    -2.3705832539628643E-011
  -6.8300000000000000E-002    -4.0086885829805792E-011
  -6.7199999999999996E-002    -4.1446788855085884E-011
  -6.6099999999999992E-002    -1.3919730302870354E-011
  -6.5000000000000002E-002     4.6940051141960626E-011
  -6.3899999999999985E-002     1.2581643001812545E-010
  -6.2799999999999995E-002     1.8345934384601838E-010
  -6.1699999999999991E-002     1.6573158357598770E-010
  -6.0599999999999994E-002     2.8574125956778461E-011
  -5.9499999999999990E-002    -2.2718862214896898E-010
  -5.8399999999999994E-002    -5.2722581929090329E-010
  -5.7299999999999990E-002    -7.2260516178271691E-010
  -5.6199999999999986E-002    -6.3247616231652947E-010
  -5.5099999999999996E-002    -1.2918117849084560E-010
  -5.3999999999999992E-002     7.6098281670801735E-010
  -5.2899999999999989E-002     1.7898336244939112E-009
  -5.1799999999999985E-002     2.5044217391877093E-009
  -5.0699999999999995E-002     2.3777491599126116E-009
  -4.9599999999999991E-002     1.0334016563881125E-009
  -4.8499999999999988E-002    -1.5106303181170019E-009
  -4.7399999999999998E-002    -4.6881594927076236E-009
  -4.6299999999999994E-002    -7.4201366606090870E-009
  -4.5199999999999990E-002    -8.3774255991987494E-009
  -4.4099999999999986E-002    -6.4179244591467522E-009
  -4.2999999999999997E-002    -1.0635167550258827E-009
  -4.1899999999999993E-002     7.1474359744142360E-009
  -4.0799999999999989E-002     1.6556524216030057E-008
  -3.9699999999999985E-002     2.4566768170303759E-008
  -3.8599999999999995E-002     2.8061334683022801E-008
  -3.7499999999999992E-002     2.3985534581452954E-008
  -3.6399999999999988E-002     1.0062551504346702E-008
  -3.5299999999999984E-002    -1.4323675279225707E-008
  -3.4199999999999994E-002    -4.7063044680503454E-008
  -3.3099999999999991E-002    -8.2239096348743744E-008
  -3.1999999999999987E-002    -1.0953556225302038E-007
  -3.0899999999999997E-002    -1.1495202977333474E-007
  -2.9799999999999993E-002    -8.3678486947339879E-008
  -2.8699999999999989E-002    -5.4489722942367059E-009
  -2.7599999999999986E-002     1.1844647837081545E-007
  -2.6499999999999996E-002     2.6875871543337634E-007
  -2.5399999999999992E-002     4.0584040584482486E-007
  -2.4299999999999988E-002     4.7445843594193268E-007
  -2.3199999999999985E-002     4.1738901764029919E-007
  -2.2099999999999995E-002     1.9602474444087208E-007
  -2.0999999999999991E-002    -1.8761783905926732E-007
  -1.9899999999999987E-002    -6.7582534478251676E-007
  -1.8799999999999983E-002    -1.1553245533546811E-006
  -1.7699999999999994E-002    -1.4772277145646762E-006
  -1.6599999999999990E-002    -1.4947510993886179E-006
  -1.5499999999999986E-002    -1.1093076542401310E-006
  -1.4399999999999996E-002    -3.1056257864538313E-007
  -1.3299999999999992E-002     8.0399136033741171E-007
  -1.2199999999999989E-002     2.0386312809297358E-006
  -1.1099999999999985E-002     3.1370832064090592E-006
  -9.9999999999999950E-003     3.8372466408857882E-006
  -8.8999999999999913E-003     3.9262260258955295E-006
  -7.7999999999999875E-003     3.2802714093931589E-006
  -6.6999999999999837E-003     1.8821735220285296E-006
  -5.5999999999999939E-003    -1.8066487069988534E-007
  -4.4999999999999901E-003    -2.7265118459281585E-006
  -3.3999999999999864E-003    -5.4867412134476694E-006
  -2.2999999999999826E-003    -8.1072642096388546E-006
  -1.1999999999999927E-003    -1.0153013270523060E-005
  -9.9999999999988987E-005    -1.1133444270493078E-005
   1.0000000000000148E-003    -1.0565581219761877E-005
   2.1000000000000185E-003    -8.0769593023729053E-006
   3.2000000000000084E-003    -3.5286914843346020E-006
   4.3000000000000121E-003     2.8804571316721958E-006
   5.4000000000000159E-003     1.0572763287434278E-005
   6.5000000000000058E-003     1.8640311965311166E-005
   7.6000000000000234E-003     2.5977464085868915E-005
   8.7000000000000133E-003     3.1454236473385538E-005
   9.8000000000000032E-003     3.4067872780572462E-005
   1.0900000000000021E-002     3.3020706341565586E-005
   1.2000000000000011E-002     2.7714182752287532E-005
   1.3100000000000001E-002     1.7704416362584755E-005
   1.4200000000000018E-002     2.7048677302747840E-006
   1.5300000000000008E-002    -1.7280914767361883E-005
   1.6400000000000026E-002    -4.1669707812340474E-005
   1.7500000000000016E-002    -6.8919150256856635E-005
   1.8600000000000005E-002    -9.6216605275933800E-005
   1.9700000000000023E-002    -1.1943461710039939E-004
   2.0800000000000013E-002    -1.3350621041129286E-004
   2.1900000000000003E-002    -1.3324415250735408E-004
   2.3000000000000020E-002    -1.1445716574057658E-004
   2.4100000000000010E-002    -7.5072809776111606E-005
   2.5200000000000000E-002    -1.5929644459560075E-005
   2.6300000000000018E-002     5.9016001244531142E-005
   2.7400000000000008E-002     1.4313254689262336E-004
   2.8500000000000025E-002     2.2804368953793214E-004
   2.9600000000000015E-002     3.0472255593276591E-004
   3.0700000000000005E-002     3.6439974411331042E-004
   3.1800000000000023E-002     3.9906499980086539E-004
   3.2900000000000013E-002     4.0157195352380238E-004
   3.4000000000000002E-002     3.6557968811463146E-004
   3.5100000000000020E-002     2.8567484160615025E-004
   3.6200000000000010E-002     1.5795361314867957E-004
   3.7300000000000028E-002    -1.8873986672913745E-005
   3.8400000000000017E-002    -2.4206792445672322E-004
   3.9500000000000007E-002    -5.0353971743811966E-004
   4.0600000000000025E-002    -7.8906948896960026E-004
   4.1700000000000015E-002    -1.0783345861997175E-003
   4.2800000000000005E-002    -1.3457482870092876E-003
   4.3900000000000022E-002    -1.5618438195940350E-003
   4.5000000000000012E-002    -1.6948107601515955E-003
   4.6100000000000002E-002    -1.7118460652981152E-003
   4.7200000000000020E-002    -1.5801691809604298E-003
   4.8300000000000010E-002    -1.2677453740358826E-003
   4.9400000000000027E-002    -7.4383472460206300E-004
   5.0500000000000017E-002     2.0621655625062105E-005
   5.1600000000000007E-002     1.0529977564473661E-003
   5.2700000000000025E-002     2.3797926925628763E-003
   5.3800000000000014E-002     4.0287208458047435E-003
   5.4900000000000004E-002     6.0323288936907126E-003
   5.6000000000000022E-002     8.4329774820732957E-003
   5.7100000000000012E-002     1.1288619283417565E-002
   5.8200000000000002E-002     1.4678632842801864E-002
   5.9300000000000019E-002     1.8709176012410237E-002
   6.0400000000000009E-002     2.3518063503322223E-002
   6.1500000000000027E-002     2.9279818392802061E-002
   6.2600000000000017E-002     3.6211971358596037E-002
   6.3700000000000007E-002     4.4583627189826010E-002
   6.4800000000000024E-002     5.4726747393286583E-002
   6.5900000000000014E-002     6.7049742294361517E-002
   6.7000000000000004E-002     8.2052240961993345E-002
   6.8100000000000022E-002    0.10033971384204966
   6.9200000000000012E-002    0.12263713339543338
   7.0300000000000029E-002    0.14980189493564466
   7.1400000000000019E-002    0.18283730646388130
   7.2500000000000009E-002    0.22290853119585821
   7.3600000000000027E-002    0.27136256825259386
   7.4700000000000016E-002    0.32975273579714526
   7.5800000000000006E-002    0.39986665653073683
   7.6900000000000024E-002    0.48375564069060734
   7.8000000000000014E-002    0.58376319528072718
   7.9100000000000004E-002    0.70255129556536045
   8.0200000000000021E-002    0.84312460757465346
   8.1300000000000011E-002     1.0088542204095412
   8.2400000000000029E-002     1.2035027986948754
   8.3500000000000019E-002     1.4312519938685682
   8.4600000000000009E-002     1.6967307448316349
   8.5700000000000026E-002     2.0050406595565406
   8.6800000000000016E-002     2.3617731227794012
   8.7900000000000006E-002     2.7730129066354547
   8.9000000000000024E-002     3.2453248832994652
   9.0100000000000013E-002     3.7857231095974004
   9.1200000000000003E-002     4.4016237269598246
   9.2300000000000021E-002     5.1007835848585970
   9.3400000000000011E-002     5.8912248041823334
   9.4500000000000028E-002     6.7811422607666545
   9.5600000000000018E-002     7.7787876481967446
   9.6700000000000008E-002     8.8923220290523322
   9.7800000000000026E-002     10.129629663230245
   9.8900000000000016E-002     11.498089323808694
  0.10000000000000001          13.004304029962045
  0.10110000000000002          14.653794295866511
  0.10220000000000001          16.450662039493462
  0.10330000000000003          18.397231679402946
  0.10440000000000002          20.493672444780298
  0.10550000000000001          22.737603243054206
  0.10660000000000003          25.123680369110062
  0.10770000000000002          27.643169893847318
  0.10880000000000001          30.283510441757826
  0.10990000000000003          33.027876854454661
  0.11100000000000002          35.854759188757747
  0.11210000000000001          38.737573449084472
  0.11320000000000002          41.644320426743150
  0.11430000000000001          44.537308148350384
  0.11540000000000003          47.372953241259175
  0.11650000000000002          50.101677917686764
  0.11760000000000001          52.667921880797174
  0.11870000000000003          55.010290646550899
  0.11980000000000002          57.061861534489957
  0.12090000000000001          58.750664697198637
  0.12200000000000003          60.000349539255090
  0.12310000000000001          60.731038975767582
  0.12420000000000003          60.860368195155473
  0.12530000000000002          60.304703044906439
  0.12640000000000001          58.980535701542074
  0.12750000000000003          56.806059123061864
  0.12860000000000002          53.702922513209799
  0.12970000000000001          49.598163738631143
  0.13080000000000003          44.426300095805850
  0.13190000000000002          38.131538608804505
  0.13300000000000001          30.670046918387758
  0.13410000000000000          22.012212424858049
  0.13520000000000004          12.144815124588181
  0.13630000000000003          1.0730485106130991
  0.13740000000000002         -11.177661863910597
  0.13850000000000001         -24.560078770816155
  0.13960000000000000         -39.003844024133784
  0.14070000000000005         -54.414477294008201
  0.14180000000000004         -70.672735999150092
  0.14290000000000003         -87.634405637631161
  0.14400000000000002         -105.13059816663657
  0.14510000000000001         -122.96862946220924
  0.14620000000000000         -140.93352450136885
  0.14730000000000004         -158.79016601521752
  0.14840000000000003         -176.28606820595363
  0.14950000000000002         -193.15473072620631
  0.15060000000000001         -209.11951428956877
  0.15170000000000000         -223.89797668564768
  0.15280000000000005         -237.20661020726808
  0.15390000000000004         -248.76592055220604
  0.15500000000000003         -258.30577762113575
  0.15610000000000002         -265.57094994425131
  0.15720000000000001         -270.32671147102548
  0.15830000000000000         -272.36438931585201
  0.15940000000000004         -271.50670958447768
  0.16050000000000003         -267.61279727473988
  0.16160000000000002         -260.58269263110748
  0.16270000000000001         -250.36125521675874
  0.16380000000000000         -236.94133466749457
  0.16490000000000005         -220.36609393383327
  0.16600000000000004         -200.73038123821291
  0.16710000000000003         -178.18106679626081
  0.16820000000000002         -152.91629263984944
  0.16930000000000001         -125.18362580827383
  0.17040000000000000         -95.277147996818996
  0.17150000000000004         -63.533547423404329
  0.17260000000000003         -30.327293573820253
  0.17370000000000002          3.9350267160220271
  0.17480000000000001          38.821142644886059
  0.17590000000000000          73.880233932474127
  0.17700000000000005          108.65067706775353
  0.17810000000000004          142.66826764632339
  0.17920000000000003          175.47472145551350
  0.18030000000000002          206.62620088886834
  0.18140000000000001          235.70158602881602
  0.18250000000000000          262.31022602009546
  0.18360000000000004          286.09896433732087
  0.18470000000000003          306.75831202726971
  0.18580000000000002          324.02771676181311
  0.18690000000000001          337.69991601173734
  0.18800000000000000          347.62435824319988
  0.18910000000000005          353.70963611932115
  0.19020000000000004          355.92482712660507
  0.19130000000000003          354.29961241188420
  0.19240000000000002          348.92306731342734
  0.19350000000000001          339.94109026688187
  0.19460000000000005          327.55254139838058
  0.19570000000000004          312.00426503868749
  0.19680000000000003          293.58523891932026
  0.19790000000000002          272.62010885863305
  0.19900000000000001          249.46233498152091
  0.20010000000000000          224.48711636717985
  0.20120000000000005          198.08420531178405
  0.20230000000000004          170.65069338618818
  0.20340000000000003          142.58385612677438
  0.20450000000000002          114.27417113166797
  0.20560000000000000          86.098655300380656
  0.20670000000000005          58.414682400960601
  0.20780000000000004          31.554434436507957
  0.20890000000000003          5.8201147737776227
