 -0.12000000000000000          0.0000000000000000
 -0.11889999999999999          0.0000000000000000
 -0.11780000000000000          0.0000000000000000
 -0.11670000000000000          0.0000000000000000
 -0.11559999999999999          0.0000000000000000
 -0.11449999999999999          0.0000000000000000
 -0.11340000000000000          0.0000000000000000
 -0.11230000000000000          0.0000000000000000
 -0.11119999999999999          0.0000000000000000
 -0.11009999999999999          0.0000000000000000
 -0.10900000000000000         -1.1114904466615402E-031
 -0.10790000000000000          2.1803804608317663E-030
 -0.10679999999999999         -2.2783674204903225E-028
 -0.10569999999999999          1.4631074324097302E-028
 -0.10460000000000000         -1.8609083827935353E-028
 -0.10349999999999999         -4.1318928760274957E-026
 -0.10239999999999999         -1.1207938526153830E-025
 -0.10130000000000000          4.3649340354540863E-025
 -0.10020000000000000          1.9935574120700228E-024
  -9.9099999999999994E-002    -2.6178355056216066E-024
  -9.7999999999999990E-002    -2.6409477496379981E-023
  -9.6899999999999986E-002    -2.0534271821678210E-023
  -9.5799999999999996E-002     2.0061397987285613E-022
  -9.4699999999999993E-002     5.6097597861111633E-022
  -9.3599999999999989E-002    -3.9110936082129993E-022
  -9.2499999999999999E-002    -4.6847418420586904E-021
  -9.1399999999999995E-002    -7.0070041558776493E-021
  -9.0299999999999991E-002     1.3892383681141593E-020
  -8.9200000000000002E-002     6.7903993192211097E-020
  -8.8099999999999984E-002     6.4398589164318897E-020
  -8.6999999999999994E-002    -2.1124963705912861E-019
  -8.5899999999999990E-002    -7.3585103243437676E-019
  -8.4799999999999986E-002    -5.2002746140404497E-019
  -8.3699999999999997E-002     2.1632524573208755E-018
  -8.2599999999999993E-002     6.4883629522450152E-018
  -8.1499999999999989E-002     4.2069078329563840E-018
  -8.0399999999999999E-002    -1.6727486229424966E-017
  -7.9299999999999995E-002    -4.8479328548613941E-017
  -7.8199999999999992E-002    -3.4502868019889259E-017
  -7.7100000000000002E-002     1.0157302789607329E-016
  -7.5999999999999984E-002     3.1213674973067280E-016
  -7.4899999999999994E-002     2.6674764221910386E-016
  -7.3799999999999991E-002    -4.8219139879552122E-016
  -7.2699999999999987E-002    -1.7380270103502173E-015
  -7.1599999999999997E-002    -1.8279591453381665E-015
  -7.0499999999999993E-002     1.6644857040454676E-015
  -6.9399999999999989E-002     8.3304402872380612E-015
  -6.8300000000000000E-002     1.0810683199872530E-014
  -6.7199999999999996E-002    -2.7693835384103548E-015
  -6.6099999999999992E-002    -3.3923513683472434E-014
  -6.5000000000000002E-002    -5.4743752933572587E-014
  -6.3899999999999985E-002    -1.2781148650564417E-014
  -6.2799999999999995E-002     1.1402210013840286E-013
  -6.1699999999999991E-002     2.3662121524312130E-013
  -6.0599999999999994E-002     1.4912142430167225E-013
  -5.9499999999999990E-002    -2.9370505593567797E-013
  -5.8399999999999994E-002    -8.6740358819226149E-013
  -5.7299999999999990E-002    -8.6200409874295780E-013
  -5.6199999999999986E-002     4.2904259789020016E-013
  -5.5099999999999996E-002     2.6506236441847797E-012
  -5.3999999999999992E-002     3.6878004990026358E-012
  -5.2899999999999989E-002     7.4354194676273799E-013
  -5.1799999999999985E-002    -6.4555613459027494E-012
  -5.0699999999999995E-002    -1.2633363105640782E-011
  -4.9599999999999991E-002    -8.4886464177258425E-012
  -4.8499999999999988E-002     1.0849607670615491E-011
  -4.7399999999999998E-002     3.5163854467112898E-011
  -4.6299999999999994E-002     3.8291144560664847E-011
  -4.5199999999999990E-002    -3.0220450707857394E-012
  -4.4099999999999986E-002    -7.7433441603158570E-011
  -4.2999999999999997E-002    -1.2345985345163513E-010
  -4.1899999999999993E-002    -6.2617078189219910E-011
  -4.0799999999999989E-002     1.2030602902779464E-010
  -3.9699999999999985E-002     3.0988756005712048E-010
  -3.8599999999999995E-002     2.9533786527480288E-010
  -3.7499999999999992E-002    -5.7803810349366103E-011
  -3.6399999999999988E-002    -6.0105714849711944E-010
  -3.5299999999999984E-002    -8.7311557983582588E-010
  -3.4199999999999994E-002    -3.9859238132322616E-010
  -3.3099999999999991E-002     8.0370626820425173E-010
  -3.1999999999999987E-002     1.9298216358265563E-009
  -3.0899999999999997E-002     1.7656972550739169E-009
  -2.9799999999999993E-002    -2.8062835388809049E-010
  -2.8699999999999989E-002    -3.2093172563918415E-009
  -2.7599999999999986E-002    -4.5749666277572487E-009
  -2.6499999999999996E-002    -2.1966271024354000E-009
  -2.5399999999999992E-002     3.5144571697287574E-009
  -2.4299999999999988E-002     8.6703684232247724E-009
  -2.3199999999999985E-002     8.0612689856707220E-009
  -2.2099999999999995E-002    -3.7403116714962437E-010
  -2.0999999999999991E-002    -1.2140149330264194E-008
  -1.9899999999999987E-002    -1.7659946394132930E-008
  -1.8799999999999983E-002    -9.2724254940890205E-009
  -1.7699999999999994E-002     1.0751414869503151E-008
  -1.6599999999999990E-002     2.8481514036116096E-008
  -1.5499999999999986E-002     2.6962977628386398E-008
  -1.4399999999999996E-002     8.6777951491256999E-010
  -1.3299999999999992E-002    -3.4511351998389728E-008
  -1.2199999999999989E-002    -5.0358639924752424E-008
  -1.1099999999999985E-002    -2.6336891778555582E-008
  -9.9999999999999950E-003     2.8105407778866720E-008
  -8.8999999999999913E-003     7.3124780897160235E-008
  -7.7999999999999875E-003     6.5588501740876382E-008
  -6.6999999999999837E-003    -2.6645756712184721E-009
  -5.5999999999999939E-003    -8.7251976310653845E-008
  -4.4999999999999901E-003    -1.1648182152157460E-007
  -3.3999999999999864E-003    -4.8569003041620817E-008
  -2.2999999999999826E-003     8.2260797285016451E-008
  -1.1999999999999927E-003     1.7562328480380529E-007
  -9.9999999999988987E-005     1.3704173795758834E-007
   1.0000000000000148E-003    -3.5945920018320976E-008
   2.1000000000000185E-003    -2.2691868650781544E-007
   3.2000000000000084E-003    -2.7206206709706748E-007
   4.3000000000000121E-003    -9.1704769999978453E-008
   5.4000000000000159E-003     2.1867099064820650E-007
   6.5000000000000058E-003     4.2708879277597589E-007
   7.6000000000000234E-003     3.3062011084439291E-007
   8.7000000000000133E-003    -6.5196189780181157E-008
   9.8000000000000032E-003    -5.0305425247643143E-007
   1.0900000000000021E-002    -6.3311176745628472E-007
   1.2000000000000011E-002    -2.8355577796901343E-007
   1.3100000000000001E-002     3.6111975987296319E-007
   1.4200000000000018E-002     8.4099463038000977E-007
   1.5300000000000008E-002     7.4386559845152078E-007
   1.6400000000000026E-002     4.9321567274773770E-008
   1.7500000000000016E-002    -7.8582115747849457E-007
   1.8600000000000005E-002    -1.1172429594807909E-006
   1.9700000000000023E-002    -6.0587132111322717E-007
   2.0800000000000013E-002     4.5596007680615003E-007
   2.1900000000000003E-002     1.2814980436814949E-006
   2.3000000000000020E-002     1.1558631740626879E-006
   2.4100000000000010E-002     3.8019368986397239E-008
   2.5200000000000000E-002    -1.2924049315188313E-006
   2.6300000000000018E-002    -1.7431768810638459E-006
   2.7400000000000008E-002    -7.6554010774998460E-007
   2.8500000000000025E-002     1.0897241509155720E-006
   2.9600000000000015E-002     2.4294245122291613E-006
   3.0700000000000005E-002     2.0191255316603929E-006
   3.1800000000000023E-002    -1.6708206374005385E-007
   3.2900000000000013E-002    -2.7041769499192014E-006
   3.4000000000000002E-002    -3.6191502204019343E-006
   3.5100000000000020E-002    -1.8933419596578460E-006
   3.6200000000000010E-002     1.5635516774636926E-006
   3.7300000000000028E-002     4.3444297261885367E-006
   3.8400000000000017E-002     4.2452356865396723E-006
   3.9500000000000007E-002     1.0400893870610162E-006
   4.0600000000000025E-002    -3.1017243600217625E-006
   4.1700000000000015E-002    -5.0820572141674347E-006
   4.2800000000000005E-002    -3.2722073228796944E-006
   4.3900000000000022E-002     1.0123984566234867E-006
   4.5000000000000012E-002     4.3090726649097633E-006
   4.6100000000000002E-002     3.7140866879781242E-006
   4.7200000000000020E-002    -5.2730950983459479E-007
   4.8300000000000010E-002    -4.7842927415331360E-006
   4.9400000000000027E-002    -4.7454268496949226E-006
   5.0500000000000017E-002     7.6915875979466364E-007
   5.1600000000000007E-002     8.0043264460982755E-006
   5.2700000000000025E-002     1.0455787560204044E-005
   5.3800000000000014E-002     4.0015929698711261E-006
   5.4900000000000004E-002    -8.7855369201861322E-006
   5.6000000000000022E-002    -1.9005687136086635E-005
   5.7100000000000012E-002    -1.7243855836568400E-005
   5.8200000000000002E-002    -1.2504760888987221E-006
   5.9300000000000019E-002     2.0371264326968230E-005
   6.0400000000000009E-002     3.2334901334252208E-005
   6.1500000000000027E-002     2.3086724468157627E-005
   6.2600000000000017E-002    -5.3927624321659096E-006
   6.3700000000000007E-002    -3.6133191315457225E-005
   6.4800000000000024E-002    -4.6841072617098689E-005
   6.5900000000000014E-002    -2.5495977752143517E-005
   6.7000000000000004E-002     1.8727731003309600E-005
   6.8100000000000022E-002     5.8169189287582412E-005
   6.9200000000000012E-002     6.3388739363290370E-005
   7.0300000000000029E-002     2.4044051315286197E-005
   7.1400000000000019E-002    -4.0443286707159132E-005
   7.2500000000000009E-002    -8.9595429017208517E-005
   7.3600000000000027E-002    -8.6633102910127491E-005
   7.4700000000000016E-002    -2.4226941604865715E-005
   7.5800000000000006E-002     6.6342916397843510E-005
   7.6900000000000024E-002     1.3078175834380090E-004
   7.8000000000000014E-002     1.2430765491444618E-004
   7.9100000000000004E-002     4.1219926060875878E-005
   8.0200000000000021E-002    -7.7970194979570806E-005
   8.1300000000000011E-002    -1.6788612992968410E-004
   8.2400000000000029E-002    -1.7602427396923304E-004
   8.3500000000000019E-002    -9.3880014901515096E-005
   8.4600000000000009E-002     3.7828434869879857E-005
   8.5700000000000026E-002     1.5297869686037302E-004
   8.6800000000000016E-002     1.9791926024481654E-004
   8.7900000000000006E-002     1.6004600911401212E-004
   8.9000000000000024E-002     7.0267997216433287E-005
   9.0100000000000013E-002    -2.0593004592228681E-005
   9.1200000000000003E-002    -7.5297706644050777E-005
   9.2300000000000021E-002    -9.2018315626773983E-005
   9.3400000000000011E-002    -1.0101121733896434E-004
   9.4500000000000028E-002    -1.3851241965312511E-004
   9.5600000000000018E-002    -2.1413034119177610E-004
   9.6700000000000008E-002    -2.9220242868177593E-004
   9.7800000000000026E-002    -3.0044076265767217E-004
   9.8900000000000016E-002    -1.6496768512297422E-004
  0.10000000000000001          1.4338038454297930E-004
  0.10110000000000002          5.7447544531896710E-004
  0.10220000000000001          9.9690468050539494E-004
  0.10330000000000003          1.2369853211566806E-003
  0.10440000000000002          1.1480469256639481E-003
  0.10550000000000001          6.8079284392297268E-004
  0.10660000000000003         -8.2191283581778407E-005
  0.10770000000000002         -9.5377227989956737E-004
  0.10880000000000001         -1.7282469198107719E-003
  0.10990000000000003         -2.2873738780617714E-003
  0.11100000000000002         -2.6676352135837078E-003
  0.11210000000000001         -3.0423526186496019E-003
  0.11320000000000002         -3.6181886680424213E-003
  0.11430000000000001         -4.5022815465927124E-003
  0.11540000000000003         -5.6273844093084335E-003
  0.11650000000000002         -6.7991577088832855E-003
  0.11760000000000001         -7.8562479466199875E-003
  0.11870000000000003         -8.8513800874352455E-003
  0.11980000000000002         -1.0125027969479561E-002
  0.12090000000000001         -1.2192435562610626E-002
  0.12200000000000003         -1.5479866415262222E-002
  0.12310000000000001         -2.0065294578671455E-002
  0.12420000000000003         -2.5607895106077194E-002
  0.12530000000000002         -3.1565569341182709E-002
  0.12640000000000001         -3.7617858499288559E-002
  0.12750000000000003         -4.4057749211788177E-002
  0.12860000000000002         -5.1888041198253632E-002
  0.12970000000000001         -6.2502466142177582E-002
  0.13080000000000003         -7.7080920338630676E-002
  0.13190000000000002         -9.6035487949848175E-002
  0.13300000000000001        -0.11885617673397064
  0.13410000000000000        -0.14450605213642120
  0.13520000000000004        -0.17220357060432434
  0.13630000000000003        -0.20215842127799988
  0.13740000000000002        -0.23583990335464478
  0.13850000000000001        -0.27559632062911987
  0.13960000000000000        -0.32381895184516907
  0.14070000000000005        -0.38211932778358459
  0.14180000000000004        -0.45098534226417542
  0.14290000000000003        -0.53010928630828857
  0.14400000000000002        -0.61915731430053711
  0.14510000000000001        -0.71854436397552490
  0.14620000000000000        -0.82970380783081055
  0.14730000000000004        -0.95478296279907227
  0.14840000000000003         -1.0958945751190186
  0.14950000000000002         -1.2545113563537598
  0.15060000000000001         -1.4313099384307861
  0.15170000000000000         -1.6265858411788940
  0.15280000000000005         -1.8408836126327515
  0.15390000000000004         -2.0754325389862061
  0.15500000000000003         -2.3318672180175781
  0.15610000000000002         -2.6116583347320557
  0.15720000000000001         -2.9152460098266602
  0.15830000000000000         -3.2417171001434326
  0.15940000000000004         -3.5891253948211670
  0.16050000000000003         -3.9550838470458984
  0.16160000000000002         -4.3375382423400879
  0.16270000000000001         -4.7349662780761719
  0.16380000000000000         -5.1458234786987305
  0.16490000000000005         -5.5677084922790527
  0.16600000000000004         -5.9964604377746582
  0.16710000000000003         -6.4259400367736816
  0.16820000000000002         -6.8483953475952148
  0.16930000000000001         -7.2557916641235352
  0.17040000000000000         -7.6402025222778320
  0.17150000000000004         -7.9943213462829590
  0.17260000000000003         -8.3105096817016602
  0.17370000000000002         -8.5800285339355469
  0.17480000000000001         -8.7920656204223633
  0.17590000000000000         -8.9329099655151367
  0.17700000000000005         -8.9873027801513672
  0.17810000000000004         -8.9406881332397461
  0.17920000000000003         -8.7797174453735352
  0.18030000000000002         -8.4939470291137695
  0.18140000000000001         -8.0746803283691406
  0.18250000000000000         -7.5133767127990723
  0.18360000000000004         -6.8032436370849609
  0.18470000000000003         -5.9344067573547363
  0.18580000000000002         -4.8976511955261230
  0.18690000000000001         -3.6841254234313965
  0.18800000000000000         -2.2883996963500977
  0.18910000000000005        -0.70953321456909180
  0.19020000000000004          1.0487998723983765
  0.19130000000000003          2.9773106575012207
  0.19240000000000002          5.0652661323547363
  0.19350000000000001          7.2970213890075684
  0.19460000000000005          9.6570730209350586
  0.19570000000000004          12.125813484191895
  0.19680000000000003          14.682390213012695
  0.19790000000000002          17.298456192016602
  0.19900000000000001          19.944133758544922
  0.20010000000000000          22.585449218750000
  0.20120000000000005          25.185756683349609
  0.20230000000000004          27.706184387207031
  0.20340000000000003          30.105875015258789
  0.20450000000000002          32.342269897460938
  0.20560000000000000          34.374477386474609
  0.20670000000000005          36.159069061279297
  0.20780000000000004          37.652854919433594
  0.20890000000000003          38.816921234130859
