 -0.12000000000000000          0.0000000000000000
 -0.11889999999999999          0.0000000000000000
 -0.11780000000000000          0.0000000000000000
 -0.11670000000000000          0.0000000000000000
 -0.11559999999999999          0.0000000000000000
 -0.11449999999999999          0.0000000000000000
 -0.11340000000000000         -1.3145427875025338E-014
 -0.11230000000000000         -6.8400633701710175E-015
 -0.11119999999999999          8.1343907846510854E-014
 -0.11009999999999999         -2.9705803246925233E-013
 -0.10900000000000000         -2.0157955166189012E-012
 -0.10790000000000000         -1.2818096193842332E-012
 -0.10679999999999999          1.2846133878863242E-011
 -0.10569999999999999          3.3636999435815440E-011
 -0.10460000000000000         -5.7308467867056567E-012
 -0.10349999999999999         -1.7850534939078955E-010
 -0.10239999999999999         -3.1955366130986818E-010
 -0.10130000000000000          1.2247816649768595E-010
 -0.10020000000000000          1.4489739408318769E-009
  -9.9099999999999994E-002     2.2894259821271135E-009
  -9.7999999999999990E-002    -5.5936649756560541E-010
  -9.6899999999999986E-002    -8.2128925882329895E-009
  -9.5799999999999996E-002    -1.3320004654815421E-008
  -9.4699999999999993E-002    -8.3999074362850479E-010
  -9.3599999999999989E-002     3.4453755404229014E-008
  -9.2499999999999999E-002     6.3255697568820324E-008
  -9.1399999999999995E-002     2.5645377377259138E-008
  -9.0299999999999991E-002    -1.0635730518515629E-007
  -8.9200000000000002E-002    -2.4263064801743894E-007
  -8.8099999999999984E-002    -1.7890000947318185E-007
  -8.6999999999999994E-002     2.1791790061342908E-007
  -8.5899999999999990E-002     7.3920449494835339E-007
  -8.4799999999999986E-002     7.9415480058742105E-007
  -8.3699999999999997E-002    -1.3296696010911546E-007
  -8.2599999999999993E-002    -1.7290238929490442E-006
  -8.1499999999999989E-002    -2.5698313947941642E-006
  -8.0399999999999999E-002    -1.0412076107968460E-006
  -7.9299999999999995E-002     2.8284903237363324E-006
  -7.8199999999999992E-002     6.2633962443214841E-006
  -7.7100000000000002E-002     5.1675156100827735E-006
  -7.5999999999999984E-002    -2.0513007257250138E-006
  -7.4899999999999994E-002    -1.1290351721982006E-005
  -7.3799999999999991E-002    -1.4133068361843470E-005
  -7.2699999999999987E-002    -4.5836600293114316E-006
  -7.1599999999999997E-002     1.3616816431749612E-005
  -7.0499999999999993E-002     2.6620578864822164E-005
  -6.9399999999999989E-002     2.0272074834792875E-005
  -6.8300000000000000E-002    -6.1666869441978633E-006
  -6.7199999999999996E-002    -3.4919572499347851E-005
  -6.6099999999999992E-002    -4.1096893255598843E-005
  -6.5000000000000002E-002    -1.4143980479275342E-005
  -6.3899999999999985E-002     2.9006017939536832E-005
  -6.2799999999999995E-002     5.3884861699771136E-005
  -6.1699999999999991E-002     3.7001402233727276E-005
  -6.0599999999999994E-002    -1.0868822755583096E-005
  -5.9499999999999990E-002    -4.9963444325840101E-005
  -5.8399999999999994E-002    -4.4999200326856226E-005
  -5.7299999999999990E-002     1.1508706165841431E-006
  -5.6199999999999986E-002     4.6029730583541095E-005
  -5.5099999999999996E-002     4.4045922550139949E-005
  -5.3999999999999992E-002    -9.6576050054864027E-006
  -5.2899999999999989E-002    -6.9210494984872639E-005
  -5.1799999999999985E-002    -7.5082571129314601E-005
  -5.0699999999999995E-002    -7.8365810622926801E-006
  -4.9599999999999991E-002     8.9750530605670065E-005
  -4.8499999999999988E-002     1.4375594037119299E-004
  -4.7399999999999998E-002     1.0714251402532682E-004
  -4.6299999999999994E-002    -5.0640101108001545E-006
  -4.5199999999999990E-002    -1.3032816059421748E-004
  -4.4099999999999986E-002    -2.0391707948874682E-004
  -4.2999999999999997E-002    -1.9311504729557782E-004
  -4.1899999999999993E-002    -9.9127624707762152E-005
  -4.0799999999999989E-002     5.6673226936254650E-005
  -3.9699999999999985E-002     2.3450054868590087E-004
  -3.8599999999999995E-002     3.6604658816941082E-004
  -3.7499999999999992E-002     3.6368216387927532E-004
  -3.6399999999999988E-002     1.7063118866644800E-004
  -3.5299999999999984E-002    -1.7482535622548312E-004
  -3.4199999999999994E-002    -5.2352203056216240E-004
  -3.3099999999999991E-002    -6.8424164783209562E-004
  -3.1999999999999987E-002    -5.4002174874767661E-004
  -3.0899999999999997E-002    -1.2504728510975838E-004
  -2.9799999999999993E-002     3.9542873855680227E-004
  -2.8699999999999989E-002     8.1621913705021143E-004
  -2.7599999999999986E-002     9.7610405646264553E-004
  -2.6499999999999996E-002     7.8880839282646775E-004
  -2.5399999999999992E-002     2.5062228087335825E-004
  -2.4299999999999988E-002    -5.2479247096925974E-004
  -2.3199999999999985E-002    -1.2639961205422878E-003
  -2.2099999999999995E-002    -1.5824510483071208E-003
  -2.0999999999999991E-002    -1.1885270942002535E-003
  -1.9899999999999987E-002    -1.4601269504055381E-004
  -1.8799999999999983E-002     1.0394365526735783E-003
  -1.7699999999999994E-002     1.6775060212239623E-003
  -1.6599999999999990E-002     1.3832149561494589E-003
  -1.5499999999999986E-002     4.2701201164163649E-004
  -1.4399999999999996E-002    -3.9731955621391535E-004
  -1.3299999999999992E-002    -3.6579763400368392E-004
  -1.2199999999999989E-002     5.5524142226204276E-004
  -1.1099999999999985E-002     1.5775302890688181E-003
  -9.9999999999999950E-003     1.6016893787309527E-003
  -8.8999999999999913E-003     3.9930550883582328E-006
  -7.7999999999999875E-003    -2.8963843360543251E-003
  -6.6999999999999837E-003    -6.0248980298638344E-003
  -5.5999999999999939E-003    -8.2179838791489601E-003
  -4.4999999999999901E-003    -8.8737020269036293E-003
  -3.3999999999999864E-003    -8.1997327506542206E-003
  -2.2999999999999826E-003    -7.0321406237781048E-003
  -1.1999999999999927E-003    -6.4529106020927429E-003
  -9.9999999999988987E-005    -7.4103670194745064E-003
   1.0000000000000148E-003    -1.0403152555227280E-002
   2.1000000000000185E-003    -1.5267639420926571E-002
   3.2000000000000084E-003    -2.1216319873929024E-002
   4.3000000000000121E-003    -2.7269564568996429E-002
   5.4000000000000159E-003    -3.2940790057182312E-002
   6.5000000000000058E-003    -3.8692008703947067E-002
   7.6000000000000234E-003    -4.5691784471273422E-002
   8.7000000000000133E-003    -5.4956763982772827E-002
   9.8000000000000032E-003    -6.6604189574718475E-002
   1.0900000000000021E-002    -8.0007553100585938E-002
   1.2000000000000011E-002    -9.4901494681835175E-002
   1.3100000000000001E-002   -0.11250098049640656
   1.4200000000000018E-002   -0.13547061383724213
   1.5300000000000008E-002   -0.16645461320877075
   1.6400000000000026E-002   -0.20621097087860107
   1.7500000000000016E-002   -0.25295954942703247
   1.8600000000000005E-002   -0.30368688702583313
   1.9700000000000023E-002   -0.35659024119377136
   2.0800000000000013E-002   -0.41288721561431885
   2.1900000000000003E-002   -0.47672331333160400
   2.3000000000000020E-002   -0.55338603258132935
   2.4100000000000010E-002   -0.64719480276107788
   2.5200000000000000E-002   -0.76028925180435181
   2.6300000000000018E-002   -0.89261794090270996
   2.7400000000000008E-002    -1.0426607131958008
   2.8500000000000025E-002    -1.2084248065948486
   2.9600000000000015E-002    -1.3887577056884766
   3.0700000000000005E-002    -1.5848100185394287
   3.1800000000000023E-002    -1.8009771108627319
   3.2900000000000013E-002    -2.0441608428955078
   3.4000000000000002E-002    -2.3209729194641113
   3.5100000000000020E-002    -2.6344523429870605
   3.6200000000000010E-002    -2.9823958873748779
   3.7300000000000028E-002    -3.3590922355651855
   3.8400000000000017E-002    -3.7592031955718994
   3.9500000000000007E-002    -4.1811447143554688
   4.0600000000000025E-002    -4.6274662017822266
   4.1700000000000015E-002    -5.1020994186401367
   4.2800000000000005E-002    -5.6073527336120605
   4.3900000000000022E-002    -6.1423730850219727
   4.5000000000000012E-002    -6.7036805152893066
   4.6100000000000002E-002    -7.2866601943969727
   4.7200000000000020E-002    -7.8850803375244141
   4.8300000000000010E-002    -8.4903326034545898
   4.9400000000000027E-002    -9.0916023254394531
   5.0500000000000017E-002    -9.6769876480102539
   5.1600000000000007E-002    -10.235999107360840
   5.2700000000000025E-002    -10.759761810302734
   5.3800000000000014E-002    -11.240231513977051
   5.4900000000000004E-002    -11.666250228881836
   5.6000000000000022E-002    -12.022494316101074
   5.7100000000000012E-002    -12.292087554931641
   5.8200000000000002E-002    -12.457880020141602
   5.9300000000000019E-002    -12.505235671997070
   6.0400000000000009E-002    -12.417968750000000
   6.1500000000000027E-002    -12.177375793457031
   6.2600000000000017E-002    -11.762161254882812
   6.3700000000000007E-002    -11.151516914367676
   6.4800000000000024E-002    -10.329317092895508
   6.5900000000000014E-002    -9.2876281738281250
   6.7000000000000004E-002    -8.0190954208374023
   6.8100000000000022E-002    -6.5179548263549805
   6.9200000000000012E-002    -4.7749919891357422
   7.0300000000000029E-002    -2.7834217548370361
   7.1400000000000019E-002   -0.54142212867736816
   7.2500000000000009E-002     1.9454811811447144
   7.3600000000000027E-002     4.6669325828552246
   7.4700000000000016E-002     7.6101026535034180
   7.5800000000000006E-002     10.760147094726562
   7.6900000000000024E-002     14.094383239746094
   7.8000000000000014E-002     17.583805084228516
   7.9100000000000004E-002     21.189611434936523
   8.0200000000000021E-002     24.868648529052734
   8.1300000000000011E-002     28.577943801879883
   8.2400000000000029E-002     32.270572662353516
   8.3500000000000019E-002     35.898334503173828
   8.4600000000000009E-002     39.405113220214844
   8.5700000000000026E-002     42.729904174804688
   8.6800000000000016E-002     45.814224243164062
   8.7900000000000006E-002     48.603389739990234
   8.9000000000000024E-002     51.046043395996094
   9.0100000000000013E-002     53.084724426269531
   9.1200000000000003E-002     54.661571502685547
   9.2300000000000021E-002     55.717880249023438
   9.3400000000000011E-002     56.205963134765625
   9.4500000000000028E-002     56.087757110595703
   9.5600000000000018E-002     55.339370727539062
   9.6700000000000008E-002     53.941295623779297
   9.7800000000000026E-002     51.879592895507812
   9.8900000000000016E-002     49.147861480712891
  0.10000000000000001          45.751224517822266
  0.10110000000000002          41.709060668945312
  0.10220000000000001          37.053535461425781
  0.10330000000000003          31.823078155517578
  0.10440000000000002          26.061122894287109
  0.10550000000000001          19.817863464355469
  0.10660000000000003          13.156975746154785
  0.10770000000000002          6.1570658683776855
  0.10880000000000001         -1.0927999019622803
  0.10990000000000003         -8.5045318603515625
  0.11100000000000002         -15.991168022155762
  0.11210000000000001         -23.466249465942383
  0.11320000000000002         -30.838218688964844
  0.11430000000000001         -38.014305114746094
  0.11540000000000003         -44.898662567138672
  0.11650000000000002         -51.408348083496094
  0.11760000000000001         -57.471427917480469
  0.11870000000000003         -63.023990631103516
  0.11980000000000002         -68.003379821777344
  0.12090000000000001         -72.354835510253906
  0.12200000000000003         -76.032066345214844
  0.12310000000000001         -79.006210327148438
  0.12420000000000003         -81.257575988769531
  0.12530000000000002         -82.786659240722656
  0.12640000000000001         -83.593177795410156
  0.12750000000000003         -83.687294006347656
  0.12860000000000002         -83.091613769531250
  0.12970000000000001         -81.842987060546875
  0.13080000000000003         -79.995986938476562
  0.13190000000000002         -77.602348327636719
  0.13300000000000001         -74.713500976562500
  0.13410000000000000         -71.376625061035156
  0.13520000000000004         -67.647842407226562
  0.13630000000000003         -63.593296051025391
  0.13740000000000002         -59.279991149902344
  0.13850000000000001         -54.767784118652344
  0.13960000000000000         -50.104526519775391
  0.14070000000000005         -45.326839447021484
  0.14180000000000004         -40.472911834716797
  0.14290000000000003         -35.588142395019531
  0.14400000000000002         -30.712499618530273
  0.14510000000000001         -25.866426467895508
  0.14620000000000000         -21.047315597534180
  0.14730000000000004         -16.243968963623047
  0.14840000000000003         -11.446931838989258
  0.14950000000000002         -6.6560878753662109
  0.15060000000000001         -1.8636442422866821
  0.15170000000000000          2.9554069042205811
  0.15280000000000005          7.8400287628173828
  0.15390000000000004          12.831968307495117
  0.15500000000000003          17.955642700195312
  0.15610000000000002          23.226694107055664
  0.15720000000000001          28.659166336059570
  0.15830000000000000          34.277149200439453
  0.15940000000000004          40.105979919433594
  0.16050000000000003          46.162807464599609
  0.16160000000000002          52.434513092041016
  0.16270000000000001          58.897651672363281
  0.16380000000000000          65.522773742675781
  0.16490000000000005          72.273780822753906
  0.16600000000000004          79.113883972167969
  0.16710000000000003          85.980491638183594
  0.16820000000000002          92.783676147460938
  0.16930000000000001          99.425971984863281
  0.17040000000000000          105.81797027587891
  0.17150000000000004          111.86011505126953
  0.17260000000000003          117.45281219482422
  0.17370000000000002          122.47985839843750
  0.17480000000000001          126.80792236328125
  0.17590000000000000          130.30665588378906
  0.17700000000000005          132.86134338378906
  0.17810000000000004          134.38203430175781
  0.17920000000000003          134.77885437011719
  0.18030000000000002          133.95352172851562
  0.18140000000000001          131.81423950195312
  0.18250000000000000          128.29650878906250
  0.18360000000000004          123.37299346923828
  0.18470000000000003          117.03936004638672
  0.18580000000000002          109.31163024902344
  0.18690000000000001          100.20884704589844
  0.18800000000000000          89.757881164550781
  0.18910000000000005          78.026657104492188
  0.19020000000000004          65.127784729003906
  0.19130000000000003          51.208793640136719
  0.19240000000000002          36.423225402832031
  0.19350000000000001          20.918279647827148
  0.19460000000000005          4.8497772216796875
  0.19570000000000004         -11.596679687500000
  0.19680000000000003         -28.202365875244141
  0.19790000000000002         -44.734985351562500
  0.19900000000000001         -60.975933074951172
  0.20010000000000000         -76.730598449707031
  0.20120000000000005         -91.808906555175781
  0.20230000000000004         -106.01699066162109
  0.20340000000000003         -119.14863586425781
  0.20450000000000002         -131.01493835449219
  0.20560000000000000         -141.45707702636719
  0.20670000000000005         -150.35763549804688
  0.20780000000000004         -157.63275146484375
  0.20890000000000003         -163.20442199707031
