 -0.12000000000000000          0.0000000000000000
 -0.11889999999999999          0.0000000000000000
 -0.11780000000000000          0.0000000000000000
 -0.11670000000000000          0.0000000000000000
 -0.11559999999999999          0.0000000000000000
 -0.11449999999999999          0.0000000000000000
 -0.11340000000000000          0.0000000000000000
 -0.11230000000000000          0.0000000000000000
 -0.11119999999999999          0.0000000000000000
 -0.11009999999999999          0.0000000000000000
 -0.10900000000000000         -1.0791334455675010E-022
 -0.10790000000000000         -3.0399382284883522E-022
 -0.10679999999999999          3.4549698404366900E-021
 -0.10569999999999999          2.0636757184740089E-020
 -0.10460000000000000          6.7972185509545571E-021
 -0.10349999999999999         -2.7713458577367434E-019
 -0.10239999999999999         -9.5465989829541243E-019
 -0.10130000000000000         -1.6724524405844143E-019
 -0.10020000000000000          7.4257492513987890E-018
  -9.9099999999999994E-002     2.1107218975713585E-017
  -9.7999999999999990E-002     5.6975427178779809E-018
  -9.6899999999999986E-002    -1.1174401423824572E-016
  -9.5799999999999996E-002    -3.0139314264637687E-016
  -9.4699999999999993E-002    -1.3950443382354174E-016
  -9.3599999999999989E-002     1.1206795404798925E-015
  -9.2499999999999999E-002     3.1684245715101183E-015
  -9.1399999999999995E-002     2.2826748070280080E-015
  -9.0299999999999991E-002    -7.8173585497682413E-015
  -8.9200000000000002E-002    -2.5718080212656057E-014
  -8.8099999999999984E-002    -2.6107529021144639E-014
  -8.6999999999999994E-002     3.5716516414352126E-014
  -8.5899999999999990E-002     1.6286089501733186E-013
  -8.4799999999999986E-002     2.1904213740129436E-013
  -8.3699999999999997E-002    -6.5246419378439668E-014
  -8.2599999999999993E-002    -7.9547197821827620E-013
  -8.1499999999999989E-002    -1.3955870964074690E-012
  -8.0399999999999999E-002    -4.9971723807551438E-013
  -7.9299999999999995E-002     2.8593904587842500E-012
  -7.8199999999999992E-002     6.8719504912884144E-012
  -7.7100000000000002E-002     5.7802170168319567E-012
  -7.5999999999999984E-002    -6.3153059171039416E-012
  -7.4899999999999994E-002    -2.6064433597539072E-011
  -7.3799999999999991E-002    -3.3616994604690476E-011
  -7.2699999999999987E-002    -1.6599303312089808E-012
  -7.1599999999999997E-002     7.3112106646622266E-011
  -7.0499999999999993E-002     1.3666594245176356E-010
  -6.9399999999999989E-002     8.8841316248089441E-011
  -6.8300000000000000E-002    -1.2870116083973926E-010
  -6.7199999999999996E-002    -4.1039349696347927E-010
  -6.6099999999999992E-002    -4.6232420669589658E-010
  -6.5000000000000002E-002    -6.7281038596336828E-013
  -6.3899999999999985E-002     8.8234825001975992E-010
  -6.2799999999999995E-002     1.5058591040784108E-009
  -6.1699999999999991E-002     9.3468899287074692E-010
  -6.0599999999999994E-002    -1.1148761913659655E-009
  -5.9499999999999990E-002    -3.4583813590671753E-009
  -5.8399999999999994E-002    -3.7521488138736458E-009
  -5.7299999999999990E-002    -3.4517655400634339E-010
  -5.6199999999999986E-002     5.4521236414473151E-009
  -5.5099999999999996E-002     9.0200291680275768E-009
  -5.3999999999999992E-002     5.5541402588232813E-009
  -5.2899999999999989E-002    -4.8664743346193973E-009
  -5.1799999999999985E-002    -1.4895652711288676E-008
  -5.0699999999999995E-002    -1.4326011488208223E-008
  -4.9599999999999991E-002     1.8337480145458329E-010
  -4.8499999999999988E-002     1.8395429179918210E-008
  -4.7399999999999998E-002     2.1960930851605553E-008
  -4.6299999999999994E-002     1.8109358457252256E-009
  -4.5199999999999990E-002    -2.6801766139783467E-008
  -4.4099999999999986E-002    -3.0529854200267437E-008
  -4.2999999999999997E-002     1.0727944754762575E-008
  -4.1899999999999993E-002     7.1007846713655454E-008
  -4.0799999999999989E-002     8.2052515892883093E-008
  -3.9699999999999985E-002    -1.0218793811134219E-008
  -3.8599999999999995E-002    -1.7227755222393171E-007
  -3.7499999999999992E-002    -2.6652898554857529E-007
  -3.6399999999999988E-002    -1.4104020351624058E-007
  -3.5299999999999984E-002     2.1601239552637708E-007
  -3.4199999999999994E-002     5.8778294942385401E-007
  -3.3099999999999991E-002     6.2866786265658448E-007
  -3.1999999999999987E-002     1.3684056909823994E-007
  -3.0899999999999997E-002    -6.9561349391733529E-007
  -2.9799999999999993E-002    -1.3034095900366083E-006
  -2.8699999999999989E-002    -1.1160972235302324E-006
  -2.7599999999999986E-002    -4.5628564038224795E-008
  -2.6499999999999996E-002     1.3148081734470907E-006
  -2.5399999999999992E-002     2.0325446712377016E-006
  -2.4299999999999988E-002     1.5330721225836896E-006
  -2.3199999999999985E-002     1.0031647690311729E-007
  -2.2099999999999995E-002    -1.3009416761633474E-006
  -2.0999999999999991E-002    -1.8132678860638407E-006
  -1.9899999999999987E-002    -1.4228376130631659E-006
  -1.8799999999999983E-002    -9.1538100832622149E-007
  -1.7699999999999994E-002    -9.7375743735028664E-007
  -1.6599999999999990E-002    -1.2184544857518631E-006
  -1.5499999999999986E-002    -2.6345068704358710E-007
  -1.4399999999999996E-002     2.9114778499206295E-006
  -1.3299999999999992E-002     7.2826396717573516E-006
  -1.2199999999999989E-002     9.4921879281173460E-006
  -1.1099999999999985E-002     5.8443247326067649E-006
  -9.9999999999999950E-003    -4.4185148908582050E-006
  -8.8999999999999913E-003    -1.7075224604923278E-005
  -7.7999999999999875E-003    -2.4278970158775337E-005
  -6.6999999999999837E-003    -1.9156826965627261E-005
  -5.5999999999999939E-003    -8.7649721081106691E-007
  -4.4999999999999901E-003     2.3424045139108784E-005
  -3.3999999999999864E-003     4.1599116229917854E-005
  -2.2999999999999826E-003     4.2829451558645815E-005
  -1.1999999999999927E-003     2.3547736418549903E-005
  -9.9999999999988987E-005    -1.0422407285659574E-005
   1.0000000000000148E-003    -4.6308163291541860E-005
   2.1000000000000185E-003    -6.9561181589961052E-005
   3.2000000000000084E-003    -6.9080961111467332E-005
   4.3000000000000121E-003    -4.0861974412109703E-005
   5.4000000000000159E-003     1.0144004590983968E-005
   6.5000000000000058E-003     6.9861795054748654E-005
   7.6000000000000234E-003     1.1728848767234012E-004
   8.7000000000000133E-003     1.3006539666093886E-004
   9.8000000000000032E-003     9.3140726676210761E-005
   1.0900000000000021E-002     7.7179211075417697E-006
   1.2000000000000011E-002    -1.0411430412204936E-004
   1.3100000000000001E-002    -2.0296162983868271E-004
   1.4200000000000018E-002    -2.4450873024761677E-004
   1.5300000000000008E-002    -1.9711258937604725E-004
   1.6400000000000026E-002    -5.8058103604707867E-005
   1.7500000000000016E-002     1.3854628195986152E-004
   1.8600000000000005E-002     3.2715997076593339E-004
   1.9700000000000023E-002     4.3024795013479888E-004
   2.0800000000000013E-002     3.8708548527210951E-004
   2.1900000000000003E-002     1.8213583098258823E-004
   2.3000000000000020E-002    -1.3905782543588430E-004
   2.4100000000000010E-002    -4.7571439063176513E-004
   2.5200000000000000E-002    -7.0080556906759739E-004
   2.6300000000000018E-002    -7.0512155070900917E-004
   2.7400000000000008E-002    -4.4179882388561964E-004
   2.8500000000000025E-002     4.4257179979467764E-005
   2.9600000000000015E-002     6.1395886586979032E-004
   3.0700000000000005E-002     1.0648251045495272E-003
   3.1800000000000023E-002     1.1937326053157449E-003
   3.2900000000000013E-002     8.7917729979380965E-004
   3.4000000000000002E-002     1.5557369624730200E-004
   3.5100000000000020E-002    -7.5920455856248736E-004
   3.6200000000000010E-002    -1.5158829046413302E-003
   3.7300000000000028E-002    -1.7664057668298483E-003
   3.8400000000000017E-002    -1.3298069825395942E-003
   3.9500000000000007E-002    -3.0809151940047741E-004
   4.0600000000000025E-002     9.2318071983754635E-004
   4.1700000000000015E-002     1.8652852158993483E-003
   4.2800000000000005E-002     2.1214676089584827E-003
   4.3900000000000022E-002     1.5792154008522630E-003
   4.5000000000000012E-002     4.5074411900714040E-004
   4.6100000000000002E-002    -8.4451545262709260E-004
   4.7200000000000020E-002    -1.8775796052068472E-003
   4.8300000000000010E-002    -2.3683812469244003E-003
   4.9400000000000027E-002    -2.2256325464695692E-003
   5.0500000000000017E-002    -1.4805102255195379E-003
   5.1600000000000007E-002    -2.0321946067269892E-004
   5.2700000000000025E-002     1.5040418365970254E-003
   5.3800000000000014E-002     3.4167994745075703E-003
   5.4900000000000004E-002     5.0779921002686024E-003
   5.6000000000000022E-002     5.7957014068961143E-003
   5.7100000000000012E-002     4.8346291296184063E-003
   5.8200000000000002E-002     1.7655286937952042E-003
   5.9300000000000019E-002    -3.1947270035743713E-003
   6.0400000000000009E-002    -9.0736877173185349E-003
   6.1500000000000027E-002    -1.4408991672098637E-002
   6.2600000000000017E-002    -1.7843315377831459E-002
   6.3700000000000007E-002    -1.8795296549797058E-002
   6.4800000000000024E-002    -1.7853524535894394E-002
   6.5900000000000014E-002    -1.6637025400996208E-002
   6.7000000000000004E-002    -1.7133276909589767E-002
   6.8100000000000022E-002    -2.0827841013669968E-002
   6.9200000000000012E-002    -2.8086438775062561E-002
   7.0300000000000029E-002    -3.8136363029479980E-002
   7.1400000000000019E-002    -4.9659065902233124E-002
   7.2500000000000009E-002    -6.1658397316932678E-002
   7.3600000000000027E-002    -7.4113123118877411E-002
   7.4700000000000016E-002    -8.8080033659934998E-002
   7.5800000000000006E-002   -0.10524935275316238
   7.6900000000000024E-002   -0.12728227674961090
   7.8000000000000014E-002   -0.15535975992679596
   7.9100000000000004E-002   -0.19016061723232269
   8.0200000000000021E-002   -0.23222748935222626
   8.1300000000000011E-002   -0.28240540623664856
   8.2400000000000029E-002   -0.34206256270408630
   8.3500000000000019E-002   -0.41296905279159546
   8.4600000000000009E-002   -0.49696996808052063
   8.5700000000000026E-002   -0.59568113088607788
   8.6800000000000016E-002   -0.71050220727920532
   8.7900000000000006E-002   -0.84294962882995605
   8.9000000000000024E-002   -0.99516779184341431
   9.0100000000000013E-002    -1.1702864170074463
   9.1200000000000003E-002    -1.3724699020385742
   9.2300000000000021E-002    -1.6064430475234985
   9.3400000000000011E-002    -1.8768726587295532
   9.4500000000000028E-002    -2.1879043579101562
   9.5600000000000018E-002    -2.5431301593780518
   9.6700000000000008E-002    -2.9458727836608887
   9.7800000000000026E-002    -3.3998198509216309
   9.8900000000000016E-002    -3.9091866016387939
  0.10000000000000001         -4.4784770011901855
  0.10110000000000002         -5.1119680404663086
  0.10220000000000001         -5.8134388923645020
  0.10330000000000003         -6.5861682891845703
  0.10440000000000002         -7.4335112571716309
  0.10550000000000001         -8.3589391708374023
  0.10660000000000003         -9.3660411834716797
  0.10770000000000002         -10.457192420959473
  0.10880000000000001         -11.632781028747559
  0.10990000000000003         -12.890020370483398
  0.11100000000000002         -14.223514556884766
  0.11210000000000001         -15.625861167907715
  0.11320000000000002         -17.087926864624023
  0.11430000000000001         -18.601186752319336
  0.11540000000000003         -20.155403137207031
  0.11650000000000002         -21.738235473632812
  0.11760000000000001         -23.332944869995117
  0.11870000000000003         -24.917612075805664
  0.11980000000000002         -26.466281890869141
  0.12090000000000001         -27.948389053344727
  0.12200000000000003         -29.330781936645508
  0.12310000000000001         -30.579902648925781
  0.12420000000000003         -31.661891937255859
  0.12530000000000002         -32.540149688720703
  0.12640000000000001         -33.175685882568359
  0.12750000000000003         -33.524734497070312
  0.12860000000000002         -33.539047241210938
  0.12970000000000001         -33.170902252197266
  0.13080000000000003         -32.376052856445312
  0.13190000000000002         -31.112991333007812
  0.13300000000000001         -29.339941024780273
  0.13410000000000000         -27.022394180297852
  0.13520000000000004         -24.126256942749023
  0.13630000000000003         -20.619209289550781
  0.13740000000000002         -16.477535247802734
  0.13850000000000001         -11.691669464111328
  0.13960000000000000         -6.2554464340209961
  0.14070000000000005        -0.17919257283210754
  0.14180000000000004          6.5222315788269043
  0.14290000000000003          13.815822601318359
  0.14400000000000002          21.662681579589844
  0.14510000000000001          30.012258529663086
  0.14620000000000000          38.804489135742188
  0.14730000000000004          47.959697723388672
  0.14840000000000003          57.374519348144531
  0.14950000000000002          66.939796447753906
  0.15060000000000001          76.533210754394531
  0.15170000000000000          86.030700683593750
  0.15280000000000005          95.299034118652344
  0.15390000000000004          104.19500732421875
  0.15500000000000003          112.57408142089844
  0.15610000000000002          120.28934478759766
  0.15720000000000001          127.19420623779297
  0.15830000000000000          133.13668823242188
  0.15940000000000004          137.97167968750000
  0.16050000000000003          141.55554199218750
  0.16160000000000002          143.77058410644531
  0.16270000000000001          144.51860046386719
  0.16380000000000000          143.72602844238281
  0.16490000000000005          141.33242797851562
  0.16600000000000004          137.28427124023438
  0.16710000000000003          131.54924011230469
  0.16820000000000002          124.12648773193359
  0.16930000000000001          115.05867004394531
  0.17040000000000000          104.41511535644531
  0.17150000000000004          92.289230346679688
  0.17260000000000003          78.786697387695312
  0.17370000000000002          64.034629821777344
  0.17480000000000001          48.190135955810547
  0.17590000000000000          31.441154479980469
  0.17700000000000005          14.000170707702637
  0.17810000000000004         -3.9109995365142822
  0.17920000000000003         -22.070713043212891
  0.18030000000000002         -40.251052856445312
  0.18140000000000001         -58.209800720214844
  0.18250000000000000         -75.707740783691406
  0.18360000000000004         -92.501930236816406
  0.18470000000000003         -108.36717224121094
  0.18580000000000002         -123.10608673095703
  0.18690000000000001         -136.51718139648438
  0.18800000000000000         -148.43536376953125
  0.18910000000000005         -158.70088195800781
  0.19020000000000004         -167.18601989746094
  0.19130000000000003         -173.79373168945312
  0.19240000000000002         -178.46270751953125
  0.19350000000000001         -181.16850280761719
  0.19460000000000005         -181.90051269531250
  0.19570000000000004         -180.68519592285156
  0.19680000000000003         -177.57165527343750
  0.19790000000000002         -172.65589904785156
  0.19900000000000001         -166.03935241699219
  0.20010000000000000         -157.85522460937500
  0.20120000000000005         -148.25453186035156
  0.20230000000000004         -137.39891052246094
  0.20340000000000003         -125.47779083251953
  0.20450000000000002         -112.68069458007812
  0.20560000000000000         -99.203475952148438
  0.20670000000000005         -85.260978698730469
  0.20780000000000004         -71.055633544921875
  0.20890000000000003         -56.785766601562500
