 -0.12000000000000000          0.0000000000000000
 -0.11889999999999999          0.0000000000000000
 -0.11780000000000000          0.0000000000000000
 -0.11670000000000000          0.0000000000000000
 -0.11559999999999999          0.0000000000000000
 -0.11449999999999999          0.0000000000000000
 -0.11340000000000000          0.0000000000000000
 -0.11230000000000000          0.0000000000000000
 -0.11119999999999999          0.0000000000000000
 -0.11009999999999999          0.0000000000000000
 -0.10900000000000000          0.0000000000000000
 -0.10790000000000000          3.6312381136313515E-028
 -0.10679999999999999          2.8823615459119101E-026
 -0.10569999999999999          5.9166899961626945E-025
 -0.10460000000000000          5.9824852357854924E-024
 -0.10349999999999999          3.7209003799239168E-023
 -0.10239999999999999          1.5627533956465084E-022
 -0.10130000000000000          4.5424352727504588E-022
 -0.10020000000000000          8.6301524395052907E-022
  -9.9099999999999994E-002     7.2618066826479175E-022
  -9.7999999999999990E-002    -1.2946801332358585E-021
  -9.6899999999999986E-002    -5.4947766322564991E-021
  -9.5799999999999996E-002    -7.1893708237578827E-021
  -9.4699999999999993E-002     4.3045832842406003E-021
  -9.3599999999999989E-002     3.3660583451242531E-020
  -9.2499999999999999E-002     5.6148839034340523E-020
  -9.1399999999999995E-002     1.7867186857263494E-020
  -9.0299999999999991E-002    -1.0015720637937708E-019
  -8.9200000000000002E-002    -2.1673646823386063E-019
  -8.8099999999999984E-002    -2.7664184462253416E-019
  -8.6999999999999994E-002    -5.0812976076217678E-019
  -8.5899999999999990E-002    -8.9171383182438811E-019
  -8.4799999999999986E-002     1.1600123450478003E-018
  -8.3699999999999997E-002     1.1967920417658122E-017
  -8.2599999999999993E-002     3.1099033034123351E-017
  -8.1499999999999989E-002     2.2106147098850998E-017
  -8.0399999999999999E-002    -1.0244048889573520E-016
  -7.9299999999999995E-002    -3.8131107179673453E-016
  -7.8199999999999992E-002    -5.1769383186761955E-016
  -7.7100000000000002E-002     3.4646487750052146E-016
  -7.5999999999999984E-002     2.9896387862343114E-015
  -7.4899999999999994E-002     5.8581154385945258E-015
  -7.3799999999999991E-002     2.5678528009184017E-015
  -7.2699999999999987E-002    -1.5414634222917292E-014
  -7.1599999999999997E-002    -4.4521749161712323E-014
  -7.0499999999999993E-002    -4.8250018889160751E-014
  -6.9399999999999989E-002     3.9680596726184361E-014
  -6.8300000000000000E-002     2.4301543308062612E-013
  -6.7199999999999996E-002     4.0593036202372923E-013
  -6.6099999999999992E-002     1.3397339878110093E-013
  -6.5000000000000002E-002    -9.2201908000882904E-013
  -6.3899999999999985E-002    -2.3354733945379902E-012
  -6.2799999999999995E-002    -2.2647651982954375E-012
  -6.1699999999999991E-002     1.7919808432270701E-012
  -6.0599999999999994E-002     9.8246541110902363E-012
  -5.9499999999999990E-002     1.5207026610175589E-011
  -5.8399999999999994E-002     5.0510303405137957E-012
  -5.7299999999999990E-002    -2.8758505993264905E-011
  -5.6199999999999986E-002    -6.9700828442265106E-011
  -5.5099999999999996E-002    -6.6420598188177138E-011
  -5.3999999999999992E-002     3.8689745851527846E-011
  -5.2899999999999989E-002     2.3280169458850253E-010
  -5.1799999999999985E-002     3.5817662724646482E-010
  -5.0699999999999995E-002     1.5093379324149225E-010
  -4.9599999999999991E-002    -5.2207560496952965E-010
  -4.8499999999999988E-002    -1.3218295347172671E-009
  -4.7399999999999998E-002    -1.3393117725968295E-009
  -4.6299999999999994E-002     3.4911715185437231E-010
  -4.5199999999999990E-002     3.4909812818284536E-009
  -4.4099999999999986E-002     5.7097420125273857E-009
  -4.2999999999999997E-002     3.2770368640910874E-009
  -4.1899999999999993E-002    -5.6251807656337860E-009
  -4.0799999999999989E-002    -1.6773350708376711E-008
  -3.9699999999999985E-002    -1.9158143516051496E-008
  -3.8599999999999995E-002    -1.7029505583465721E-009
  -3.7499999999999992E-002     3.3800262144723092E-008
  -3.6399999999999988E-002     6.3303666308911488E-008
  -3.5299999999999984E-002     4.8655472539849143E-008
  -3.4199999999999994E-002    -3.1368905695217109E-008
  -3.3099999999999991E-002    -1.4367950029736676E-007
  -3.1999999999999987E-002    -1.9388696159694518E-007
  -3.0899999999999997E-002    -8.0824577253224561E-008
  -2.9799999999999993E-002     2.0078357465536101E-007
  -2.8699999999999989E-002     4.8492432824787102E-007
  -2.7599999999999986E-002     4.8542563035880448E-007
  -2.6499999999999996E-002     6.6584235902666933E-009
  -2.5399999999999992E-002    -7.9841754541121190E-007
  -2.4299999999999988E-002    -1.3563030734076165E-006
  -2.3199999999999985E-002    -9.7610495686240029E-007
  -2.2099999999999995E-002     5.4847527053425438E-007
  -2.0999999999999991E-002     2.4576065698056482E-006
  -1.9899999999999987E-002     3.2023526728153229E-006
  -1.8799999999999983E-002     1.4695608570036711E-006
  -1.7699999999999994E-002    -2.4757373466854915E-006
  -1.6599999999999990E-002    -6.2355247791856527E-006
  -1.5499999999999986E-002    -6.4155469772231299E-006
  -1.4399999999999996E-002    -1.2020484518870944E-006
  -1.3299999999999992E-002     7.3243504630227108E-006
  -1.2199999999999989E-002     1.3345591469260398E-005
  -1.1099999999999985E-002     1.0822986951097846E-005
  -9.9999999999999950E-003    -1.4094699736233451E-006
  -8.8999999999999913E-003    -1.6858173694345169E-005
  -7.7999999999999875E-003    -2.4154922357411124E-005
  -6.6999999999999837E-003    -1.4922706213837955E-005
  -5.5999999999999939E-003     8.3833856479031965E-006
  -4.4999999999999901E-003     3.1364441383630037E-005
  -3.3999999999999864E-003     3.6200108297634870E-005
  -2.2999999999999826E-003     1.5237793377309572E-005
  -1.1999999999999927E-003    -2.0516401491477154E-005
  -9.9999999999988987E-005    -4.6404104068642482E-005
   1.0000000000000148E-003    -4.1474733734503388E-005
   2.1000000000000185E-003    -6.1621976783499122E-006
   3.2000000000000084E-003     3.4713633795036003E-005
   4.3000000000000121E-003     4.9098849558504298E-005
   5.4000000000000159E-003     2.4028402549447492E-005
   6.5000000000000058E-003    -2.0218321878928691E-005
   7.6000000000000234E-003    -4.3103125790366903E-005
   8.7000000000000133E-003    -1.7830554497777484E-005
   9.8000000000000032E-003     4.0016569982981309E-005
   1.0900000000000021E-002     7.6584547059610486E-005
   1.2000000000000011E-002     4.0676361095393077E-005
   1.3100000000000001E-002    -6.6562708525452763E-005
   1.4200000000000018E-002    -1.7550759366713464E-004
   1.5300000000000008E-002    -1.8788943998515606E-004
   1.6400000000000026E-002    -5.1560396968852729E-005
   1.7500000000000016E-002     1.8459426064509898E-004
   1.8600000000000005E-002     3.8362180930562317E-004
   1.9700000000000023E-002     4.0153900044970214E-004
   2.0800000000000013E-002     1.8280179938301444E-004
   2.1900000000000003E-002    -1.9813439575955272E-004
   2.3000000000000020E-002    -5.7669763918966055E-004
   2.4100000000000010E-002    -7.8284362098202109E-004
   2.5200000000000000E-002    -7.0354557828977704E-004
   2.6300000000000018E-002    -2.9202469158917665E-004
   2.7400000000000008E-002     4.3663952965289354E-004
   2.8500000000000025E-002     1.3557646889239550E-003
   2.9600000000000015E-002     2.1236324682831764E-003
   3.0700000000000005E-002     2.1530753001570702E-003
   3.1800000000000023E-002     8.3572586299851537E-004
   3.2900000000000013E-002    -1.9358940189704299E-003
   3.4000000000000002E-002    -5.2157165482640266E-003
   3.5100000000000020E-002    -6.9508440792560577E-003
   3.6200000000000010E-002    -4.8686866648495197E-003
   3.7300000000000028E-002     1.8297295318916440E-003
   3.8400000000000017E-002     1.0915951803326607E-002
   3.9500000000000007E-002     1.7110234126448631E-002
   4.0600000000000025E-002     1.4467972330749035E-002
   4.1700000000000015E-002     5.3842808119952679E-004
   4.2800000000000005E-002    -2.0090971142053604E-002
   4.3900000000000022E-002    -3.5904560238122940E-002
   4.5000000000000012E-002    -3.3799033612012863E-002
   4.6100000000000002E-002    -7.8992536291480064E-003
   4.7200000000000020E-002     3.3278070390224457E-002
   4.8300000000000010E-002     6.7260630428791046E-002
   4.9400000000000027E-002     6.8260669708251953E-002
   5.0500000000000017E-002     2.4084882810711861E-002
   5.1600000000000007E-002    -5.0612397491931915E-002
   5.2700000000000025E-002   -0.11546577513217926
   5.3800000000000014E-002   -0.12392406910657883
   5.4900000000000004E-002    -5.3325217217206955E-002
   5.6000000000000022E-002     7.2303593158721924E-002
   5.7100000000000012E-002    0.18489009141921997
   5.8200000000000002E-002    0.20610632002353668
   5.9300000000000019E-002     9.7816102206707001E-002
   6.0400000000000009E-002   -0.10109914839267731
   6.1500000000000027E-002   -0.28078550100326538
   6.2600000000000017E-002   -0.31675860285758972
   6.3700000000000007E-002   -0.15100666880607605
   6.4800000000000024E-002    0.15167130529880524
   6.5900000000000014E-002    0.41745120286941528
   6.7000000000000004E-002    0.45593264698982239
   6.8100000000000022E-002    0.18747118115425110
   6.9200000000000012E-002   -0.27381038665771484
   7.0300000000000029E-002   -0.65014654397964478
   7.1400000000000019E-002   -0.65156763792037964
   7.2500000000000009E-002   -0.17517077922821045
   7.3600000000000027E-002    0.57291156053543091
   7.4700000000000016E-002     1.1366989612579346
   7.5800000000000006E-002     1.0569719076156616
   7.6900000000000024E-002    0.18566834926605225
   7.8000000000000014E-002    -1.1271116733551025
   7.9100000000000004E-002    -2.1309092044830322
   8.0200000000000021E-002    -2.0629281997680664
   8.1300000000000011E-002   -0.64104586839675903
   8.2400000000000029E-002     1.6345207691192627
   8.3500000000000019E-002     3.6081125736236572
   8.4600000000000009E-002     4.0350284576416016
   8.5700000000000026E-002     2.3190176486968994
   8.6800000000000016E-002    -1.0083303451538086
   8.7900000000000006E-002    -4.4106802940368652
   8.9000000000000024E-002    -6.0963268280029297
   9.0100000000000013E-002    -5.0268726348876953
   9.1200000000000003E-002    -1.5977952480316162
   9.2300000000000021E-002     2.4756381511688232
   9.3400000000000011E-002     5.0947279930114746
   9.4500000000000028E-002     5.0410718917846680
   9.5600000000000018E-002     2.7938661575317383
   9.6700000000000008E-002    0.31112587451934814
   9.7800000000000026E-002   -0.21743285655975342
   9.8900000000000016E-002     2.0431954860687256
  0.10000000000000001          5.6662120819091797
  0.10110000000000002          7.4611630439758301
  0.10220000000000001          4.2869429588317871
  0.10330000000000003         -4.7914667129516602
  0.10440000000000002         -17.347826004028320
  0.10550000000000001         -28.333230972290039
  0.10660000000000003         -32.498363494873047
  0.10770000000000002         -27.171279907226562
  0.10880000000000001         -13.662799835205078
  0.10990000000000003          3.7471408843994141
  0.11100000000000002          20.828525543212891
  0.11210000000000001          36.635402679443359
  0.11320000000000002          54.798709869384766
  0.11430000000000001          81.751350402832031
  0.11540000000000003          122.69416809082031
  0.11650000000000002          177.78829956054688
  0.11760000000000001          241.31706237792969
  0.11870000000000003          305.01367187500000
  0.11980000000000002          364.15966796875000
  0.12090000000000001          422.97799682617188
  0.12200000000000003          495.72747802734375
  0.12310000000000001          602.11529541015625
  0.12420000000000003          759.08551025390625
  0.12530000000000002          973.66168212890625
  0.12640000000000001          1241.5156250000000
  0.12750000000000003          1552.9818115234375
  0.12860000000000002          1903.7893066406250
  0.12970000000000001          2304.5976562500000
  0.13080000000000003          2783.4785156250000
  0.13190000000000002          3379.3107910156250
  0.13300000000000001          4129.5141601562500
  0.13410000000000000          5059.3774414062500
  0.13520000000000004          6179.9497070312500
  0.13630000000000003          7496.8320312500000
  0.13740000000000002          9025.5664062500000
  0.13850000000000001          10804.941406250000
  0.13960000000000000          12900.103515625000
  0.14070000000000005          15393.038085937500
  0.14180000000000004          18365.640625000000
  0.14290000000000003          21885.480468750000
  0.14400000000000002          26003.562500000000
  0.14510000000000001          30766.312500000000
  0.14620000000000000          36235.816406250000
  0.14730000000000004          42506.394531250000
  0.14840000000000003          49707.808593750000
  0.14950000000000002          57992.144531250000
  0.15060000000000001          67512.171875000000
  0.15170000000000000          78403.492187500000
  0.15280000000000005          90782.226562500000
  0.15390000000000004          104758.34375000000
  0.15500000000000003          120457.36718750000
  0.15610000000000002          138036.10937500000
  0.15720000000000001          157680.79687500000
  0.15830000000000000          179587.92187500000
  0.15940000000000004          203936.48437500000
  0.16050000000000003          230870.48437500000
  0.16160000000000002          260497.10937500000
  0.16270000000000001          292904.40625000000
  0.16380000000000000          328183.59375000000
  0.16490000000000005          366437.65625000000
  0.16600000000000004          407769.34375000000
  0.16710000000000003          452249.59375000000
  0.16820000000000002          499882.46875000000
  0.16930000000000001          550583.43750000000
  0.17040000000000000          604184.62500000000
  0.17150000000000004          660459.50000000000
  0.17260000000000003          719146.93750000000
  0.17370000000000002          779964.75000000000
  0.17480000000000001          842587.87500000000
  0.17590000000000000          906616.50000000000
  0.17700000000000005          971529.81250000000
  0.17810000000000004          1036667.4375000000
  0.17920000000000003          1101240.7500000000
  0.18030000000000002          1164367.1250000000
  0.18140000000000001          1225115.3750000000
  0.18250000000000000          1282525.3750000000
  0.18360000000000004          1335589.0000000000
  0.18470000000000003          1383248.3750000000
  0.18580000000000002          1424357.1250000000
  0.18690000000000001          1457672.2500000000
  0.18800000000000000          1481882.8750000000
  0.18910000000000005          1495661.6250000000
  0.19020000000000004          1497704.2500000000
  0.19130000000000003          1486777.8750000000
  0.19240000000000002          1461749.8750000000
  0.19350000000000001          1421549.3750000000
  0.19460000000000005          1365186.3750000000
  0.19570000000000004          1291765.8750000000
  0.19680000000000003          1200512.2500000000
  0.19790000000000002          1090835.2500000000
  0.19900000000000001          962392.50000000000
  0.20010000000000000          815085.12500000000
  0.20120000000000005          649064.18750000000
  0.20230000000000004          464757.46875000000
  0.20340000000000003          262833.68750000000
  0.20450000000000002          44222.617187500000
  0.20560000000000000         -189844.14062500000
  0.20670000000000005         -437839.25000000000
  0.20780000000000004         -697925.12500000000
  0.20890000000000003         -967932.18750000000
