 -0.12000000000000000          0.0000000000000000
 -0.11889999999999999          0.0000000000000000
 -0.11780000000000000          0.0000000000000000
 -0.11670000000000000          0.0000000000000000
 -0.11559999999999999          0.0000000000000000
 -0.11449999999999999          0.0000000000000000
 -0.11340000000000000          0.0000000000000000
 -0.11230000000000000          0.0000000000000000
 -0.11119999999999999          0.0000000000000000
 -0.11009999999999999          0.0000000000000000
 -0.10900000000000000          0.0000000000000000
 -0.10790000000000000          0.0000000000000000
 -0.10679999999999999          0.0000000000000000
 -0.10569999999999999          0.0000000000000000
 -0.10460000000000000          0.0000000000000000
 -0.10349999999999999          0.0000000000000000
 -0.10239999999999999          1.2111221740024901E-031
 -0.10130000000000000          8.0720651641587702E-031
 -0.10020000000000000         -5.1550490372825169E-030
  -9.9099999999999994E-002    -8.4245147074166646E-029
  -9.7999999999999990E-002    -4.3199258653961931E-028
  -9.6899999999999986E-002    -7.6868722238779300E-028
  -9.5799999999999996E-002     2.9711654437942266E-027
  -9.4699999999999993E-002     2.3561316953384170E-026
  -9.3599999999999989E-002     6.5887252851820992E-026
  -9.2499999999999999E-002     2.9169965455853968E-026
  -9.1399999999999995E-002    -4.6510252895699330E-025
  -9.0299999999999991E-002    -1.8797894700408589E-024
  -8.9200000000000002E-002    -3.0511688309883130E-024
  -8.8099999999999984E-002     2.4533729952402248E-024
  -8.6999999999999994E-002     2.6510674151023543E-023
  -8.5899999999999990E-002     6.7233737738660230E-023
  -8.4799999999999986E-002     5.7543307270052904E-023
  -8.3699999999999997E-002    -1.7482462751179219E-022
  -8.2599999999999993E-002    -7.7293697160999494E-022
  -8.1499999999999989E-002    -1.3420974136672155E-021
  -8.0399999999999999E-002    -2.6773159097538058E-022
  -7.9299999999999995E-002     4.8914287508589766E-021
  -7.8199999999999992E-002     1.3850665990170218E-020
  -7.7100000000000002E-002     1.6751903437884795E-020
  -7.5999999999999984E-002    -8.9523617043661778E-021
  -7.4899999999999994E-002    -8.2008139956927667E-020
  -7.3799999999999991E-002    -1.6992147060808311E-019
  -7.2699999999999987E-002    -1.3682353153209003E-019
  -7.1599999999999997E-002     2.2257096083510927E-019
  -7.0499999999999993E-002     9.5093882630984263E-019
  -6.9399999999999989E-002     1.5302732764775614E-018
  -6.8300000000000000E-002     7.0166582906666808E-019
  -6.7199999999999996E-002    -2.8019808536141628E-018
  -6.6099999999999992E-002    -8.2389637464894713E-018
  -6.5000000000000002E-002    -1.0638889327469172E-017
  -6.3899999999999985E-002    -1.4799594987311407E-018
  -6.2799999999999995E-002     2.4334388034972868E-017
  -6.1699999999999991E-002     5.6123324441551171E-017
  -6.0599999999999994E-002     5.9607812845763450E-017
  -5.9499999999999990E-002    -9.4856275000028406E-018
  -5.8399999999999994E-002    -1.6073859689914139E-016
  -5.7299999999999990E-002    -3.1262448188961367E-016
  -5.6199999999999986E-002    -2.8179465313148448E-016
  -5.5099999999999996E-002     1.1590501065207327E-016
  -5.3999999999999992E-002     8.4995976372441917E-016
  -5.2899999999999989E-002     1.4749805050639207E-015
  -5.1799999999999985E-002     1.1891854476714521E-015
  -5.0699999999999995E-002    -6.5786809669887204E-016
  -4.9599999999999991E-002    -3.7282544808553766E-015
  -4.8499999999999988E-002    -6.1043898444922400E-015
  -4.7399999999999998E-002    -4.7622449637441198E-015
  -4.6299999999999994E-002     2.4511748594670691E-015
  -4.5199999999999990E-002     1.3995306852982413E-014
  -4.4099999999999986E-002     2.2934250527330280E-014
  -4.2999999999999997E-002     1.8799376186079582E-014
  -4.1899999999999993E-002    -5.8696422864572360E-015
  -4.0799999999999989E-002    -4.6424527362556173E-014
  -3.9699999999999985E-002    -8.0358137678759878E-014
  -3.8599999999999995E-002    -7.2495354446096283E-014
  -3.7499999999999992E-002     4.6313499977895974E-015
  -3.6399999999999988E-002     1.4058467389353735E-013
  -3.5299999999999984E-002     2.6535520200425544E-013
  -3.4199999999999994E-002     2.6246913713626197E-013
  -3.3099999999999991E-002     3.4039438612633657E-014
  -3.1999999999999987E-002    -3.9816189082754472E-013
  -3.0899999999999997E-002    -8.1845858215801037E-013
  -2.9799999999999993E-002    -8.5953450303447032E-013
  -2.8699999999999989E-002    -2.1334584760727276E-013
  -2.7599999999999986E-002     1.0556099180533685E-012
  -2.6499999999999996E-002     2.3070907163857957E-012
  -2.5399999999999992E-002     2.4939670554419147E-012
  -2.4299999999999988E-002     7.9891540431809016E-013
  -2.3199999999999985E-002    -2.5336367118905523E-012
  -2.2099999999999995E-002    -5.7877817122298225E-012
  -2.0999999999999991E-002    -6.3826084174822828E-012
  -1.9899999999999987E-002    -2.5084190367202774E-012
  -1.8799999999999983E-002     5.0836895457151421E-012
  -1.7699999999999994E-002     1.2543550399757297E-011
  -1.6599999999999990E-002     1.4562646227789244E-011
  -1.5499999999999986E-002     7.6671759219326674E-012
  -1.4399999999999996E-002    -6.8409210587927483E-012
  -1.3299999999999992E-002    -2.2500123292301666E-011
  -1.2199999999999989E-002    -3.0506749904013475E-011
  -1.1099999999999985E-002    -2.4123579869805845E-011
  -9.9999999999999950E-003    -2.0858922228361720E-012
  -8.8999999999999913E-003     3.0313439258744523E-011
  -7.7999999999999875E-003     6.1633469161659349E-011
  -6.6999999999999837E-003     7.5163909818432018E-011
  -5.5999999999999939E-003     5.2026081359679566E-011
  -4.4999999999999901E-003    -1.9254231889420659E-011
  -3.3999999999999864E-003    -1.2589124187556422E-010
  -2.2999999999999826E-003    -2.1675164441070649E-010
  -1.1999999999999927E-003    -2.1112944725842908E-010
  -9.9999999999988987E-005    -4.4943059690494280E-011
   1.0000000000000148E-003     2.5953875160134032E-010
   2.1000000000000185E-003     5.5106147422989693E-010
   3.2000000000000084E-003     5.9456617407249723E-010
   4.3000000000000121E-003     2.1937618388534474E-010
   5.4000000000000159E-003    -5.0341097956874137E-010
   6.5000000000000058E-003    -1.1963402490877684E-009
   7.6000000000000234E-003    -1.3356121764118711E-009
   8.7000000000000133E-003    -5.9977067756733504E-010
   9.8000000000000032E-003     8.0804185564886666E-010
   1.0900000000000021E-002     2.1376236336578813E-009
   1.2000000000000011E-002     2.4816078081357773E-009
   1.3100000000000001E-002     1.3814686061763837E-009
   1.4200000000000018E-002    -7.7210704496621929E-010
   1.5300000000000008E-002    -2.8850193345419939E-009
   1.6400000000000026E-002    -3.8043501682238912E-009
   1.7500000000000016E-002    -3.0058946443034529E-009
   1.8600000000000005E-002    -8.1100853810411877E-010
   1.9700000000000023E-002     1.9763410907813750E-009
   2.0800000000000013E-002     4.5811847648735693E-009
   2.1900000000000003E-002     6.3528040605831393E-009
   2.3000000000000020E-002     6.3916218984161333E-009
   2.4100000000000010E-002     3.3959797196558839E-009
   2.5200000000000000E-002    -3.4540270643645954E-009
   2.6300000000000018E-002    -1.2705935859003148E-008
   2.7400000000000008E-002    -1.9499333703265620E-008
   2.8500000000000025E-002    -1.7111391414914578E-008
   2.9600000000000015E-002    -1.6237072797409269E-009
   3.0700000000000005E-002     2.2867538973514456E-008
   3.1800000000000023E-002     4.3105952585165141E-008
   3.2900000000000013E-002     4.2741167050053264E-008
   3.4000000000000002E-002     1.3685445665601037E-008
   3.5100000000000020E-002    -3.4555192485186126E-008
   3.6200000000000010E-002    -7.5842287117211526E-008
   3.7300000000000028E-002    -8.1137883967130620E-008
   3.8400000000000017E-002    -3.7975699029857424E-008
   3.9500000000000007E-002     3.7521367346471379E-008
   4.0600000000000025E-002     1.0619582724302745E-007
   4.1700000000000015E-002     1.2755550926613068E-007
   4.2800000000000005E-002     8.4197949945519213E-008
   4.3900000000000022E-002    -7.2954486896037452E-009
   4.5000000000000012E-002    -1.0585503673610219E-007
   4.6100000000000002E-002    -1.6802663083126390E-007
   4.7200000000000020E-002    -1.6698724891739403E-007
   4.8300000000000010E-002    -9.8265040548994875E-008
   4.9400000000000027E-002     2.4492841532719467E-008
   5.0500000000000017E-002     1.7222306780695362E-007
   5.1600000000000007E-002     2.9659665301551286E-007
   5.2700000000000025E-002     3.3023442824742233E-007
   5.3800000000000014E-002     2.0906844611090492E-007
   5.4900000000000004E-002    -7.9463838176252466E-008
   5.6000000000000022E-002    -4.4896404460814665E-007
   5.7100000000000012E-002    -7.1403286483473494E-007
   5.8200000000000002E-002    -6.6809747067964054E-007
   5.9300000000000019E-002    -2.1644819980792818E-007
   6.0400000000000009E-002     5.1429486802589963E-007
   6.1500000000000027E-002     1.1805295798694715E-006
   6.2600000000000017E-002     1.3737035260419361E-006
   6.3700000000000007E-002     8.5651475956183276E-007
   6.4800000000000024E-002    -2.5343450715809013E-007
   6.5900000000000014E-002    -1.4798524716752581E-006
   6.7000000000000004E-002    -2.1941539216641104E-006
   6.8100000000000022E-002    -1.9352678464201745E-006
   6.9200000000000012E-002    -6.7169855810789159E-007
   7.0300000000000029E-002     1.1381820286260336E-006
   7.1400000000000019E-002     2.7222977223573253E-006
   7.2500000000000009E-002     3.3217579584743362E-006
   7.3600000000000027E-002     2.5207027647411451E-006
   7.4700000000000016E-002     4.4824452061220654E-007
   7.5800000000000006E-002    -2.2144170088722603E-006
   7.6900000000000024E-002    -4.4250218707020395E-006
   7.8000000000000014E-002    -5.1292222451593261E-006
   7.9100000000000004E-002    -3.6886735870211851E-006
   8.0200000000000021E-002    -2.5753794830052357E-007
   8.1300000000000011E-002     4.0698273551242892E-006
   8.2400000000000029E-002     7.5009397733083460E-006
   8.3500000000000019E-002     8.2084789028158411E-006
   8.4600000000000009E-002     5.2217856136849150E-006
   8.5700000000000026E-002    -8.5593580934073543E-007
   8.6800000000000016E-002    -7.7516260716947727E-006
   8.7900000000000006E-002    -1.2281215276743751E-005
   8.9000000000000024E-002    -1.1776841347455047E-005
   9.0100000000000013E-002    -5.5692453315714374E-006
   9.1200000000000003E-002     4.2667102206905838E-006
   9.2300000000000021E-002     1.3461686648952309E-005
   9.3400000000000011E-002     1.7357551769237034E-005
   9.4500000000000028E-002     1.3237345228844788E-005
   9.5600000000000018E-002     2.0358090750960400E-006
   9.6700000000000008E-002    -1.1567868568818085E-005
   9.7800000000000026E-002    -2.0966019292245619E-005
   9.8900000000000016E-002    -2.0680896341218613E-005
  0.10000000000000001         -9.2788259280496277E-006
  0.10110000000000002          9.3228472906048410E-006
  0.10220000000000001          2.6965268261847086E-005
  0.10330000000000003          3.4495329600758851E-005
  0.10440000000000002          2.5870118406601250E-005
  0.10550000000000001          1.3902238151786150E-006
  0.10660000000000003         -3.1387120543513447E-005
  0.10770000000000002         -5.9651556512108073E-005
  0.10880000000000001         -6.9785550294909626E-005
  0.10990000000000003         -5.2838659030385315E-005
  0.11100000000000002         -9.0663052105810493E-006
  0.11210000000000001          5.0409355026204139E-005
  0.11320000000000002          1.0604619455989450E-004
  0.11430000000000001          1.3626842701341957E-004
  0.11540000000000003          1.2586855154950172E-004
  0.11650000000000002          7.3099792643915862E-005
  0.11760000000000001         -8.0371419244329445E-006
  0.11870000000000003         -9.2229493020568043E-005
  0.11980000000000002         -1.5293766045942903E-004
  0.12090000000000001         -1.7396881594322622E-004
  0.12200000000000003         -1.5689678548369557E-004
  0.12310000000000001         -1.1997160618193448E-004
  0.12420000000000003         -8.7995671492535621E-005
  0.12530000000000002         -7.7325741585809737E-005
  0.12640000000000001         -8.3316597738303244E-005
  0.12750000000000003         -7.7287702879402786E-005
  0.12860000000000002         -1.6287187463603914E-005
  0.12970000000000001          1.3693139771930873E-004
  0.13080000000000003          3.9145757909864187E-004
  0.13190000000000002          7.1304151788353920E-004
  0.13300000000000001          1.0236987145617604E-003
  0.13410000000000000          1.2179060140624642E-003
  0.13520000000000004          1.1905031278729439E-003
  0.13630000000000003          8.6653575999662280E-004
  0.13740000000000002          2.2222015832085162E-004
  0.13850000000000001         -7.1051705162972212E-004
  0.13960000000000000         -1.8573675770312548E-003
  0.14070000000000005         -3.1282070558518171E-003
  0.14180000000000004         -4.4475202448666096E-003
  0.14290000000000003         -5.7791415601968765E-003
  0.14400000000000002         -7.1375807747244835E-003
  0.14510000000000001         -8.5839228704571724E-003
  0.14620000000000000         -1.0209141299128532E-002
  0.14730000000000004         -1.2113288976252079E-002
  0.14840000000000003         -1.4390872791409492E-002
  0.14950000000000002         -1.7131498083472252E-002
  0.15060000000000001         -2.0438726991415024E-002
  0.15170000000000000         -2.4461900815367699E-002
  0.15280000000000005         -2.9428880661725998E-002
  0.15390000000000004         -3.5662755370140076E-002
  0.15500000000000003         -4.3571382761001587E-002
  0.15610000000000002         -5.3608898073434830E-002
  0.15720000000000001         -6.6222906112670898E-002
  0.15830000000000000         -8.1810884177684784E-002
  0.15940000000000004        -0.10071698576211929
  0.16050000000000003        -0.12326717376708984
  0.16160000000000002        -0.14984881877899170
  0.16270000000000001        -0.18100480735301971
  0.16380000000000000        -0.21749739348888397
  0.16490000000000005        -0.26033976674079895
  0.16600000000000004        -0.31075575947761536
  0.16710000000000003        -0.37010899186134338
  0.16820000000000002        -0.43981656432151794
  0.16930000000000001        -0.52130514383316040
  0.17040000000000000        -0.61599576473236084
  0.17150000000000004        -0.72539067268371582
  0.17260000000000003        -0.85112583637237549
  0.17370000000000002        -0.99507600069046021
  0.17480000000000001         -1.1593657732009888
  0.17590000000000000         -1.3463491201400757
  0.17700000000000005         -1.5585585832595825
  0.17810000000000004         -1.7985576391220093
  0.17920000000000003         -2.0688641071319580
  0.18030000000000002         -2.3718783855438232
  0.18140000000000001         -2.7098200321197510
  0.18250000000000000         -3.0847954750061035
  0.18360000000000004         -3.4987013339996338
  0.18470000000000003         -3.9531078338623047
  0.18580000000000002         -4.4494132995605469
  0.18690000000000001         -4.9887742996215820
  0.18800000000000000         -5.5718770027160645
  0.18910000000000005         -6.1988472938537598
  0.19020000000000004         -6.8691363334655762
  0.19130000000000003         -7.5810065269470215
  0.19240000000000002         -8.3317527770996094
  0.19350000000000001         -9.1171970367431641
  0.19460000000000005         -9.9317760467529297
  0.19570000000000004         -10.768802642822266
  0.19680000000000003         -11.620265007019043
  0.19790000000000002         -12.476569175720215
  0.19900000000000001         -13.326320648193359
  0.20010000000000000         -14.156639099121094
  0.20120000000000005         -14.953605651855469
  0.20230000000000004         -15.700324058532715
  0.20340000000000003         -16.378293991088867
  0.20450000000000002         -16.967693328857422
  0.20560000000000000         -17.446300506591797
  0.20670000000000005         -17.792745590209961
  0.20780000000000004         -17.983211517333984
  0.20890000000000003         -17.994871139526367
