 -0.12000000000000000          0.0000000000000000
 -0.11889999999999999          0.0000000000000000
 -0.11780000000000000          0.0000000000000000
 -0.11670000000000000          0.0000000000000000
 -0.11559999999999999          0.0000000000000000
 -0.11449999999999999          0.0000000000000000
 -0.11340000000000000          0.0000000000000000
 -0.11230000000000000          0.0000000000000000
 -0.11119999999999999          0.0000000000000000
 -0.11009999999999999          0.0000000000000000
 -0.10900000000000000          0.0000000000000000
 -0.10790000000000000          0.0000000000000000
 -0.10679999999999999          0.0000000000000000
 -0.10569999999999999          0.0000000000000000
 -0.10460000000000000          6.5735683084441732E-200
 -0.10349999999999999          5.6867775124725049E-175
 -0.10239999999999999         -1.4336537351853509E-149
 -0.10130000000000000          6.9199743617441385E-125
 -0.10020000000000000          1.1561939968636887E-099
  -9.9099999999999994E-002     2.8787408206535711E-075
  -9.7999999999999990E-002     1.7518782293509623E-051
  -9.6899999999999986E-002     3.5201372987370032E-050
  -9.5799999999999996E-002     3.2283747605505019E-049
  -9.4699999999999993E-002     1.6894468883320807E-048
  -9.3599999999999989E-002     4.6777488294425366E-048
  -9.2499999999999999E-002    -8.1201947527635527E-049
  -9.1399999999999995E-002    -6.7766408836200927E-047
  -9.0299999999999991E-002    -3.0007945973813212E-046
  -8.9200000000000002E-002    -5.5195671543643033E-046
  -8.8099999999999984E-002     7.0844327027033398E-046
  -8.6999999999999994E-002     7.6891940219847714E-045
  -8.5899999999999990E-002     2.2516536549276198E-044
  -8.4799999999999986E-002     2.0545064244528728E-044
  -8.3699999999999997E-002    -9.3291868854915385E-044
  -8.2599999999999993E-002    -4.5511069369497043E-043
  -8.1499999999999989E-002    -8.8291142688525537E-043
  -8.0399999999999999E-002    -3.5893212925160601E-046
  -7.9299999999999995E-002     5.2478028916954451E-042
  -7.8199999999999992E-002     1.6202900346157519E-041
  -7.7100000000000002E-002     2.0457977050532587E-041
  -7.5999999999999984E-002    -2.4309553006301880E-041
  -7.4899999999999994E-002    -1.7589331622974662E-040
  -7.3799999999999991E-002    -3.9215102019274583E-040
  -7.2699999999999987E-002    -2.8763855423009896E-040
  -7.1599999999999997E-002     1.0001479412995422E-039
  -7.0499999999999993E-002     4.1107885911485106E-039
  -6.9399999999999989E-002     7.0664346701728143E-039
  -6.8300000000000000E-002     1.9300552254736889E-039
  -6.7199999999999996E-002    -2.4206180238665090E-038
  -6.6099999999999992E-002    -7.3583272399940124E-038
  -6.5000000000000002E-002    -1.0174023482668598E-037
  -6.3899999999999985E-002     1.4980806169846163E-038
  -6.2799999999999995E-002     4.2857475589879730E-037
  -6.1699999999999991E-002     1.0745952923053324E-036
  -6.0599999999999994E-002     1.2422823318102470E-036
  -5.9499999999999990E-002    -6.3959890841036950E-037
  -5.8399999999999994E-002    -6.0605162709206509E-036
  -5.7299999999999990E-002    -1.3390437121059420E-035
  -5.6199999999999986E-002    -1.3561586167131506E-035
  -5.5099999999999996E-002     1.0559530053690576E-035
  -5.3999999999999992E-002     7.1830287375183499E-035
  -5.2899999999999989E-002     1.4697016113866027E-034
  -5.1799999999999985E-002     1.3821836741757628E-034
  -5.0699999999999995E-002    -1.2078023548920854E-034
  -4.9599999999999991E-002    -7.3445470326694427E-034
  -4.8499999999999988E-002    -1.4512725580806162E-033
  -4.7399999999999998E-002    -1.3500406266828951E-033
  -4.6299999999999994E-002     1.0451075041392585E-033
  -4.5199999999999990E-002     6.5865619967319321E-033
  -4.4099999999999986E-002     1.3051444366859899E-032
  -4.2999999999999997E-002     1.2697285144810609E-032
  -4.1899999999999993E-002    -6.6311316885141944E-033
  -4.0799999999999989E-002    -5.2162107951518720E-032
  -3.9699999999999985E-002    -1.0741477877493967E-031
  -3.8599999999999995E-002    -1.1370772829347698E-031
  -3.7499999999999992E-002     2.2531482229367607E-032
  -3.6399999999999988E-002     3.6381751256132553E-031
  -3.5299999999999984E-002     8.0828124021292943E-031
  -3.4199999999999994E-002     9.5349820277390193E-031
  -3.3099999999999991E-002     1.2641309650362500E-031
  -3.1999999999999987E-002    -2.2003281667560693E-030
  -3.0899999999999997E-002    -5.5296407513900842E-030
  -2.9799999999999993E-002    -7.3737521359266776E-030
  -2.8699999999999989E-002    -3.2330480348872561E-030
  -2.7599999999999986E-002     1.1069738076905539E-029
  -2.6499999999999996E-002     3.4029393269845664E-029
  -2.5399999999999992E-002     5.1953196403765515E-029
  -2.4299999999999988E-002     3.7121116182390944E-029
  -2.3199999999999985E-002    -4.0844054466948376E-029
  -2.2099999999999995E-002    -1.8495177658837380E-028
  -2.0999999999999991E-002    -3.2992265150250722E-028
  -1.9899999999999987E-002    -3.2021436185353755E-028
  -1.8799999999999983E-002     4.4517312575583986E-029
  -1.7699999999999994E-002     8.5696887073409862E-028
  -1.6599999999999990E-002     1.8648417903788210E-027
  -1.5499999999999986E-002     2.2862795488440463E-027
  -1.4399999999999996E-002     9.3272950654911062E-028
  -1.3299999999999992E-002    -3.1046005738198229E-027
  -1.2199999999999989E-002    -9.2014134938742359E-027
  -1.1099999999999985E-002    -1.3933103276385472E-026
  -9.9999999999999950E-003    -1.1014230520622771E-026
  -8.8999999999999913E-003     6.0744978165631638E-027
  -7.7999999999999875E-003     3.8149994545069518E-026
  -6.6999999999999837E-003     7.2879710043104442E-026
  -5.5999999999999939E-003     8.1065194259488138E-026
  -4.4999999999999901E-003     2.4290018200413583E-026
  -3.3999999999999864E-003    -1.2042925555382193E-025
  -2.2999999999999826E-003    -3.2262117446851822E-025
  -1.1999999999999927E-003    -4.6651357174060195E-025
  -9.9999999999988987E-005    -3.6025606375485640E-025
   1.0000000000000148E-003     1.7824236523454176E-025
   2.1000000000000185E-003     1.1529727050486418E-024
   3.2000000000000084E-003     2.1981420162894438E-024
   4.3000000000000121E-003     2.5025247585670934E-024
   5.4000000000000159E-003     1.0316533918970636E-024
   6.5000000000000058E-003    -2.8383746698841587E-024
   7.6000000000000234E-003    -8.3906923106841914E-024
   8.7000000000000133E-003    -1.2811999280016212E-023
   9.8000000000000032E-003    -1.1394817531033181E-023
   1.0900000000000021E-002     5.4291925403762509E-025
   1.2000000000000011E-002     2.3914917886999270E-023
   1.3100000000000001E-002     5.1536579726525763E-023
   1.4200000000000018E-002     6.6046462865911988E-023
   1.5300000000000008E-002     4.3764890630780841E-023
   1.6400000000000026E-002    -3.3056640326160270E-023
   1.7500000000000016E-002    -1.5733923855861666E-022
   1.8600000000000005E-002    -2.7993904467428189E-022
   1.9700000000000023E-002    -3.0840489852224729E-022
   2.0800000000000013E-002    -1.3662750172686190E-022
   2.1900000000000003E-002     2.8965626893207729E-022
   2.3000000000000020E-002     8.8844269639627002E-022
   2.4100000000000010E-002     1.3829238988123550E-021
   2.5200000000000000E-002     1.3322917585883075E-021
   2.6300000000000018E-002     3.0408462414873724E-022
   2.7400000000000008E-002    -1.8168113204080651E-021
   2.8500000000000025E-002    -4.4865273356498051E-021
   2.9600000000000015E-002    -6.3371719332140331E-021
   3.0700000000000005E-002    -5.4412056407768272E-021
   3.1800000000000023E-002    -1.6324158365538099E-022
   3.2900000000000013E-002     9.5163630615863440E-021
   3.4000000000000002E-002     2.0724387299891724E-020
   3.5100000000000020E-002     2.7341640172674059E-020
   3.6200000000000010E-002     2.1498893343306921E-020
   3.7300000000000028E-002    -2.6737328289555590E-021
   3.8400000000000017E-002    -4.3796779293144030E-020
   3.9500000000000007E-002    -8.8743940453004233E-020
   4.0600000000000025E-002    -1.1227733008459895E-019
   4.1700000000000015E-002    -8.3980613053089587E-020
   4.2800000000000005E-002     1.6683904345644128E-020
   4.3900000000000022E-002     1.8081146020055517E-019
   4.5000000000000012E-002     3.5481704826633928E-019
   4.6100000000000002E-002     4.4166975285918924E-019
   4.7200000000000020E-002     3.2891309594279306E-019
   4.8300000000000010E-002    -5.5403209114212451E-020
   4.9400000000000027E-002    -6.7350880195361335E-019
   5.0500000000000017E-002    -1.3271947497517567E-018
   5.1600000000000007E-002    -1.6667568402672790E-018
   5.2700000000000025E-002    -1.2921908735533321E-018
   5.3800000000000014E-002     5.3232963801853862E-020
   5.4900000000000004E-002     2.2490088116199237E-018
   5.6000000000000022E-002     4.6289637107186213E-018
   5.7100000000000012E-002     6.0108710645626849E-018
   5.8200000000000002E-002     5.0254658429133980E-018
   5.9300000000000019E-002     7.4175435341164016E-019
   6.0400000000000009E-002    -6.5762434381604564E-018
   6.1500000000000027E-002    -1.4909401057561214E-017
   6.2600000000000017E-002    -2.0526260191300276E-017
   6.3700000000000007E-002    -1.8941025769227433E-017
   6.4800000000000024E-002    -6.7919834525845694E-018
   6.5900000000000014E-002     1.5825688079666333E-017
   6.7000000000000004E-002     4.3514916123114287E-017
   6.8100000000000022E-002     6.5402209534698958E-017
   6.9200000000000012E-002     6.7582803801154998E-017
   7.0300000000000029E-002     3.8313597709685508E-017
   7.1400000000000019E-002    -2.5200620182700168E-017
   7.2500000000000009E-002    -1.1091372534469364E-016
   7.3600000000000027E-002    -1.9017990290144920E-016
   7.4700000000000016E-002    -2.2292940300486912E-016
   7.5800000000000006E-002    -1.7061229743566842E-016
   7.6900000000000024E-002    -1.4518593595398282E-017
   7.8000000000000014E-002     2.2644024814742992E-016
   7.9100000000000004E-002     4.8672834247159107E-016
   8.0200000000000021E-002     6.6178106989813566E-016
   8.1300000000000011E-002     6.3594758270077679E-016
   8.2400000000000029E-002     3.2718709262386406E-016
   8.3500000000000019E-002    -2.6371210366670690E-016
   8.4600000000000009E-002    -1.0183045214813894E-015
   8.5700000000000026E-002    -1.7001409495412727E-015
   8.6800000000000016E-002    -2.0022498818302801E-015
   8.7900000000000006E-002    -1.6412389128887708E-015
   8.9000000000000024E-002    -4.7781390591677791E-016
   9.0100000000000013E-002     1.3737202221783762E-015
   9.1200000000000003E-002     3.4925822926971439E-015
   9.2300000000000021E-002     5.1941890705019856E-015
   9.3400000000000011E-002     5.6841857257806983E-015
   9.4500000000000028E-002     4.3042597561074995E-015
   9.5600000000000018E-002     8.1220318637331472E-016
   9.6700000000000008E-002    -4.3891795421948691E-015
   9.7800000000000026E-002    -1.0165822442503430E-014
   9.8900000000000016E-002    -1.4778223654818268E-014
  0.10000000000000001         -1.6240167913170658E-014
  0.10110000000000002         -1.2866154342577814E-014
  0.10220000000000001         -3.8978695945602902E-015
  0.10330000000000003          9.9484789913675745E-015
  0.10440000000000002          2.6189569515103214E-014
  0.10550000000000001          4.0691219738345783E-014
  0.10660000000000003          4.8286500645931566E-014
  0.10770000000000002          4.3893135939765169E-014
  0.10880000000000001          2.4006860253090810E-014
  0.10990000000000003         -1.1685088236398472E-014
  0.11100000000000002         -5.8950585297862600E-014
  0.11210000000000001         -1.0838630474052269E-013
  0.11320000000000002         -1.4599384134224482E-013
  0.11430000000000001         -1.5531762706412638E-013
  0.11540000000000003         -1.2122662433642265E-013
  0.11650000000000002         -3.4978286195941549E-014
  0.11760000000000001          1.0035446758733038E-013
  0.11870000000000003          2.6556105947400261E-013
  0.11980000000000002          4.2389495331198296E-013
  0.12090000000000001          5.2435667619630895E-013
  0.12200000000000003          5.1076331039826304E-013
  0.12310000000000001          3.3640837944223969E-013
  0.12420000000000003         -1.7700769289557672E-014
  0.12530000000000002         -5.2501424075218551E-013
  0.12640000000000001         -1.1015795553667496E-012
  0.12750000000000003         -1.6062359320079781E-012
  0.12860000000000002         -1.8578520421040741E-012
  0.12970000000000001         -1.6715793201832015E-012
  0.13080000000000003         -9.1131463995128546E-013
  0.13190000000000002          4.5024786365531762E-013
  0.13300000000000001          2.2781702341885758E-012
  0.13410000000000000          4.2463021465320907E-012
  0.13520000000000004          5.8507316697539473E-012
  0.13630000000000003          6.4787212514982147E-012
  0.13740000000000002          5.5359002778184932E-012
  0.13850000000000001          2.6195712710384590E-012
  0.13960000000000000         -2.2912426896939703E-012
  0.14070000000000005         -8.6741901560025148E-012
  0.14180000000000004         -1.5385286562804361E-011
  0.14290000000000003         -2.0717532607136043E-011
  0.14400000000000002         -2.2634216319403613E-011
  0.14510000000000001         -1.9182950785772082E-011
  0.14620000000000000         -9.0513563324327112E-012
  0.14730000000000004          7.8265473957768319E-012
  0.14840000000000003          2.9751860668487145E-011
  0.14950000000000002          5.2998714459934068E-011
  0.15060000000000001          7.1975056986974286E-011
  0.15170000000000000          7.9927931768636520E-011
  0.15280000000000005          7.0222858809477357E-011
  0.15390000000000004          3.8093622555462248E-011
  0.15500000000000003         -1.7397886319630434E-011
  0.15610000000000002         -9.1602219779245542E-011
  0.15720000000000001         -1.7323842017169437E-010
  0.15830000000000000         -2.4459818486556743E-010
  0.15940000000000004         -2.8342533544940679E-010
  0.16050000000000003         -2.6665002429485036E-010
  0.16160000000000002         -1.7577438738127834E-010
  0.16270000000000001         -3.2305815156017906E-012
  0.16380000000000000          2.4145757175856685E-010
  0.16490000000000005          5.2727061384090089E-010
  0.16600000000000004          8.0077501205059811E-010
  0.16710000000000003          9.9023651851666777E-010
  0.16820000000000002          1.0156971304931826E-009
  0.16930000000000001          8.0488665645573199E-010
  0.17040000000000000          3.1341914105480979E-010
  0.17150000000000004         -4.5385475764390506E-010
  0.17260000000000003         -1.4248957862881190E-009
  0.17370000000000002         -2.4513721435696061E-009
  0.17480000000000001         -3.3138107677851624E-009
  0.17590000000000000         -3.7451191395652594E-009
  0.17700000000000005         -3.4739035574859900E-009
  0.17810000000000004         -2.2850420587668167E-009
  0.17920000000000003         -9.0168574721740896E-011
  0.18030000000000002          3.0041314352801875E-009
  0.18140000000000001          6.6464728070732452E-009
  0.18250000000000000          1.0226905555715350E-008
  0.18360000000000004          1.2915355317460955E-008
  0.18470000000000003          1.3762720832797591E-008
  0.18580000000000002          1.1865193612813145E-008
  0.18690000000000001          6.5789461385320763E-009
  0.18800000000000000         -2.2429652772018157E-009
  0.18910000000000005         -1.4034230501412860E-008
  0.19020000000000004         -2.7372791339165048E-008
  0.19130000000000003         -3.9968618083422809E-008
  0.19240000000000002         -4.8830507963874406E-008
  0.19350000000000001         -5.0640324908490395E-008
  0.19460000000000005         -4.2330027547423445E-008
  0.19570000000000004         -2.1813535639264699E-008
  0.19680000000000003          1.1222637501523944E-008
  0.19790000000000002          5.4610894296419614E-008
  0.19900000000000001          1.0324859194365343E-007
  0.20010000000000000          1.4907848513387164E-007
  0.20120000000000005          1.8165764716122143E-007
  0.20230000000000004          1.8940416043500758E-007
  0.20340000000000003          1.6150721436288988E-007
  0.20450000000000002          9.0351423914330812E-008
  0.20560000000000000         -2.5843695115005655E-008
  0.20670000000000005         -1.8060906902062293E-007
  0.20780000000000004         -3.5757840391233382E-007
  0.20890000000000003         -5.3018161767277745E-007
