 -0.12000000000000000          0.0000000000000000
 -0.11889999999999999          0.0000000000000000
 -0.11780000000000000          0.0000000000000000
 -0.11670000000000000         -4.6004883968423380E-012
 -0.11559999999999999         -3.0603279517090669E-011
 -0.11449999999999999         -9.8405427218402568E-011
 -0.11340000000000000         -1.9403087063260447E-010
 -0.11230000000000000         -2.2752441699007783E-010
 -0.11119999999999999         -4.9375015992650636E-011
 -0.11009999999999999          4.3451347501086151E-010
 -0.10900000000000000          1.0997846861919054E-009
 -0.10790000000000000          1.5386696388419369E-009
 -0.10679999999999999          1.2320069065561268E-009
 -0.10569999999999999         -6.5469902989872812E-011
 -0.10460000000000000         -1.9828294749225078E-009
 -0.10349999999999999         -3.5901649616032230E-009
 -0.10239999999999999         -4.0075298177462701E-009
 -0.10130000000000000         -3.2488292315336213E-009
 -0.10020000000000000         -2.5657679088872592E-009
  -9.9099999999999994E-002    -3.6172393777907138E-009
  -9.7999999999999990E-002    -6.5320829925874660E-009
  -9.6899999999999986E-002    -8.0516173860140405E-009
  -9.5799999999999996E-002    -1.6434558109751307E-009
  -9.4699999999999993E-002     1.9059383500207768E-008
  -9.3599999999999989E-002     5.4126731909709861E-008
  -9.2499999999999999E-002     9.1719274920287192E-008
  -9.1399999999999995E-002     1.0767116432129099E-007
  -9.0299999999999991E-002     7.3661518014451348E-008
  -8.9200000000000002E-002    -2.6962420471588288E-008
  -8.8099999999999984E-002    -1.8228809598749983E-007
  -8.6999999999999994E-002    -3.4406475288711190E-007
  -8.5899999999999990E-002    -4.3766579906194064E-007
  -8.4799999999999986E-002    -3.9075481211345060E-007
  -8.3699999999999997E-002    -1.7074583281889095E-007
  -8.2599999999999993E-002     1.8717416522604974E-007
  -8.1499999999999989E-002     5.7954191188484440E-007
  -8.0399999999999999E-002     8.6877259607292208E-007
  -7.9299999999999995E-002     9.4111018311592405E-007
  -7.8199999999999992E-002     7.6150202372871427E-007
  -7.7100000000000002E-002     3.9462960343769053E-007
  -7.5999999999999984E-002    -2.5245593984113523E-008
  -7.4899999999999994E-002    -3.6628753011034983E-007
  -7.3799999999999991E-002    -5.7675313606709959E-007
  -7.2699999999999987E-002    -7.2128045715067215E-007
  -7.1599999999999997E-002    -9.4410236603652078E-007
  -7.0499999999999993E-002    -1.3657260717639516E-006
  -6.9399999999999989E-002    -1.9628993980143128E-006
  -6.8300000000000000E-002    -2.5051025781237424E-006
  -6.7199999999999996E-002    -2.6056772895476085E-006
  -6.6099999999999992E-002    -1.8919987602278703E-006
  -6.5000000000000002E-002    -2.2945791307170260E-007
  -6.3899999999999985E-002     2.1146373973050077E-006
  -6.2799999999999995E-002     4.4760366002667474E-006
  -6.1699999999999991E-002     6.0083853998126358E-006
  -6.0599999999999994E-002     6.0431357324640659E-006
  -5.9499999999999990E-002     4.4369834325492010E-006
  -5.8399999999999994E-002     1.7232632109064104E-006
  -5.7299999999999990E-002    -1.0485655435586213E-006
  -5.6199999999999986E-002    -2.7591009979785548E-006
  -5.5099999999999996E-002    -2.7711530570929311E-006
  -5.3999999999999992E-002    -1.3231169825849862E-006
  -5.2899999999999989E-002     4.6185028329260366E-007
  -5.1799999999999985E-002     1.0140577180818709E-006
  -5.0699999999999995E-002    -9.5222078046779444E-007
  -4.9599999999999991E-002    -5.7398239187941292E-006
  -4.8499999999999988E-002    -1.2350223658848497E-005
  -4.7399999999999998E-002    -1.8744465002976779E-005
  -4.6299999999999994E-002    -2.2613694466287155E-005
  -4.5199999999999990E-002    -2.2326123368683758E-005
  -4.4099999999999986E-002    -1.7595127750582821E-005
  -4.2999999999999997E-002    -9.5096627639684792E-006
  -4.1899999999999993E-002     1.4413787862704367E-007
  -4.0799999999999989E-002     9.9912187998831659E-006
  -3.9699999999999985E-002     2.0087690269082784E-005
  -3.8599999999999995E-002     3.2339001876875069E-005
  -3.7499999999999992E-002     5.0068984205560741E-005
  -3.6399999999999988E-002     7.6906928008122562E-005
  -3.5299999999999984E-002     1.1552223530963177E-004
  -3.4199999999999994E-002     1.6685740065690971E-004
  -3.3099999999999991E-002     2.3031034014881922E-004
  -3.1999999999999987E-002     3.0487537863326116E-004
  -3.0899999999999997E-002     3.9077721588344326E-004
  -2.9799999999999993E-002     4.9086377862684433E-004
  -2.8699999999999989E-002     6.1111149691731406E-004
  -2.7599999999999986E-002     7.6001644101828707E-004
  -2.6499999999999996E-002     9.4720151615489807E-004
  -2.5399999999999992E-002     1.1819872461406949E-003
  -2.4299999999999988E-002     1.4727324819760700E-003
  -2.3199999999999985E-002     1.8274059464718233E-003
  -2.2099999999999995E-002     2.2552599408899084E-003
  -2.0999999999999991E-002     2.7689365479622264E-003
  -1.9899999999999987E-002     3.3861237159034793E-003
  -1.8799999999999983E-002     4.1301137088033870E-003
  -1.7699999999999994E-002     5.0291906658105727E-003
  -1.6599999999999990E-002     6.1153972983273306E-003
  -1.5499999999999986E-002     7.4235771466076286E-003
  -1.4399999999999996E-002     8.9914675632087396E-003
  -1.3299999999999992E-002     1.0861081039753003E-002
  -1.2199999999999989E-002     1.3080934814185851E-002
  -1.1099999999999985E-002     1.5708233358452707E-002
  -9.9999999999999950E-003     1.8810132376219396E-002
  -8.8999999999999913E-003     2.2463723205615967E-002
  -7.7999999999999875E-003     2.6755112643515922E-002
  -6.6999999999999837E-003     3.1778534591851516E-002
  -5.5999999999999939E-003     3.7636486733866312E-002
  -4.4999999999999901E-003     4.4441364405790516E-002
  -3.3999999999999864E-003     5.2318206603868496E-002
  -2.2999999999999826E-003     6.1407423175549737E-002
  -1.1999999999999927E-003     7.1866162165498862E-002
  -9.9999999999988987E-005     8.3867470105562378E-002
   1.0000000000000148E-003     9.7597395105589055E-002
   2.1000000000000185E-003    0.11325119129526896
   3.2000000000000084E-003    0.13103026077804231
   4.3000000000000121E-003    0.15114110763304528
   5.4000000000000159E-003    0.17379648679572926
   6.5000000000000058E-003    0.19921761114698155
   7.6000000000000234E-003    0.22763539557690998
   8.7000000000000133E-003    0.25928875730506851
   9.8000000000000032E-003    0.29441900912356045
   1.0900000000000021E-002    0.33326093411333868
   1.2000000000000011E-002    0.37603247598383155
   1.3100000000000001E-002    0.42292543976659119
   1.4200000000000018E-002    0.47409890470531285
   1.5300000000000008E-002    0.52967550295673782
   1.6400000000000026E-002    0.58973905380094882
   1.7500000000000016E-002    0.65433108966731646
   1.8600000000000005E-002    0.72344406729325683
   1.9700000000000023E-002    0.79701043620668388
   2.0800000000000013E-002    0.87488858841465333
   2.1900000000000003E-002    0.95684814123572814
   2.3000000000000020E-002     1.0425573125416516
   2.4100000000000010E-002     1.1315741920830233
   2.5200000000000000E-002     1.2233419865855015
   2.6300000000000018E-002     1.3171867038461142
   2.7400000000000008E-002     1.4123150692504822
   2.8500000000000025E-002     1.5078110812960128
   2.9600000000000015E-002     1.6026311896597665
   3.0700000000000005E-002     1.6955997936306333
   3.1800000000000023E-002     1.7854077049348960
   3.2900000000000013E-002     1.8706158874592338
   3.4000000000000002E-002     1.9496653378796887
   3.5100000000000020E-002     2.0208921623894747
   3.6200000000000010E-002     2.0825456954287134
   3.7300000000000028E-002     2.1328075488854554
   3.8400000000000017E-002     2.1698107591544722
   3.9500000000000007E-002     2.1916600181833417
   4.0600000000000025E-002     2.1964553081406430
   4.1700000000000015E-002     2.1823212966905996
   4.2800000000000005E-002     2.1474434440935926
   4.3900000000000022E-002     2.0901095541143149
   4.5000000000000012E-002     2.0087535753090449
   4.6100000000000002E-002     1.9019978436047784
   4.7200000000000020E-002     1.7686910274990728
   4.8300000000000010E-002     1.6079412953072851
   4.9400000000000027E-002     1.4191465137762354
   5.0500000000000017E-002     1.2020243716479535
   5.1600000000000007E-002    0.95664452944454825
   5.2700000000000025E-002    0.68346250645128837
   5.3800000000000014E-002    0.38335216131114880
   5.4900000000000004E-002     5.7631748750788497E-002
   5.6000000000000022E-002   -0.29192133202729653
   5.7100000000000012E-002   -0.66306977976441073
   5.8200000000000002E-002    -1.0531290100447217
   5.9300000000000019E-002    -1.4589896990189606
   6.0400000000000009E-002    -1.8771457886681204
   6.1500000000000027E-002    -2.3037247856091589
   6.2600000000000017E-002    -2.7345201169924431
   6.3700000000000007E-002    -3.1650283635100949
   6.4800000000000024E-002    -3.5904957639479598
   6.5900000000000014E-002    -4.0059775845201528
   6.7000000000000004E-002    -4.4064110516652146
   6.8100000000000022E-002    -4.7866988911785961
   6.9200000000000012E-002    -5.1417978222993765
   7.0300000000000029E-002    -5.4668058723747341
   7.1400000000000019E-002    -5.7570442525989778
   7.2500000000000009E-002    -6.0081327393363635
   7.3600000000000027E-002    -6.2160603616743479
   7.4700000000000016E-002    -6.3772542388009681
   7.5800000000000006E-002    -6.4886481393116728
   7.6900000000000024E-002    -6.5477494671493046
   7.8000000000000014E-002    -6.5527004774906477
   7.9100000000000004E-002    -6.5023281789911520
   8.0200000000000021E-002    -6.3961783669004220
   8.1300000000000011E-002    -6.2345321115751116
   8.2400000000000029E-002    -6.0184063577941806
   8.3500000000000019E-002    -5.7495423888138557
   8.4600000000000009E-002    -5.4303857443804677
   8.5700000000000026E-002    -5.0640589375870286
   8.6800000000000016E-002    -4.6543253155223425
   8.7900000000000006E-002    -4.2055404326379158
   8.9000000000000024E-002    -3.7225876419774653
   9.0100000000000013E-002    -3.2107973418323286
   9.1200000000000003E-002    -2.6758532284478838
   9.2300000000000021E-002    -2.1236920757848976
   9.3400000000000011E-002    -1.5604043476910670
   9.4500000000000028E-002   -0.99214085944492636
   9.5600000000000018E-002   -0.42502671661328317
   9.6700000000000008E-002    0.13492014796285523
   9.7800000000000026E-002    0.68187033935203023
   9.8900000000000016E-002     1.2102675097578151
  0.10000000000000001          1.7149154756818994
  0.10110000000000002          2.1910629835121318
  0.10220000000000001          2.6344783652616650
  0.10330000000000003          3.0415066762625540
  0.10440000000000002          3.4091053974495980
  0.10550000000000001          3.7348598527241346
  0.10660000000000003          4.0169837807327724
  0.10770000000000002          4.2543120339477367
  0.10880000000000001          4.4462905490396771
  0.10990000000000003          4.5929646057874329
  0.11100000000000002          4.6949621616574815
  0.11210000000000001          4.7534669262501108
  0.11320000000000002          4.7701769310638369
  0.11430000000000001          4.7472481049343660
  0.11540000000000003          4.6872268705959561
  0.11650000000000002          4.5929787480870639
  0.11760000000000001          4.4676199073769398
  0.11870000000000003          4.3144556400741543
  0.11980000000000002          4.1369254117776357
  0.12090000000000001          3.9385507776185347
  0.12200000000000003          3.7228817446907105
  0.12310000000000001          3.4934394651131853
  0.12420000000000003          3.2536571585544127
  0.12530000000000002          3.0068246763004178
  0.12640000000000001          2.7560431451634519
  0.12750000000000003          2.5041939693530746
  0.12860000000000002          2.2539220992130544
  0.12970000000000001          2.0076290674390176
  0.13080000000000003          1.7674690924757179
  0.13190000000000002          1.5353427048373829
  0.13300000000000001          1.3128862983057970
  0.13410000000000000          1.1014607250246387
  0.13520000000000004         0.90214509106988661
  0.13630000000000003         0.71574164458577927
  0.13740000000000002         0.54279413485202954
  0.13850000000000001         0.38361697993218380
  0.13960000000000000         0.23832853984441882
  0.14070000000000005         0.10688079776980253
  0.14180000000000004         -1.0919679054850299E-002
  0.14290000000000003        -0.11539977723102904
  0.14400000000000002        -0.20701245566801696
  0.14510000000000001        -0.28632732881402800
  0.14620000000000000        -0.35401396300031690
  0.14730000000000004        -0.41081680175302837
  0.14840000000000003        -0.45752542268369950
  0.14950000000000002        -0.49494675014003209
  0.15060000000000001        -0.52388539564713144
  0.15170000000000000        -0.54513471060503516
  0.15280000000000005        -0.55947626795737548
  0.15390000000000004        -0.56768185175413133
  0.15500000000000003        -0.57051149399451617
  0.15610000000000002        -0.56870392068266373
  0.15720000000000001        -0.56296047996575460
  0.15830000000000000        -0.55392777659492909
  0.15940000000000004        -0.54218567063715628
  0.16050000000000003        -0.52824525835566105
  0.16160000000000002        -0.51255697329366490
  0.16270000000000001        -0.49552431510107453
  0.16380000000000000        -0.47751629874264606
  0.16490000000000005        -0.45887274667762679
  0.16600000000000004        -0.43990048864645714
  0.16710000000000003        -0.42086337492276421
  0.16820000000000002        -0.40197229473259755
  0.16930000000000001        -0.38338148252267645
  0.17040000000000000        -0.36519429455958352
  0.17150000000000004        -0.34747697208595119
  0.17260000000000003        -0.33027506953700730
  0.17370000000000002        -0.31362614555015211
  0.17480000000000001        -0.29756447319604601
  0.17590000000000000        -0.28211773772804322
  0.17700000000000005        -0.26729973923885658
  0.17810000000000004        -0.25310491880857650
  0.17920000000000003        -0.23950920156777500
  0.18030000000000002        -0.22647796281383309
  0.18140000000000001        -0.21397785932250180
  0.18250000000000000        -0.20198698360521697
  0.18360000000000004        -0.19049849422446119
  0.18470000000000003        -0.17951617637949510
  0.18580000000000002        -0.16904455249303085
  0.18690000000000001        -0.15907900043515252
  0.18800000000000000        -0.14960134897810182
  0.18910000000000005        -0.14058357836402346
  0.19020000000000004        -0.13199801155438193
  0.19130000000000003        -0.12382891734538734
  0.19240000000000002        -0.11607953992543800
  0.19350000000000001        -0.10877069139014703
  0.19460000000000005        -0.10193112484755668
  0.19570000000000004         -9.5583894919914175E-002
  0.19680000000000003         -8.9734827788939778E-002
  0.19790000000000002         -8.4368150601610209E-002
  0.19900000000000001         -7.9450862565679792E-002
  0.20010000000000000         -7.4943332532476079E-002
  0.20120000000000005         -7.0810900121001899E-002
  0.20230000000000004         -6.7031194116087559E-002
  0.20340000000000003         -6.3594352265146772E-002
  0.20450000000000002         -6.0496966732133971E-002
  0.20560000000000000         -5.7733515336838050E-002
  0.20670000000000005         -5.5289858339589708E-002
  0.20780000000000004         -5.3141828277730806E-002
  0.20890000000000003         -5.1258987300341910E-002
