 -0.12000000000000000          0.0000000000000000
 -0.11889999999999999          0.0000000000000000
 -0.11780000000000000          0.0000000000000000
 -0.11670000000000000          0.0000000000000000
 -0.11559999999999999          0.0000000000000000
 -0.11449999999999999          0.0000000000000000
 -0.11340000000000000          0.0000000000000000
 -0.11230000000000000          0.0000000000000000
 -0.11119999999999999          0.0000000000000000
 -0.11009999999999999          0.0000000000000000
 -0.10900000000000000          0.0000000000000000
 -0.10790000000000000          2.7928055847164710E-168
 -0.10679999999999999         -4.6754830163093724E-142
 -0.10569999999999999          4.0827421405373076E-116
 -0.10460000000000000         -2.5677086158566265E-090
 -0.10349999999999999          3.6681955283568879E-065
 -0.10239999999999999          1.2354625169850897E-040
 -0.10130000000000000          2.1405279625067243E-039
 -0.10020000000000000          1.7030642690909976E-038
  -9.9099999999999994E-002     7.7734388046120917E-038
  -9.7999999999999990E-002     1.8795802600537344E-037
  -9.6899999999999986E-002    -4.1658531668422613E-038
  -9.5799999999999996E-002    -2.2405435195644850E-036
  -9.4699999999999993E-002    -8.9652478403975972E-036
  -9.3599999999999989E-002    -1.5685838589019828E-035
  -9.2499999999999999E-002     1.2901738634810356E-035
  -9.1399999999999995E-002     1.6197567043966331E-034
  -9.0299999999999991E-002     4.7287631929238816E-034
  -8.9200000000000002E-002     5.4920739489665992E-034
  -8.8099999999999984E-002    -1.0601489528293475E-033
  -8.6999999999999994E-002    -6.5101324330175637E-033
  -8.5899999999999990E-002    -1.4517636362582403E-032
  -8.4799999999999986E-002    -1.0596362052381713E-032
  -8.3699999999999997E-002     4.0245108435687430E-032
  -8.2599999999999993E-002     1.6924515539951887E-031
  -8.1499999999999989E-002     3.0738024070621908E-031
  -8.0399999999999999E-002     1.3196178246950471E-031
  -7.9299999999999995E-002    -9.4308579157453615E-031
  -7.8199999999999992E-002    -3.1878653729241462E-030
  -7.7100000000000002E-002    -5.0270850444791104E-030
  -7.5999999999999984E-002    -1.2900013404454054E-030
  -7.4899999999999994E-002     1.5676041144597884E-029
  -7.3799999999999991E-002     4.6995270020651990E-029
  -7.2699999999999987E-002     6.8543702030654912E-029
  -7.1599999999999997E-002     1.4834147937848937E-029
  -7.0499999999999993E-002    -1.9884527072188680E-028
  -6.9399999999999989E-002    -5.6954959324083201E-028
  -6.8300000000000000E-002    -8.1519027823574944E-028
  -6.7199999999999996E-002    -2.4147563669037682E-028
  -6.6099999999999992E-002     1.9933943699700130E-027
  -6.5000000000000002E-002     5.8373634861058999E-027
  -6.3899999999999985E-002     8.6226443444902508E-027
  -6.2799999999999995E-002     3.9767466715141625E-027
  -6.1699999999999991E-002    -1.5830197100216010E-026
  -6.0599999999999994E-002    -5.1216889195586853E-026
  -5.9499999999999990E-002    -8.1284867399806616E-026
  -5.8399999999999994E-002    -5.4566098209351745E-026
  -5.7299999999999990E-002     9.4768274716630909E-026
  -5.6199999999999986E-002     3.8408934116021157E-025
  -5.5099999999999996E-002     6.7814554537696394E-025
  -5.3999999999999992E-002     6.0998654851519506E-025
  -5.2899999999999989E-002    -3.3444200788730205E-025
  -5.1799999999999985E-002    -2.4186436241170900E-024
  -5.0699999999999995E-002    -4.9488163235187963E-024
  -4.9599999999999991E-002    -5.6336285371667277E-024
  -4.8499999999999988E-002    -8.5163527337071390E-025
  -4.7399999999999998E-002     1.2175446703242945E-023
  -4.6299999999999994E-002     3.1052807684117375E-023
  -4.5199999999999990E-002     4.3511013535718022E-023
  -4.4099999999999986E-002     2.6923944352023578E-023
  -4.2999999999999997E-002    -4.1790165617331922E-023
  -4.1899999999999993E-002    -1.6260286058971160E-022
  -4.0799999999999989E-002    -2.8178362820432448E-022
  -3.9699999999999985E-002    -2.7642518617269520E-022
  -3.8599999999999995E-002     1.1485784934811538E-023
  -3.7499999999999992E-002     6.6393237202877689E-022
  -3.6399999999999988E-002     1.5130133634713444E-021
  -3.5299999999999984E-002     1.9957088700346914E-021
  -3.4199999999999994E-002     1.2078092118338253E-021
  -3.3099999999999991E-002    -1.6623784268242656E-021
  -3.1999999999999987E-002    -6.4844178096962271E-021
  -3.0899999999999997E-002    -1.1219925777513097E-020
  -2.9799999999999993E-002    -1.1571801757270066E-020
  -2.8699999999999989E-002    -2.2273623681865796E-021
  -2.7599999999999986E-002     1.9668401968137100E-020
  -2.6499999999999996E-002     4.9415689393933826E-020
  -2.5399999999999992E-002     7.0641915119488689E-020
  -2.4299999999999988E-002     5.6597085719095046E-020
  -2.3199999999999985E-002    -1.8711271809367203E-020
  -2.2099999999999995E-002    -1.5873321491383736E-019
  -2.0999999999999991E-002    -3.1887908178983271E-019
  -1.9899999999999987E-002    -3.9384916255129944E-019
  -1.8799999999999983E-002    -2.3996742138084216E-019
  -1.7699999999999994E-002     2.5161327504190907E-019
  -1.6599999999999990E-002     1.0391371753602904E-018
  -1.5499999999999986E-002     1.8197973687499283E-018
  -1.4399999999999996E-002     2.0114304622730643E-018
  -1.3299999999999992E-002     9.2212510152666256E-019
  -1.2199999999999989E-002    -1.8495026783571566E-018
  -1.1099999999999985E-002    -5.8693448211205354E-018
  -9.9999999999999950E-003    -9.4394824157917113E-018
  -8.8999999999999913E-003    -9.6844349212341034E-018
  -7.7999999999999875E-003    -3.5215689959906618E-018
  -6.6999999999999837E-003     1.0419188878257007E-017
  -5.5999999999999939E-003     2.9450623204737988E-017
  -4.4999999999999901E-003     4.5280851478423297E-017
  -3.3999999999999864E-003     4.4911482384091148E-017
  -2.2999999999999826E-003     1.5299774868597834E-017
  -1.1999999999999927E-003    -4.8325724719259281E-017
  -9.9999999999988987E-005    -1.3301817524357071E-016
   1.0000000000000148E-003    -2.0262607410535161E-016
   2.1000000000000185E-003    -2.0258898928623093E-016
   3.2000000000000084E-003    -7.9530481844541718E-017
   4.3000000000000121E-003     1.8565590708480253E-016
   5.4000000000000159E-003     5.4155355210242924E-016
   6.5000000000000058E-003     8.4608579021853072E-016
   7.6000000000000234E-003     8.8532837664308103E-016
   8.7000000000000133E-003     4.4667618223750810E-016
   9.8000000000000032E-003    -5.5932901305912996E-016
   1.0900000000000021E-002    -1.9654765910048364E-015
   1.2000000000000011E-002    -3.2696967794389701E-015
   1.3100000000000001E-002    -3.6905512494162829E-015
   1.4200000000000018E-002    -2.4099035313568168E-015
   1.5300000000000008E-002     1.0124618602044749E-015
   1.6400000000000026E-002     6.1684400909683556E-015
   1.7500000000000016E-002     1.1489308544256517E-014
   1.8600000000000005E-002     1.4346713517966596E-014
   1.9700000000000023E-002     1.1754587117661136E-014
   2.0800000000000013E-002     1.6592266588866671E-015
   2.1900000000000003E-002    -1.5497347050136100E-014
   2.3000000000000020E-002    -3.5561185337022220E-014
   2.4100000000000010E-002    -5.0577623597476695E-014
   2.5200000000000000E-002    -5.0473446501450772E-014
   2.6300000000000018E-002    -2.6640517755704247E-014
   2.7400000000000008E-002     2.3275437290715875E-014
   2.8500000000000025E-002     9.0978654240965601E-014
   2.9600000000000015E-002     1.5571201850343170E-013
   3.0700000000000005E-002     1.8710159886372871E-013
   3.1800000000000023E-002     1.5362963331568432E-013
   3.2900000000000013E-002     3.5696912411094511E-014
   3.4000000000000002E-002    -1.6019955571514946E-013
   3.5100000000000020E-002    -3.9163886919089210E-013
   3.6200000000000010E-002    -5.8079637796189521E-013
   3.7300000000000028E-002    -6.2959525808059457E-013
   3.8400000000000017E-002    -4.4965623143033625E-013
   3.9500000000000007E-002    -1.4468986581581707E-015
   4.0600000000000025E-002     6.6872017405137904E-013
   4.1700000000000015E-002     1.4087265689104054E-012
   4.2800000000000005E-002     1.9718596729016119E-012
   4.3900000000000022E-002     2.0671743802596175E-012
   4.5000000000000012E-002     1.4459098424819549E-012
   4.6100000000000002E-002     7.2295120915967908E-015
   4.7200000000000020E-002    -2.1057936836262302E-012
   4.8300000000000010E-002    -4.4556588320661360E-012
   4.9400000000000027E-002    -6.3383227846390981E-012
   5.0500000000000017E-002    -6.9085588996474332E-012
   5.1600000000000007E-002    -5.3980817726161089E-012
   5.2700000000000025E-002    -1.3922756691553313E-012
   5.3800000000000014E-002     4.8971165097406188E-012
   5.4900000000000004E-002     1.2445656652317962E-011
   5.6000000000000022E-002     1.9401961811769592E-011
   5.7100000000000012E-002     2.3313026333556243E-011
   5.8200000000000002E-002     2.1614703327512684E-011
   5.9300000000000019E-002     1.2350022485783912E-011
   6.0400000000000009E-002    -4.9978188805216793E-012
   6.1500000000000027E-002    -2.8745841202272308E-011
   6.2600000000000017E-002    -5.4567887955887247E-011
   6.3700000000000007E-002    -7.5622652708088614E-011
   6.4800000000000024E-002    -8.3456852105120252E-011
   6.5900000000000014E-002    -6.9757879199855299E-011
   6.7000000000000004E-002    -2.8824065525467726E-011
   6.8100000000000022E-002     3.9638682955354730E-011
   6.9200000000000012E-002     1.2804739632663792E-010
   7.0300000000000029E-002     2.1964419257541035E-010
   7.1400000000000019E-002     2.8924754572063766E-010
   7.2500000000000009E-002     3.0672678275289550E-010
   7.3600000000000027E-002     2.4339145427186490E-010
   7.4700000000000016E-002     8.0746165180830854E-011
   7.5800000000000006E-002    -1.7983466479719396E-010
   7.6900000000000024E-002    -5.0881937611147992E-010
   7.8000000000000014E-002    -8.4449907965954980E-010
   7.9100000000000004E-002    -1.0961263132991606E-009
   8.0200000000000021E-002    -1.1563302248774349E-009
   8.1300000000000011E-002    -9.2327432929078601E-010
   8.2400000000000029E-002    -3.3059827599528128E-010
   8.3500000000000019E-002     6.1966397164919963E-010
   8.4600000000000009E-002     1.8286849333570081E-009
   8.5700000000000026E-002     3.0862296896497830E-009
   8.6800000000000016E-002     4.0791543315313077E-009
   8.7900000000000006E-002     4.4300491418646437E-009
   8.9000000000000024E-002     3.7681216841224445E-009
   9.0100000000000013E-002     1.8270999018256079E-009
   9.1200000000000003E-002    -1.4438177022729928E-009
   9.2300000000000021E-002    -5.7785101180048981E-009
   9.3400000000000011E-002    -1.0530776101086397E-008
   9.4500000000000028E-002    -1.4679862057555120E-008
   9.5600000000000018E-002    -1.6929962894278974E-008
   9.6700000000000008E-002    -1.5915996411673230E-008
   9.7800000000000026E-002    -1.0507319339616135E-008
   9.8900000000000016E-002    -1.7485128872806338E-010
  0.10000000000000001          1.4640640118590634E-008
  0.10110000000000002          3.2244773956900624E-008
  0.10220000000000001          4.9588335422438099E-008
  0.10330000000000003          6.2441205281007639E-008
  0.10440000000000002          6.5905832853648414E-008
  0.10550000000000001          5.5281898830857575E-008
  0.10660000000000003          2.7219548989232491E-008
  0.10770000000000002         -1.8988480370986761E-008
  0.10880000000000001         -8.0210908021795005E-008
  0.10990000000000003         -1.4867783681613926E-007
  0.11100000000000002         -2.1189907280613741E-007
  0.11210000000000001         -2.5358488848221392E-007
  0.11320000000000002         -2.5574060248193930E-007
  0.11430000000000001         -2.0191772835605145E-007
  0.11540000000000003         -8.1353525667421794E-008
  0.11650000000000002          1.0655127257400618E-007
  0.11760000000000001          3.4823208452722722E-007
  0.11870000000000003          6.1344138815906815E-007
  0.11980000000000002          8.5526235982566858E-007
  0.12090000000000001          1.0135572145343657E-006
  0.12200000000000003          1.0223712348575349E-006
  0.12310000000000001          8.2120147877332418E-007
  0.12420000000000003          3.6924215440718951E-007
  0.12530000000000002         -3.3916717378052276E-007
  0.12640000000000001         -1.2604962897554262E-006
  0.12750000000000003         -2.2925898497058188E-006
  0.12860000000000002         -3.2732385607703252E-006
  0.12970000000000001         -3.9897590529799379E-006
  0.13080000000000003         -4.2015098335976325E-006
  0.13190000000000002         -3.6755001480429898E-006
  0.13300000000000001         -2.2328945978890653E-006
  0.13410000000000000          1.9847253283079978E-007
  0.13520000000000004          3.5331035522718106E-006
  0.13630000000000003          7.4880139450796543E-006
  0.13740000000000002          1.1564798634639050E-005
  0.13850000000000001          1.5063836156736609E-005
  0.13960000000000000          1.7138503033963294E-005
  0.14070000000000005          1.6892848663700333E-005
  0.14180000000000004          1.3519877245285254E-005
  0.14290000000000003          6.4699196842780059E-006
  0.14400000000000002         -4.3695593391537124E-006
  0.14510000000000001         -1.8508789443524399E-005
  0.14620000000000000         -3.4736530772803463E-005
  0.14730000000000004         -5.1080072859210763E-005
  0.14840000000000003         -6.4874605008822395E-005
  0.14950000000000002         -7.2963730301842179E-005
  0.15060000000000001         -7.2038868083247230E-005
  0.15170000000000000         -5.9106406087312817E-005
  0.15280000000000005         -3.2049364958132215E-005
  0.15390000000000004          9.7724750794773149E-006
  0.15500000000000003          6.4960397251134075E-005
  0.15610000000000002          1.2964334424560945E-004
  0.15720000000000001          1.9726919106467512E-004
  0.15830000000000000          2.5870960814545406E-004
  0.15940000000000004          3.0274679575772979E-004
  0.16050000000000003          3.1697615123175505E-004
  0.16160000000000002          2.8911310969481835E-004
  0.16270000000000001          2.0863897357918196E-004
  0.16380000000000000          6.8665331003432651E-005
  0.16490000000000005         -1.3215319485941127E-004
  0.16600000000000004         -3.8786490179899911E-004
  0.16710000000000003         -6.8384907116253652E-004
  0.16820000000000002         -9.9603961000515814E-004
  0.16930000000000001         -1.2909181349582059E-003
  0.17040000000000000         -1.5263810195210181E-003
  0.17150000000000004         -1.6534896748060580E-003
  0.17260000000000003         -1.6189999253676220E-003
  0.17370000000000002         -1.3684460092528369E-003
  0.17480000000000001         -8.4944118714509124E-004
  0.17590000000000000         -1.4764905878327950E-005
  0.17700000000000005          1.1752501649293376E-003
  0.17810000000000004          2.7515279586832501E-003
  0.17920000000000003          4.7367093241686220E-003
  0.18030000000000002          7.1476195665550147E-003
  0.18140000000000001          9.9999554747283691E-003
  0.18250000000000000          1.3315224908120699E-002
  0.18360000000000004          1.7129776818167047E-002
  0.18470000000000003          2.1505571008568151E-002
  0.18580000000000002          2.6542179037051174E-002
  0.18690000000000001          3.2389402874058296E-002
  0.18800000000000000          3.9259864025155487E-002
  0.18910000000000005          4.7440963120510146E-002
  0.19020000000000004          5.7305739333002606E-002
  0.19130000000000003          6.9322360820373227E-002
  0.19240000000000002          8.4062231973068766E-002
  0.19350000000000001         0.10220698237295597
  0.19460000000000005         0.12455487219271208
  0.19570000000000004         0.15202737364377311
  0.19680000000000003         0.18567683486555453
  0.19790000000000002         0.22669617497650071
  0.19900000000000001         0.27643148098059273
  0.20010000000000000         0.33639817596680155
  0.20120000000000005         0.40830111472310310
  0.20230000000000004         0.49405856197861592
  0.20340000000000003         0.59582955523697068
  0.20450000000000002         0.71604369055786132
  0.20560000000000000         0.85743193929907457
  0.20670000000000005          1.0230567464759310
  0.20780000000000004          1.2163394076807592
  0.20890000000000003          1.4410825889002579
