 -0.12000000000000000          0.0000000000000000
 -0.11889999999999999          0.0000000000000000
 -0.11780000000000000          0.0000000000000000
 -0.11670000000000000         -1.6642722693123588E-038
 -0.11559999999999999          8.0158927637916782E-014
 -0.11449999999999999          6.2621744474947598E-013
 -0.11340000000000000          2.3278414864049199E-012
 -0.11230000000000000          5.1293931450311806E-012
 -0.11119999999999999          5.9997434197382581E-012
 -0.11009999999999999         -2.2913036531665853E-012
 -0.10900000000000000         -2.6998860229502332E-011
 -0.10790000000000000         -6.3045554192410505E-011
 -0.10679999999999999         -7.7532986538299927E-011
 -0.10569999999999999         -7.1592113224435019E-012
 -0.10460000000000000          2.1101756183391939E-010
 -0.10349999999999999          5.6838472461478004E-010
 -0.10239999999999999          8.9957648015155060E-010
 -0.10130000000000000          8.4848926629173131E-010
 -0.10020000000000000         -3.5433780685183827E-011
  -9.9099999999999994E-002    -2.0321882480473021E-009
  -9.7999999999999990E-002    -4.8785551679574507E-009
  -9.6899999999999986E-002    -7.4700664281363878E-009
  -9.5799999999999996E-002    -7.8897281046657776E-009
  -9.4699999999999993E-002    -3.9602931952642201E-009
  -9.3599999999999989E-002     5.6895293726015643E-009
  -9.2499999999999999E-002     2.0354166746797124E-008
  -9.1399999999999995E-002     3.6342103322183830E-008
  -9.0299999999999991E-002     4.7052781963744026E-008
  -8.9200000000000002E-002     4.4426863935522662E-008
  -8.8099999999999984E-002     2.1662139497431802E-008
  -8.6999999999999994E-002    -2.3491242057445632E-008
  -8.5899999999999990E-002    -8.5959117247342789E-008
  -8.4799999999999986E-002    -1.5225176563922795E-007
  -8.3699999999999997E-002    -2.0184582162792115E-007
  -8.2599999999999993E-002    -2.1117454647021467E-007
  -8.1499999999999989E-002    -1.5963873139713359E-007
  -8.0399999999999999E-002    -3.6480323466066247E-008
  -7.9299999999999995E-002     1.5295844022848287E-007
  -7.8199999999999992E-002     3.8316849355071562E-007
  -7.7100000000000002E-002     6.0813157704205713E-007
  -7.5999999999999984E-002     7.6601589044597237E-007
  -7.4899999999999994E-002     7.8965255674096249E-007
  -7.3799999999999991E-002     6.2236369841715959E-007
  -7.2699999999999987E-002     2.3686574210854414E-007
  -7.1599999999999997E-002    -3.4719600527176724E-007
  -7.0499999999999993E-002    -1.0531517469638854E-006
  -6.9399999999999989E-002    -1.7506818421913625E-006
  -6.8300000000000000E-002    -2.2761490388481577E-006
  -6.7199999999999996E-002    -2.4683927223875176E-006
  -6.6099999999999992E-002    -2.2123836807041409E-006
  -6.5000000000000002E-002    -1.4782419625057331E-006
  -6.3899999999999985E-002    -3.4192481664708000E-007
  -6.2799999999999995E-002     1.0221490474625686E-006
  -6.1699999999999991E-002     2.3777113922537092E-006
  -6.0599999999999994E-002     3.4832477426110196E-006
  -5.9499999999999990E-002     4.1511483872401595E-006
  -5.8399999999999994E-002     4.2897114920983536E-006
  -5.7299999999999990E-002     3.9135995669764626E-006
  -5.6199999999999986E-002     3.1196614648144035E-006
  -5.5099999999999996E-002     2.0380534883438711E-006
  -5.3999999999999992E-002     7.7798227897365790E-007
  -5.2899999999999989E-002    -6.1085272342020910E-007
  -5.1799999999999985E-002    -2.1466671788956334E-006
  -5.0699999999999995E-002    -3.8914491486737500E-006
  -4.9599999999999991E-002    -5.9039857395330079E-006
  -4.8499999999999988E-002    -8.1867695897035293E-006
  -4.7399999999999998E-002    -1.0642816661092062E-005
  -4.6299999999999994E-002    -1.3051396267339847E-005
  -4.5199999999999990E-002    -1.5062663758618760E-005
  -4.4099999999999986E-002    -1.6205174974444708E-005
  -4.2999999999999997E-002    -1.5900021027797749E-005
  -4.1899999999999993E-002    -1.3479789413081027E-005
  -4.0799999999999989E-002    -8.2153989388272144E-006
  -3.9699999999999985E-002     6.4594271610521545E-007
  -3.8599999999999995E-002     1.3835265526246360E-005
  -3.7499999999999992E-002     3.2024093433478087E-005
  -3.6399999999999988E-002     5.5819627547042409E-005
  -3.5299999999999984E-002     8.5818801440124521E-005
  -3.4199999999999994E-002     1.2273451188135671E-004
  -3.3099999999999991E-002     1.6758370265274443E-004
  -3.1999999999999987E-002     2.2190149878667447E-004
  -3.0899999999999997E-002     2.8793054187878245E-004
  -2.9799999999999993E-002     3.6873964139098355E-004
  -2.8699999999999989E-002     4.6825233346881403E-004
  -2.7599999999999986E-002     5.9120537842557487E-004
  -2.6499999999999996E-002     7.4309387660398581E-004
  -2.5399999999999992E-002     9.3017732306482914E-004
  -2.4299999999999988E-002     1.1596104946289935E-003
  -2.3199999999999985E-002     1.4397274357657044E-003
  -2.2099999999999995E-002     1.7804601321517275E-003
  -2.0999999999999991E-002     2.1938350962748964E-003
  -1.9899999999999987E-002     2.6944768459337839E-003
  -1.8799999999999983E-002     3.3000621162124423E-003
  -1.7699999999999994E-002     4.0317046066009827E-003
  -1.6599999999999990E-002     4.9142902313332598E-003
  -1.5499999999999986E-002     5.9768097547062615E-003
  -1.4399999999999996E-002     7.2527396993324481E-003
  -1.3299999999999992E-002     8.7805057854662694E-003
  -1.2199999999999989E-002     1.0604037881371289E-002
  -1.1099999999999985E-002     1.2773405937333364E-002
  -9.9999999999999950E-003     1.5345521148703712E-002
  -8.8999999999999913E-003     1.8384893514766798E-002
  -7.7999999999999875E-003     2.1964444902485492E-002
  -6.6999999999999837E-003     2.6166372824292707E-002
  -5.5999999999999939E-003     3.1083038642132257E-002
  -4.4999999999999901E-003     3.6817821374940662E-002
  -3.3999999999999864E-003     4.3485851640210869E-002
  -2.2999999999999826E-003     5.1214538026654773E-002
  -1.1999999999999927E-003     6.0143829229275254E-002
  -9.9999999999988987E-005     7.0426211250365606E-002
   1.0000000000000148E-003     8.2226495454130799E-002
   2.1000000000000185E-003     9.5721480040792298E-002
   3.2000000000000084E-003    0.11109954368358611
   4.3000000000000121E-003    0.12856015648074917
   5.4000000000000159E-003    0.14831319536769608
   6.5000000000000058E-003    0.17057786924364562
   7.6000000000000234E-003    0.19558103107895847
   8.7000000000000133E-003    0.22355469701906130
   9.8000000000000032E-003    0.25473269247030428
   1.0900000000000021E-002    0.28934646314535656
   1.2000000000000011E-002    0.32762017743197830
   1.3100000000000001E-002    0.36976527111034441
   1.4200000000000018E-002    0.41597454183100946
   1.5300000000000008E-002    0.46641581604751331
   1.6400000000000026E-002    0.52122513108512791
   1.7500000000000016E-002    0.58049934213731824
   1.8600000000000005E-002    0.64428809711665902
   1.9700000000000023E-002    0.71258520865750807
   2.0800000000000013E-002    0.78531955549135157
   2.1900000000000003E-002    0.86234572396080322
   2.3000000000000020E-002    0.94343463063665534
   2.4100000000000010E-002     1.0282643534988141
   2.5200000000000000E-002     1.1164113711354706
   2.6300000000000018E-002     1.2073424030780182
   2.7400000000000008E-002     1.3004070812714155
   2.8500000000000025E-002     1.3948317559761345
   2.9600000000000015E-002     1.4897148159764446
   3.0700000000000005E-002     1.5840239406429215
   3.1800000000000023E-002     1.6765956724911750
   3.2900000000000013E-002     1.7661376072616000
   3.4000000000000002E-002     1.8512333802148309
   3.5100000000000020E-002     1.9303505331681068
   3.6200000000000010E-002     2.0018513157223796
   3.7300000000000028E-002     2.0640065107573213
   3.8400000000000017E-002     2.1150124433668034
   3.9500000000000007E-002     2.1530113743323716
   4.0600000000000025E-002     2.1761154394404842
   4.1700000000000015E-002     2.1824341537575620
   4.2800000000000005E-002     2.1701052814210526
   4.3900000000000022E-002     2.1373286387386035
   4.5000000000000012E-002     2.0824022200956676
   4.6100000000000002E-002     2.0037599536679580
   4.7200000000000020E-002     1.9000104005107870
   4.8300000000000010E-002     1.7699757554245457
   4.9400000000000027E-002     1.6127305233832792
   5.0500000000000017E-002     1.4276391837369204
   5.1600000000000007E-002     1.2143920160163530
   5.2700000000000025E-002    0.97303809681323283
   5.3800000000000014E-002    0.70401436420204344
   5.4900000000000004E-002    0.40816964869385652
   5.6000000000000022E-002     8.6782704035230696E-002
   5.7100000000000012E-002   -0.25842650545930462
   5.8200000000000002E-002   -0.62529277415807971
   5.9300000000000019E-002    -1.0112092373505885
   6.0400000000000009E-002    -1.4131388754721972
   6.1500000000000027E-002    -1.8276342811627417
   6.2600000000000017E-002    -2.2508660571537864
   6.3700000000000007E-002    -2.6786601383418271
   6.4800000000000024E-002    -3.1065440946602561
   6.5900000000000014E-002    -3.5298020828305177
   6.7000000000000004E-002    -3.9435376557878117
   6.8100000000000022E-002    -4.3427432254653757
   6.9200000000000012E-002    -4.7223747073816256
   7.0300000000000029E-002    -5.0774297913548958
   7.1400000000000019E-002    -5.4030283417096703
   7.2500000000000009E-002    -5.6944935384001356
   7.3600000000000027E-002    -5.9474324282874802
   7.4700000000000016E-002    -6.1578145089873999
   7.5800000000000006E-002    -6.3220468324257260
   7.6900000000000024E-002    -6.4370439668921868
   7.8000000000000014E-002    -6.5002910879605089
   7.9100000000000004E-002    -6.5098985413671677
   8.0200000000000021E-002    -6.4646464335039298
   8.1300000000000011E-002    -6.3640180978573815
   8.2400000000000029E-002    -6.2082215766353155
   8.3500000000000019E-002    -5.9981984899208811
   8.4600000000000009E-002    -5.7356198424107525
   8.5700000000000026E-002    -5.4228684990211473
   8.6800000000000016E-002    -5.0630083238989032
   8.7900000000000006E-002    -4.6597403684724323
   8.9000000000000024E-002    -4.2173469877764171
   9.0100000000000013E-002    -3.7406252626912515
   9.1200000000000003E-002    -3.2348114793011140
   9.2300000000000021E-002    -2.7054985672843550
   9.3400000000000011E-002    -2.1585483150515348
   9.4500000000000028E-002    -1.5999999491228136
   9.5600000000000018E-002    -1.0359764430995970
   9.6700000000000008E-002   -0.47258985494302325
   9.7800000000000026E-002     8.4152853099878411E-002
   9.8900000000000016E-002    0.62844173215995802
  0.10000000000000001          1.1547513807582597
  0.10110000000000002          1.6579218030383518
  0.10220000000000001          2.1332304313679353
  0.10330000000000003          2.5764536037030101
  0.10440000000000002          2.9839164422808313
  0.10550000000000001          3.3525307538167493
  0.10660000000000003          3.6798210828578770
  0.10770000000000002          3.9639393073649312
  0.10880000000000001          4.2036681986909805
  0.10990000000000003          4.3984143024020437
  0.11100000000000002          4.5481904822968300
  0.11210000000000001          4.6535886045674282
  0.11320000000000002          4.7157431201477866
  0.11430000000000001          4.7362866386631222
  0.11540000000000003          4.7172988515173202
  0.11650000000000002          4.6612502681497370
  0.11760000000000001          4.5709421788511788
  0.11870000000000003          4.4494441339842332
  0.11980000000000002          4.3000301487201193
  0.12090000000000001          4.1261148794966092
  0.12200000000000003          3.9311911565588176
  0.12310000000000001          3.7187703882230130
  0.12420000000000003          3.4923273329012701
  0.12530000000000002          3.2552504665543940
  0.12640000000000001          3.0107986694288669
  0.12750000000000003          2.7620643517609902
  0.12860000000000002          2.5119426362009394
  0.12970000000000001          2.2631059900955188
  0.13080000000000003          2.0179838122184486
  0.13190000000000002          1.7787468323642797
  0.13300000000000001          1.5472965703240789
  0.13410000000000000          1.3252602970042220
  0.13520000000000004          1.1139918092341792
  0.13630000000000003         0.91457789296399772
  0.13740000000000002         0.72784977739490753
  0.13850000000000001         0.55439841254117894
  0.13960000000000000         0.39459222537471766
  0.14070000000000005         0.24859617885297852
  0.14180000000000004         0.11639136941400210
  0.14290000000000003         -2.2051535271948933E-003
  0.14400000000000002        -0.10752037903170863
  0.14510000000000001        -0.20000514820684101
  0.14620000000000000        -0.28021399186394935
  0.14730000000000004        -0.34878543704463288
  0.14840000000000003        -0.40642334276782272
  0.14950000000000002        -0.45387971620718492
  0.15060000000000001        -0.49193916509685848
  0.15170000000000000        -0.52140481352531476
  0.15280000000000005        -0.54308532843563662
  0.15390000000000004        -0.55778278024134342
  0.15500000000000003        -0.56628135976841987
  0.15610000000000002        -0.56933733167919753
  0.15720000000000001        -0.56767081039690070
  0.15830000000000000        -0.56195985267837834
  0.15940000000000004        -0.55283697513263219
  0.16050000000000003        -0.54088768651030872
  0.16160000000000002        -0.52665021743303542
  0.16270000000000001        -0.51061553892858491
  0.16380000000000000        -0.49322704403580081
  0.16490000000000005        -0.47487980050844886
  0.16600000000000004        -0.45591981856183295
  0.16710000000000003        -0.43664406298729680
  0.16820000000000002        -0.41730184275013915
  0.16930000000000001        -0.39809778949513275
  0.17040000000000000        -0.37919610376096968
  0.17150000000000004        -0.36072536811794004
  0.17260000000000003        -0.34278317947741455
  0.17370000000000002        -0.32544014383862530
  0.17480000000000001        -0.30874323736881898
  0.17590000000000000        -0.29271891640553155
  0.17700000000000005        -0.27737645442697140
  0.17810000000000004        -0.26271175174683553
  0.17920000000000003        -0.24871143945857119
  0.18030000000000002        -0.23535672674622113
  0.18140000000000001        -0.22262634106834328
  0.18250000000000000        -0.21049816162960125
  0.18360000000000004        -0.19894963637280527
  0.18470000000000003        -0.18795755452466748
  0.18580000000000002        -0.17749796564064949
  0.18690000000000001        -0.16754686421711523
  0.18800000000000000        -0.15808176689671419
  0.18910000000000005        -0.14908373562282948
  0.19020000000000004        -0.14053903255240030
  0.19130000000000003        -0.13243962161262077
  0.19240000000000002        -0.12478215191013763
  0.19350000000000001        -0.11756566933213847
  0.19460000000000005        -0.11078880976123898
  0.19570000000000004        -0.10444739011546496
  0.19680000000000003         -9.8533066835004277E-002
  0.19790000000000002         -9.3033215304917746E-002
  0.19900000000000001         -8.7931666653307913E-002
  0.20010000000000000         -8.3209675993390381E-002
  0.20120000000000005         -7.8846598203933541E-002
  0.20230000000000004         -7.4820123701277524E-002
  0.20340000000000003         -7.1106340861967626E-002
  0.20450000000000002         -6.7680092944855788E-002
  0.20560000000000000         -6.4515960243521492E-002
  0.20670000000000005         -6.1589795190923440E-002
  0.20780000000000004         -5.8880303387751604E-002
  0.20890000000000003         -5.6369966052746114E-002
