 -0.12000000000000000          0.0000000000000000
 -0.11889999999999999          0.0000000000000000
 -0.11780000000000000          0.0000000000000000
 -0.11670000000000000          0.0000000000000000
 -0.11559999999999999          0.0000000000000000
 -0.11449999999999999          0.0000000000000000
 -0.11340000000000000          0.0000000000000000
 -0.11230000000000000          5.9546633148109591E-105
 -0.11119999999999999         -4.4050166351776891E-079
 -0.11009999999999999          4.9677036524218645E-054
 -0.10900000000000000          1.5775076373363186E-029
 -0.10790000000000000          2.0081777613055709E-028
 -0.10679999999999999          1.1506810676547682E-027
 -0.10569999999999999          3.5617516417663799E-027
 -0.10460000000000000          4.1517556662541195E-027
 -0.10349999999999999         -1.4099198077135131E-026
 -0.10239999999999999         -8.1531105837965870E-026
 -0.10130000000000000         -1.7935588611267985E-025
 -0.10020000000000000         -7.3350727396925338E-026
  -9.9099999999999994E-002     7.9740770979121473E-025
  -9.7999999999999990E-002     2.7993743405733879E-024
  -9.6899999999999986E-002     4.2767998874384450E-024
  -9.5799999999999996E-002    -7.7541536029943415E-025
  -9.4699999999999993E-002    -2.1002877121966783E-023
  -9.3599999999999989E-002    -5.4483336877300916E-023
  -9.2499999999999999E-002    -6.3191740183881477E-023
  -9.1399999999999995E-002     4.0905464250314424E-023
  -9.0299999999999991E-002     3.4091972315651684E-022
  -8.9200000000000002E-002     7.3930701847482827E-022
  -8.8099999999999984E-002     7.2353412158428083E-022
  -8.6999999999999994E-002    -6.2934032924334552E-022
  -8.5899999999999990E-002    -3.9291919883584808E-021
  -8.4799999999999986E-002    -7.8216107716308530E-021
  -8.3699999999999997E-002    -7.2981076512036594E-021
  -8.2599999999999993E-002     5.4936480576027376E-021
  -8.1499999999999989E-002     3.4746756542053660E-020
  -8.0399999999999999E-002     6.8491496771191865E-020
  -7.9299999999999995E-002     6.7678649016662760E-020
  -7.8199999999999992E-002    -2.5816111268171685E-020
  -7.7100000000000002E-002    -2.4347572113876799E-019
  -7.5999999999999984E-002    -5.0842779955587292E-019
  -7.4899999999999994E-002    -5.6674380068854516E-019
  -7.3799999999999991E-002    -3.3478681315865969E-020
  -7.2699999999999987E-002     1.3420043719060689E-018
  -7.1599999999999997E-002     3.2010188378831638E-018
  -7.0499999999999993E-002     4.1486344596288635E-018
  -6.9399999999999989E-002     1.9045420554785595E-018
  -6.8300000000000000E-002    -5.4075209581203449E-018
  -6.7199999999999996E-002    -1.6792534521916013E-017
  -6.6099999999999992E-002    -2.5862442084494192E-017
  -6.5000000000000002E-002    -2.0723689908011604E-017
  -6.3899999999999985E-002     1.0874889783492170E-017
  -6.2799999999999995E-002     7.0231454899517344E-017
  -6.1699999999999991E-002     1.3416755905513935E-016
  -6.0599999999999994E-002     1.4942197432890948E-016
  -5.9499999999999990E-002     4.8277247027088964E-017
  -5.8399999999999994E-002    -2.0683227160544858E-016
  -5.7299999999999990E-002    -5.5971159985860988E-016
  -5.6199999999999986E-002    -8.1366439772747641E-016
  -5.5099999999999996E-002    -6.5700587319980951E-016
  -5.3999999999999992E-002     1.9258357533896077E-016
  -5.2899999999999989E-002     1.7329076982508538E-015
  -5.1799999999999985E-002     3.4150265101515138E-015
  -5.0699999999999995E-002     4.0730259392885971E-015
  -4.9599999999999991E-002     2.2653562744345856E-015
  -4.8499999999999988E-002    -2.8829850636940156E-015
  -4.7399999999999998E-002    -1.0549854571826716E-014
  -4.6299999999999994E-002    -1.7390957859608921E-014
  -4.5199999999999990E-002    -1.7857568504091476E-014
  -4.4099999999999986E-002    -6.3212136544860446E-015
  -4.2999999999999997E-002     1.9098998978887263E-014
  -4.1899999999999993E-002     5.2362573799778804E-014
  -4.0799999999999989E-002     7.7555044239879496E-014
  -3.9699999999999985E-002     7.2047806915429267E-014
  -3.8599999999999995E-002     1.6287868741133752E-014
  -3.7499999999999992E-002    -9.1542903970805660E-014
  -3.6399999999999988E-002    -2.2203688921127245E-013
  -3.5299999999999984E-002    -3.1144768404636365E-013
  -3.4199999999999994E-002    -2.7755644387315989E-013
  -3.3099999999999991E-002    -5.6844025434537948E-014
  -3.1999999999999987E-002     3.4612698116142416E-013
  -3.0899999999999997E-002     8.1884182032154402E-013
  -2.9799999999999993E-002     1.1391878994536073E-012
  -2.8699999999999989E-002     1.0349288127896108E-012
  -2.7599999999999986E-002     3.0510809214843496E-013
  -2.6499999999999996E-002    -1.0300081363397735E-012
  -2.5399999999999992E-002    -2.6170458248142197E-012
  -2.4299999999999988E-002    -3.7755808839664089E-012
  -2.3199999999999985E-002    -3.6785689612751874E-012
  -2.2099999999999995E-002    -1.6988969369080184E-012
  -2.0999999999999991E-002     2.1763168966370467E-012
  -1.9899999999999987E-002     7.0414347630551882E-012
  -1.8799999999999983E-002     1.1078694381526735E-011
  -1.7699999999999994E-002     1.2007367292720862E-011
  -1.6599999999999990E-002     7.9458085185979811E-012
  -1.5499999999999986E-002    -1.5540324266082291E-012
  -1.4399999999999996E-002    -1.4713726153309547E-011
  -1.3299999999999992E-002    -2.7430534813650649E-011
  -1.2199999999999989E-002    -3.4168390792075098E-011
  -1.1099999999999985E-002    -2.9783273253915085E-011
  -9.9999999999999950E-003    -1.1795915216364787E-011
  -8.8999999999999913E-003     1.7717694696611631E-011
  -7.7999999999999875E-003     5.1518458891371142E-011
  -6.6999999999999837E-003     7.8475456771563351E-011
  -5.5999999999999939E-003     8.6677673604396135E-011
  -4.4999999999999901E-003     6.7586385295294170E-011
  -3.3999999999999864E-003     1.9848709983650833E-011
  -2.2999999999999826E-003    -4.8718428264568017E-011
  -1.1999999999999927E-003    -1.2197909648518852E-010
  -9.9999999999988987E-005    -1.7920670006725912E-010
   1.0000000000000148E-003    -2.0064888060792990E-010
   2.1000000000000185E-003    -1.7314357658585445E-010
   3.2000000000000084E-003    -9.3957590545334661E-011
   4.3000000000000121E-003     2.8251110782588786E-011
   5.4000000000000159E-003     1.7523879703036661E-010
   6.5000000000000058E-003     3.2252442165164666E-010
   7.6000000000000234E-003     4.4262272310236600E-010
   8.7000000000000133E-003     5.0705923128833441E-010
   9.8000000000000032E-003     4.8741791084852927E-010
   1.0900000000000021E-002     3.5713902238015322E-010
   1.2000000000000011E-002     9.6452730436497315E-011
   1.3100000000000001E-002    -2.9799867427456901E-010
   1.4200000000000018E-002    -7.9969994667916486E-010
   1.5300000000000008E-002    -1.3390349413713540E-009
   1.6400000000000026E-002    -1.7970102895513828E-009
   1.7500000000000016E-002    -2.0132142705964834E-009
   1.8600000000000005E-002    -1.8128293982871634E-009
   1.9700000000000023E-002    -1.0521663103311101E-009
   2.0800000000000013E-002     3.2469287465729579E-010
   2.1900000000000003E-002     2.2317768809565923E-009
   2.3000000000000020E-002     4.4065887145764615E-009
   2.4100000000000010E-002     6.4108432833228080E-009
   2.5200000000000000E-002     7.6768513281005782E-009
   2.6300000000000018E-002     7.6007857940790288E-009
   2.7400000000000008E-002     5.6735950027885019E-009
   2.8500000000000025E-002     1.6305168685502458E-009
   2.9600000000000015E-002    -4.4073640872668916E-009
   3.0700000000000005E-002    -1.1830282647438059E-008
   3.1800000000000023E-002    -1.9506712836315318E-008
   3.2900000000000013E-002    -2.5846716908898058E-008
   3.4000000000000002E-002    -2.8978540022556947E-008
   3.5100000000000020E-002    -2.7039208823174456E-008
   3.6200000000000010E-002    -1.8557999802124812E-008
   3.7300000000000028E-002    -2.8862867032915640E-009
   3.8400000000000017E-002     1.9396811496352126E-008
   3.9500000000000007E-002     4.6189995742702702E-008
   4.0600000000000025E-002     7.3776113916957805E-008
   4.1700000000000015E-002     9.7003571249443995E-008
   4.2800000000000005E-002     1.0978438110649265E-007
   4.3900000000000022E-002     1.0590465490719736E-007
   4.5000000000000012E-002     8.0091917907719301E-008
   4.6100000000000002E-002     2.9234062403535524E-008
   4.7200000000000020E-002    -4.6397753472071718E-008
   4.8300000000000010E-002    -1.4210313854009463E-007
   4.9400000000000027E-002    -2.4808731083803246E-007
   5.0500000000000017E-002    -3.4939067765303964E-007
   5.1600000000000007E-002    -4.2661651067867396E-007
   5.2700000000000025E-002    -4.5761595014554955E-007
   5.3800000000000014E-002    -4.2019753610232436E-007
   5.4900000000000004E-002    -2.9578030961200897E-007
   5.6000000000000022E-002    -7.3711804498324990E-008
   5.7100000000000012E-002     2.4424824348486909E-007
   5.8200000000000002E-002     6.3997530428171236E-007
   5.9300000000000019E-002     1.0763755911290074E-006
   6.0400000000000009E-002     1.4969416776583713E-006
   6.1500000000000027E-002     1.8281256777825009E-006
   6.2600000000000017E-002     1.9848938915719131E-006
   6.3700000000000007E-002     1.8794388538248106E-006
   6.4800000000000024E-002     1.4326098105426812E-006
   6.5900000000000014E-002     5.8725161864045761E-007
   6.7000000000000004E-002    -6.7763018509056921E-007
   6.8100000000000022E-002    -2.3331063332659842E-006
   6.9200000000000012E-002    -4.2882095563177773E-006
   7.0300000000000029E-002    -6.3806206214024809E-006
   7.1400000000000019E-002    -8.3711091191081821E-006
   7.2500000000000009E-002    -9.9423833027750814E-006
   7.3600000000000027E-002    -1.0702586074590673E-005
   7.4700000000000016E-002    -1.0193126251964889E-005
   7.5800000000000006E-002    -7.8998628401114444E-006
   7.6900000000000024E-002    -3.2659112274339228E-006
   7.8000000000000014E-002     4.2963963666775364E-006
   7.9100000000000004E-002     1.5397468117323281E-005
   8.0200000000000021E-002     3.0669748936817091E-005
   8.1300000000000011E-002     5.0777781028824648E-005
   8.2400000000000029E-002     7.6442078339351591E-005
   8.3500000000000019E-002     1.0847914536312548E-004
   8.4600000000000009E-002     1.4785900349734111E-004
   8.5700000000000026E-002     1.9578050813898632E-004
   8.6800000000000016E-002     2.5376369708809228E-004
   8.7900000000000006E-002     3.2375755006124464E-004
   8.9000000000000024E-002     4.0826098590586126E-004
   9.0100000000000013E-002     5.1045477571867303E-004
   9.1200000000000003E-002     6.3434236366842391E-004
   9.2300000000000021E-002     7.8489836309540457E-004
   9.3400000000000011E-002     9.6822465900547959E-004
   9.4500000000000028E-002     1.1917154431183652E-003
   9.5600000000000018E-002     1.4642339114572924E-003
   9.6700000000000008E-002     1.7963045212167693E-003
   9.7800000000000026E-002     2.2003254268875795E-003
   9.8900000000000016E-002     2.6908058880651320E-003
  0.10000000000000001          3.2846330841306451E-003
  0.10110000000000002          4.0013720130350899E-003
  0.10220000000000001          4.8636011604894502E-003
  0.10330000000000003          5.8972855170321284E-003
  0.10440000000000002          7.1321872846534700E-003
  0.10550000000000001          8.6023131076161628E-003
  0.10660000000000003          1.0346394670148924E-002
  0.10770000000000002          1.2408396866827206E-002
  0.10880000000000001          1.4838044490838934E-002
  0.10990000000000003          1.7691354770088479E-002
  0.11100000000000002          2.1031159587861430E-002
  0.11210000000000001          2.4927598387715025E-002
  0.11320000000000002          2.9458560963791083E-002
  0.11430000000000001          3.4710058626542029E-002
  0.11540000000000003          4.0776502256856688E-002
  0.11650000000000002          4.7760865856580056E-002
  0.11760000000000001          5.5774713632707994E-002
  0.11870000000000003          6.4938066893959853E-002
  0.11980000000000002          7.5379084018768500E-002
  0.12090000000000001          8.7233522925907109E-002
  0.12200000000000003         0.10064395170601806
  0.12310000000000001         0.11575867036042764
  0.12420000000000003         0.13273030577981959
  0.12530000000000002         0.15171404361252006
  0.12640000000000001         0.17286546447917381
  0.12750000000000003         0.19633795768219722
  0.12860000000000002         0.22227969259465655
  0.12970000000000001         0.25083013586407732
  0.13080000000000003         0.28211611127234332
  0.13190000000000002         0.31624740868963880
  0.13300000000000001         0.35331195938635312
  0.13410000000000000         0.39337060740855584
  0.13520000000000004         0.43645152107337265
  0.13630000000000003         0.48254430501089191
  0.13740000000000002         0.53159389145618818
  0.13850000000000001         0.58349430931839097
  0.13960000000000000         0.63808245028284016
  0.14070000000000005         0.69513197188521181
  0.14180000000000004         0.75434749689165526
  0.14290000000000003         0.81535928503127397
  0.14400000000000002         0.87771856587551689
  0.14510000000000001         0.94089372961334206
  0.14620000000000000          1.0042675755180521
  0.14730000000000004          1.0671358166725493
  0.14840000000000003          1.1287070350801565
  0.14950000000000002          1.1881042745353776
  0.15060000000000001          1.2443684496050123
  0.15170000000000000          1.2964637365024458
  0.15280000000000005          1.3432850929899813
  0.15390000000000004          1.3836680265785553
  0.15500000000000003          1.4164006905906119
  0.15610000000000002          1.4402383351781936
  0.15720000000000001          1.4539200766347538
  0.15830000000000000          1.4561878771423429
  0.15940000000000004          1.4458075536857888
  0.16050000000000003          1.4215915643430852
  0.16160000000000002          1.3824232559867449
  0.16270000000000001          1.3272822005501106
  0.16380000000000000          1.2552701960156756
  0.16490000000000005          1.1656374605739159
  0.16600000000000004          1.0578085019271368
  0.16710000000000003         0.93140709853834336
  0.16820000000000002         0.78627978869574089
  0.16930000000000001         0.62251723201623388
  0.17040000000000000         0.44047279297012210
  0.17150000000000004         0.24077770291030259
  0.17260000000000003          2.4352189253327619E-002
  0.17370000000000002        -0.20758798201058987
  0.17480000000000001        -0.45353002428456513
  0.17590000000000000        -0.71166808490416067
  0.17700000000000005        -0.97991290224588190
  0.17810000000000004         -1.2559073135352508
  0.17920000000000003         -1.5370476391178756
  0.18030000000000002         -1.8205108439440811
  0.18140000000000001         -2.1032872501386426
  0.18250000000000000         -2.3822184459915654
  0.18360000000000004         -2.6540399066696807
  0.18470000000000003         -2.9154277110499356
  0.18580000000000002         -3.1630486090645813
  0.18690000000000001         -3.3936125683992233
  0.18800000000000000         -3.6039268142482541
  0.18910000000000005         -3.7909502794237784
  0.19020000000000004         -3.9518473141344619
  0.19130000000000003         -4.0840394742631023
  0.19240000000000002         -4.1852542197768754
  0.19350000000000001         -4.2535694112437783
  0.19460000000000005         -4.2874525861098629
  0.19570000000000004         -4.2857941160733724
  0.19680000000000003         -4.2479334794600261
  0.19790000000000002         -4.1736780174941766
  0.19900000000000001         -4.0633136767135216
  0.20010000000000000         -3.9176073752142702
  0.20120000000000005         -3.7378007775390460
  0.20230000000000004         -3.5255954325317678
  0.20340000000000003         -3.2831294262687472
  0.20450000000000002         -3.0129459246699821
  0.20560000000000000         -2.7179542133284524
  0.20670000000000005         -2.4013840634402652
  0.20780000000000004         -2.0667344389542404
  0.20890000000000003         -1.7177176934195197
