 -0.12000000000000000          0.0000000000000000
 -0.11889999999999999          0.0000000000000000
 -0.11780000000000000          0.0000000000000000
 -0.11670000000000000          0.0000000000000000
 -0.11559999999999999          0.0000000000000000
 -0.11449999999999999          0.0000000000000000
 -0.11340000000000000          0.0000000000000000
 -0.11230000000000000          0.0000000000000000
 -0.11119999999999999          0.0000000000000000
 -0.11009999999999999          0.0000000000000000
 -0.10900000000000000          0.0000000000000000
 -0.10790000000000000          0.0000000000000000
 -0.10679999999999999          4.4028397675518933E-144
 -0.10569999999999999          7.1599732629637000E-119
 -0.10460000000000000         -6.1740927965320577E-094
 -0.10349999999999999         -5.0438684250640692E-069
 -0.10239999999999999         -5.3384170971139307E-045
 -0.10130000000000000         -9.3620811730127572E-044
 -0.10020000000000000         -7.5766523412895178E-043
  -9.9099999999999994E-002    -3.5549420022102057E-042
  -9.7999999999999990E-002    -9.1693983087351319E-042
  -9.6899999999999986E-002    -1.5075749305993904E-042
  -9.5799999999999996E-002     9.3557300728952281E-041
  -9.4699999999999993E-002     4.1310209300388176E-040
  -9.3599999999999989E-002     8.3978247826549300E-040
  -9.2499999999999999E-002    -7.3618734581366862E-041
  -9.1399999999999995E-002    -6.3485296781382051E-039
  -9.0299999999999991E-002    -2.1614828166034590E-038
  -8.9200000000000002E-002    -3.2914694415073707E-038
  -8.8099999999999984E-002     2.0062736056638777E-038
  -8.6999999999999994E-002     2.4765425466095693E-037
  -8.5899999999999990E-002     6.6350516056297661E-037
  -8.4799999999999986E-002     7.6598966432868652E-037
  -8.3699999999999997E-002    -9.2947963970451255E-037
  -8.2599999999999993E-002    -6.3015566073701539E-036
  -8.1499999999999989E-002    -1.4066249753008385E-035
  -8.0399999999999999E-002    -1.2838793545943651E-035
  -7.9299999999999995E-002     2.2782883464097774E-035
  -7.8199999999999992E-002     1.1553124807552337E-034
  -7.7100000000000002E-002     2.2805284957915486E-034
  -7.5999999999999984E-002     1.7804704139816552E-034
  -7.4899999999999994E-002    -3.7125366500180746E-034
  -7.3799999999999991E-002    -1.6401061276408523E-033
  -7.2699999999999987E-002    -3.0259873047922474E-033
  -7.1599999999999997E-002    -2.2572388254590348E-033
  -7.0499999999999993E-002     4.3918912393754906E-033
  -6.9399999999999989E-002     1.8880928535385525E-032
  -6.8300000000000000E-002     3.4245196640797099E-032
  -6.7199999999999996E-002     2.7147710825499042E-032
  -6.6099999999999992E-002    -3.8510952312048864E-032
  -6.5000000000000002E-002    -1.8091044229734415E-031
  -6.3899999999999985E-002    -3.3759011310282043E-031
  -6.2799999999999995E-002    -3.0420896667628071E-031
  -6.1699999999999991E-002     2.3367903030484690E-031
  -6.0599999999999994E-002     1.4557260915387417E-030
  -5.9499999999999990E-002     2.9183811301421414E-030
  -5.8399999999999994E-002     3.0720325770669148E-030
  -5.7299999999999990E-002    -5.6624562952719198E-031
  -5.6199999999999986E-002    -9.7436939959160186E-030
  -5.5099999999999996E-002    -2.2051449328052295E-029
  -5.3999999999999992E-002    -2.7292311934949463E-029
  -5.2899999999999989E-002    -7.7586353870650706E-030
  -5.1799999999999985E-002     5.2059311286933945E-029
  -5.0699999999999995E-002     1.4392753997564054E-028
  -4.9599999999999991E-002     2.1035788268204674E-028
  -4.8499999999999988E-002     1.3850769165571561E-028
  -4.7399999999999998E-002    -1.9277620264747374E-028
  -4.6299999999999994E-002    -7.9197151741088601E-028
  -4.5199999999999990E-002    -1.3914548549776338E-027
  -4.4099999999999986E-002    -1.3590757782924862E-027
  -4.2999999999999997E-002     1.2626527759381437E-028
  -4.1899999999999993E-002     3.4800997801724542E-027
  -4.0799999999999989E-002     7.7763055660631274E-027
  -3.9699999999999985E-002     9.9802526772311598E-027
  -3.8599999999999995E-002     5.3049620231249627E-027
  -3.7499999999999992E-002    -1.0320807963419272E-026
  -3.6399999999999988E-002    -3.5548857044138823E-026
  -3.5299999999999984E-002    -5.8499218574523394E-026
  -3.4199999999999994E-002    -5.5481371663235770E-026
  -3.3099999999999991E-002     1.0319602471239156E-027
  -3.1999999999999987E-002     1.2218416036746308E-025
  -3.0899999999999997E-002     2.7489224544498386E-025
  -2.9799999999999993E-002     3.6247860899013601E-025
  -2.8699999999999989E-002     2.3919547140694620E-025
  -2.7599999999999986E-002    -2.1880880275864338E-025
  -2.6499999999999996E-002    -9.8807797524651424E-025
  -2.5399999999999992E-002    -1.7667393115514225E-024
  -2.4299999999999988E-002    -1.9382880043858514E-024
  -2.3199999999999985E-002    -7.5083081499722202E-025
  -2.2099999999999995E-002     2.2245839932365990E-024
  -2.0999999999999991E-002     6.4515824673054364E-024
  -1.9899999999999987E-002     9.9251788139915486E-024
  -1.8799999999999983E-002     9.3150664249748194E-024
  -1.7699999999999994E-002     1.2269968691913707E-024
  -1.6599999999999990E-002    -1.5362578013845981E-023
  -1.5499999999999986E-002    -3.6252240069081739E-023
  -1.4399999999999996E-002    -5.0433457645900749E-023
  -1.3299999999999992E-002    -4.1973581693632882E-023
  -1.2199999999999989E-002     3.0802981989530539E-024
  -1.1099999999999985E-002     8.5445398781830457E-023
  -9.9999999999999950E-003     1.8117002021627923E-022
  -8.8999999999999913E-003     2.3757759875542416E-022
  -7.7999999999999875E-003     1.8503548309806585E-022
  -6.6999999999999837E-003    -3.1017370603838150E-023
  -5.5999999999999939E-003    -4.0319528623092195E-022
  -4.4999999999999901E-003    -8.1933218675401979E-022
  -3.3999999999999864E-003    -1.0536483122878052E-021
  -2.2999999999999826E-003    -8.2192774649431162E-022
  -1.1999999999999927E-003     8.7733804960428389E-023
  -9.9999999999988987E-005     1.6350140848919476E-021
   1.0000000000000148E-003     3.3719857240867710E-021
   2.1000000000000185E-003     4.4204369148006711E-021
   3.2000000000000084E-003     3.6833353528635602E-021
   4.3000000000000121E-003     3.2239082437384102E-022
   5.4000000000000159E-003    -5.5970244509629138E-021
   6.5000000000000058E-003    -1.2547132797164074E-020
   7.6000000000000234E-003    -1.7425794335708505E-020
   8.7000000000000133E-003    -1.6225370570106773E-020
   9.8000000000000032E-003    -5.5953643101033188E-021
   1.0900000000000021E-002     1.4993754714286200E-020
   1.2000000000000011E-002     4.1256062931221605E-020
   1.3100000000000001E-002     6.3378680838938108E-020
   1.4200000000000018E-002     6.7672019358793711E-020
   1.5300000000000008E-002     4.1073208450730268E-020
   1.6400000000000026E-002    -2.2133425700234524E-020
   1.7500000000000016E-002    -1.1340516119716468E-019
   1.8600000000000005E-002    -2.0598939830561344E-019
   1.9700000000000023E-002    -2.5729792396198766E-019
   2.0800000000000013E-002    -2.1976773284115743E-019
   2.1900000000000003E-002    -5.9640879433661377E-020
   2.3000000000000020E-002     2.2064188702475563E-019
   2.4100000000000010E-002     5.6433597390371426E-019
   2.5200000000000000E-002     8.5638130981873391E-019
   2.6300000000000018E-002     9.4201156385505996E-019
   2.7400000000000008E-002     6.7123357943579143E-019
   2.8500000000000025E-002    -3.6460279183493631E-020
   2.9600000000000015E-002    -1.1233881344229639E-018
   3.0700000000000005E-002    -2.3462860633920025E-018
   3.1800000000000023E-002    -3.2790473491432409E-018
   3.2900000000000013E-002    -3.3887158554143634E-018
   3.4000000000000002E-002    -2.1909642950712969E-018
   3.5100000000000020E-002     5.3571909654367650E-019
   3.6200000000000010E-002     4.5299232550467837E-018
   3.7300000000000028E-002     8.9018289855327667E-018
   3.8400000000000017E-002     1.2154210164520946E-017
   3.9500000000000007E-002     1.2444488213247615E-017
   4.0600000000000025E-002     8.1087741667935404E-018
   4.1700000000000015E-002    -1.6191313416561380E-018
   4.2800000000000005E-002    -1.5867041610855059E-017
   4.3900000000000022E-002    -3.1628522720869267E-017
   4.5000000000000012E-002    -4.3816761540458080E-017
   4.6100000000000002E-002    -4.6115023462853669E-017
   4.7200000000000020E-002    -3.2691836920162962E-017
   4.8300000000000010E-002    -5.6054018839988898E-019
   4.9400000000000027E-002     4.7977028349550475E-017
   5.0500000000000017E-002     1.0364944405281913E-016
   5.1600000000000007E-002     1.5024664610828298E-016
   5.2700000000000025E-002     1.6711425663043097E-016
   5.3800000000000014E-002     1.3431059383207881E-016
   5.4900000000000004E-002     3.9775679218058703E-017
   5.6000000000000022E-002    -1.1310107714874312E-016
   5.7100000000000012E-002    -2.9990882322278152E-016
   5.8200000000000002E-002    -4.7429732515900381E-016
   5.9300000000000019E-002    -5.7384702907240705E-016
   6.0400000000000009E-002    -5.3345226503678420E-016
   6.1500000000000027E-002    -3.0481543792570871E-016
   6.2600000000000017E-002     1.2175019230138915E-016
   6.3700000000000007E-002     6.9902696894861377E-016
   6.4800000000000024E-002     1.3148375121923077E-015
   6.5900000000000014E-002     1.8001828641948111E-015
   6.7000000000000004E-002     1.9568267142492250E-015
   6.8100000000000022E-002     1.6031757672061962E-015
   6.9200000000000012E-002     6.3193661474610885E-016
   7.0300000000000029E-002    -9.3216382840000041E-016
   7.1400000000000019E-002    -2.8899720495284974E-015
   7.2500000000000009E-002    -4.8570415270563334E-015
   7.3600000000000027E-002    -6.2976298064404787E-015
   7.4700000000000016E-002    -6.6099132509307229E-015
   7.5800000000000006E-002    -5.2582258888557062E-015
   7.6900000000000024E-002    -1.9353856197736380E-015
   7.8000000000000014E-002     3.2745364441101523E-015
   7.9100000000000004E-002     9.7724515136765519E-015
   8.0200000000000021E-002     1.6402738816378078E-014
   8.1300000000000011E-002     2.1532271526471527E-014
   8.2400000000000029E-002     2.3272902519351319E-014
   8.3500000000000019E-002     1.9844699182409106E-014
   8.4600000000000009E-002     1.0043855137697278E-014
   8.5700000000000026E-002    -6.2568195380059867E-015
   8.6800000000000016E-002    -2.7678410760781957E-014
   8.7900000000000006E-002    -5.1099593603496593E-014
   8.9000000000000024E-002    -7.1733439408056952E-014
   9.0100000000000013E-002    -8.3608397211433126E-014
   9.1200000000000003E-002    -8.0487099584186139E-014
   9.2300000000000021E-002    -5.7173958538040641E-014
   9.3400000000000011E-002    -1.1063622632489336E-014
   9.4500000000000028E-002     5.6318054760910936E-014
   9.5600000000000018E-002     1.3811158115873377E-013
   9.6700000000000008E-002     2.2163407445853988E-013
   9.7800000000000026E-002     2.8895831201579864E-013
   9.8900000000000016E-002     3.1882023196093097E-013
  0.10000000000000001          2.8993145173528996E-013
  0.10110000000000002          1.8550978865430496E-013
  0.10220000000000001         -1.4782688140779483E-015
  0.10330000000000003         -2.6319741414171941E-013
  0.10440000000000002         -5.7305164948795320E-013
  0.10550000000000001         -8.8426390798588228E-013
  0.10660000000000003         -1.1320966729250060E-012
  0.10770000000000002         -1.2405411872805655E-012
  0.10880000000000001         -1.1336746948913069E-012
  0.10990000000000003         -7.5100853068138786E-013
  0.11100000000000002         -6.5126905392514080E-014
  0.11210000000000001          9.0109045248015870E-013
  0.11320000000000002          2.0611539757156298E-012
  0.11430000000000001          3.2593980885544143E-012
  0.11540000000000003          4.2767250951774418E-012
  0.11650000000000002          4.8501998073034082E-012
  0.11760000000000001          4.7072595896311606E-012
  0.11870000000000003          3.6128921726823781E-012
  0.11980000000000002          1.4253395955107695E-012
  0.12090000000000001         -1.8469116983270050E-012
  0.12200000000000003         -5.9964310107307167E-012
  0.12310000000000001         -1.0587381543138462E-011
  0.12420000000000003         -1.4956177804797660E-011
  0.12530000000000002         -1.8251274071204544E-011
  0.12640000000000001         -1.9517246284065678E-011
  0.12750000000000003         -1.7822584913508967E-011
  0.12860000000000002         -1.2423375889105199E-011
  0.12970000000000001         -2.9470465970308026E-012
  0.13080000000000003          1.0427360149503901E-011
  0.13190000000000002          2.6822075345010287E-011
  0.13300000000000001          4.4579578018086490E-011
  0.13410000000000000          6.1279618381580685E-011
  0.13520000000000004          7.3880159837082833E-011
  0.13630000000000003          7.8996471358489231E-011
  0.13740000000000002          7.3315741807085981E-011
  0.13850000000000001          5.4123685387613369E-011
  0.13960000000000000          1.9896723860731154E-011
  0.14070000000000005         -2.9108690336418152E-011
  0.14180000000000004         -9.0355817064510078E-011
  0.14290000000000003         -1.5871260246305147E-010
  0.14400000000000002         -2.2641693172068744E-010
  0.14510000000000001         -2.8340258796770423E-010
  0.14620000000000000         -3.1803714559342673E-010
  0.14730000000000004         -3.1827995159659661E-010
  0.14840000000000003         -2.7321412882344252E-010
  0.14950000000000002         -1.7484593631947520E-010
  0.15060000000000001         -2.0004376105471953E-011
  0.15170000000000000          1.8787860619762848E-010
  0.15280000000000005          4.3736342424049784E-010
  0.15390000000000004          7.0824240055657495E-010
  0.15500000000000003          9.7167493284645469E-010
  0.15610000000000002          1.1914184581887422E-009
  0.15720000000000001          1.3262698170983718E-009
  0.15830000000000000          1.3337148587853784E-009
  0.15940000000000004          1.1746434376843575E-009
  0.16050000000000003          8.1883350656406097E-010
  0.16160000000000002          2.5075638166967769E-010
  0.16270000000000001         -5.2487758510066855E-010
  0.16380000000000000         -1.4785097866279738E-009
  0.16490000000000005         -2.5527796593181961E-009
  0.16600000000000004         -3.6619195819802496E-009
  0.16710000000000003         -4.6940878733669412E-009
  0.16820000000000002         -5.5170454997838928E-009
  0.16930000000000001         -5.9873232163769947E-009
  0.17040000000000000         -5.9627058413155489E-009
  0.17150000000000004         -5.3175012701579877E-009
  0.17260000000000003         -3.9596926362980311E-009
  0.17370000000000002         -1.8487263506558028E-009
  0.17480000000000001          9.8759800100258298E-010
  0.17590000000000000          4.4388640163183302E-009
  0.17700000000000005          8.3022020884045611E-009
  0.17810000000000004          1.2278613000390963E-008
  0.17920000000000003          1.5976966354763008E-008
  0.18030000000000002          1.8926826348551075E-008
  0.18140000000000001          2.0600770363878988E-008
  0.18250000000000000          2.0446288253731359E-008
  0.18360000000000004          1.7926729017595325E-008
  0.18470000000000003          1.2570153640102875E-008
  0.18580000000000002          4.0244209629613854E-009
  0.18690000000000001         -7.8835585825556058E-009
  0.18800000000000000         -2.3086659010173565E-008
  0.18910000000000005         -4.1216664596873615E-008
  0.19020000000000004         -6.1545541228785865E-008
  0.19130000000000003         -8.2930059084674818E-008
  0.19240000000000002         -1.0376001789981507E-007
  0.19350000000000001         -1.2190908873773874E-007
  0.19460000000000005         -1.3468580784205817E-007
  0.19570000000000004         -1.3878059721837089E-007
  0.19680000000000003         -1.3020291326807465E-007
  0.19790000000000002         -1.0420081406907057E-007
  0.19900000000000001         -5.5153459578019242E-008
  0.20010000000000000          2.3574622683349842E-008
  0.20120000000000005          1.3983022009884137E-007
  0.20230000000000004          3.0293317422629184E-007
  0.20340000000000003          5.2401854201410734E-007
  0.20450000000000002          8.1647570320672622E-007
  0.20560000000000000          1.1965020659104574E-006
  0.20670000000000005          1.6837902033853341E-006
  0.20780000000000004          2.3023685844284747E-006
  0.20890000000000003          3.0816176322868594E-006
