 -0.12000000000000000          0.0000000000000000
 -0.11889999999999999          0.0000000000000000
 -0.11780000000000000          0.0000000000000000
 -0.11670000000000000          0.0000000000000000
 -0.11559999999999999          0.0000000000000000
 -0.11449999999999999          0.0000000000000000
 -0.11340000000000000          0.0000000000000000
 -0.11230000000000000          0.0000000000000000
 -0.11119999999999999          0.0000000000000000
 -0.11009999999999999          0.0000000000000000
 -0.10900000000000000          0.0000000000000000
 -0.10790000000000000          1.2920756831510796E-185
 -0.10679999999999999          1.7695650833468670E-143
 -0.10569999999999999         -3.7955890540708417E-118
 -0.10460000000000000         -6.0878703467501820E-093
 -0.10349999999999999         -1.1858939275943566E-068
 -0.10239999999999999         -5.3384170970865071E-045
 -0.10130000000000000         -9.3620811729620889E-044
 -0.10020000000000000         -7.5766523412454322E-043
  -9.9099999999999994E-002    -3.5549420021870422E-042
  -9.7999999999999990E-002    -9.1693983086594651E-042
  -9.6899999999999986E-002    -1.5075749304836898E-042
  -9.5799999999999996E-002     9.3557300728706114E-041
  -9.4699999999999993E-002     4.1310209300173893E-040
  -9.3599999999999989E-002     8.3978247825880440E-040
  -9.2499999999999999E-002    -7.3618734590963056E-041
  -9.1399999999999995E-002    -6.3485296781270312E-039
  -9.0299999999999991E-002    -2.1614828165933432E-038
  -8.9200000000000002E-002    -3.2914694414796804E-038
  -8.8099999999999984E-002     2.0062736056978500E-038
  -8.6999999999999994E-002     2.4765425466056177E-037
  -8.5899999999999990E-002     6.6350516056001051E-037
  -8.4799999999999986E-002     7.6598966432153353E-037
  -8.3699999999999997E-002    -9.2947963971214129E-037
  -8.2599999999999993E-002    -6.3015566073605920E-036
  -8.1499999999999989E-002    -1.4066249752947724E-035
  -8.0399999999999999E-002    -1.2838793545810277E-035
  -7.9299999999999995E-002     2.2782883464228756E-035
  -7.8199999999999992E-002     1.1553124807536606E-034
  -7.7100000000000002E-002     2.2805284957822473E-034
  -7.5999999999999984E-002     1.7804704139621787E-034
  -7.4899999999999994E-002    -3.7125366500370088E-034
  -7.3799999999999991E-002    -1.6401061276390613E-033
  -7.2699999999999987E-002    -3.0259873047810219E-033
  -7.1599999999999997E-002    -2.2572388254356359E-033
  -7.0499999999999993E-002     4.3918912393994632E-033
  -6.9399999999999989E-002     1.8880928535372145E-032
  -6.8300000000000000E-002     3.4245196640687332E-032
  -6.7199999999999996E-002     2.7147710825261215E-032
  -6.6099999999999992E-002    -3.8510952312316895E-032
  -6.5000000000000002E-002    -1.8091044229730833E-031
  -6.3899999999999985E-002    -3.3759011310194515E-031
  -6.2799999999999995E-002    -3.0420896667421051E-031
  -6.1699999999999991E-002     2.3367903030747652E-031
  -6.0599999999999994E-002     1.4557260915394197E-030
  -5.9499999999999990E-002     2.9183811301365569E-030
  -5.8399999999999994E-002     3.0720325770514893E-030
  -5.7299999999999990E-002    -5.6624562954962431E-031
  -5.6199999999999986E-002    -9.7436939959294024E-030
  -5.5099999999999996E-002    -2.2051449328025957E-029
  -5.3999999999999992E-002    -2.7292311934852011E-029
  -5.2899999999999989E-002    -7.7586353868997216E-030
  -5.1799999999999985E-002     5.2059311287081877E-029
  -5.0699999999999995E-002     1.4392753997558013E-028
  -4.9599999999999991E-002     2.1035788268154147E-028
  -4.8499999999999988E-002     1.3850769165467480E-028
  -4.7399999999999998E-002    -1.9277620264869832E-028
  -4.6299999999999994E-002    -7.9197151741127308E-028
  -4.5199999999999990E-002    -1.3914548549756558E-027
  -4.4099999999999986E-002    -1.3590757782869973E-027
  -4.2999999999999997E-002     1.2626527760195481E-028
  -4.1899999999999993E-002     3.4800997801787127E-027
  -4.0799999999999989E-002     7.7763055660591340E-027
  -3.9699999999999985E-002     9.9802526772079957E-027
  -3.8599999999999995E-002     5.3049620230808207E-027
  -3.7499999999999992E-002    -1.0320807963469090E-026
  -3.6399999999999988E-002    -3.5548857044156036E-026
  -3.5299999999999984E-002    -5.8499218574454874E-026
  -3.4199999999999994E-002    -5.5481371663043662E-026
  -3.3099999999999991E-002     1.0319602474125660E-027
  -3.1999999999999987E-002     1.2218416036770920E-025
  -3.0899999999999997E-002     2.7489224544493445E-025
  -2.9799999999999993E-002     3.6247860898951497E-025
  -2.8699999999999989E-002     2.3919547140565642E-025
  -2.7599999999999986E-002    -2.1880880276025908E-025
  -2.6499999999999996E-002    -9.8807797524750699E-025
  -2.5399999999999992E-002    -1.7667393115503844E-024
  -2.4299999999999988E-002    -1.9382880043815656E-024
  -2.3199999999999985E-002    -7.5083081498977407E-025
  -2.2099999999999995E-002     2.2245839932446596E-024
  -2.0999999999999991E-002     6.4515824673087036E-024
  -1.9899999999999987E-002     9.9251788139831292E-024
  -1.8799999999999983E-002     9.3150664249499900E-024
  -1.7699999999999994E-002     1.2269968691528968E-024
  -1.6599999999999990E-002    -1.5362578013883244E-023
  -1.5499999999999986E-002    -3.6252240069090773E-023
  -1.4399999999999996E-002    -5.0433457645850708E-023
  -1.3299999999999992E-002    -4.1973581693506810E-023
  -1.2199999999999989E-002     3.0802981991353496E-024
  -1.1099999999999985E-002     8.5445398781995649E-023
  -9.9999999999999950E-003     1.8117002021630544E-022
  -8.8999999999999913E-003     2.3757759875518153E-022
  -7.7999999999999875E-003     1.8503548309749273E-022
  -6.6999999999999837E-003    -3.1017370604643928E-023
  -5.5999999999999939E-003    -4.0319528623164319E-022
  -4.4999999999999901E-003    -8.1933218675415117E-022
  -3.3999999999999864E-003    -1.0536483122868201E-021
  -2.2999999999999826E-003    -8.2192774649196138E-022
  -1.1999999999999927E-003     8.7733804963770319E-023
  -9.9999999999988987E-005     1.6350140848950663E-021
   1.0000000000000148E-003     3.3719857240877239E-021
   2.1000000000000185E-003     4.4204369147973880E-021
   3.2000000000000084E-003     3.6833353528549146E-021
   4.3000000000000121E-003     3.2239082436088933E-022
   5.4000000000000159E-003    -5.5970244509760785E-021
   6.5000000000000058E-003    -1.2547132797170562E-020
   7.6000000000000234E-003    -1.7425794335700489E-020
   8.7000000000000133E-003    -1.6225370570078956E-020
   9.8000000000000032E-003    -5.5953643100572252E-021
   1.0900000000000021E-002     1.4993754714338872E-020
   1.2000000000000011E-002     4.1256062931258734E-020
   1.3100000000000001E-002     6.3378680838931789E-020
   1.4200000000000018E-002     6.7672019358720405E-020
   1.5300000000000008E-002     4.1073208450584554E-020
   1.6400000000000026E-002    -2.2133425700427270E-020
   1.7500000000000016E-002    -1.1340516119734261E-019
   1.8600000000000005E-002    -2.0598939830568612E-019
   1.9700000000000023E-002    -2.5729792396186094E-019
   2.0800000000000013E-002    -2.1976773284077335E-019
   2.1900000000000003E-002    -5.9640879433042647E-020
   2.3000000000000020E-002     2.2064188702547203E-019
   2.4100000000000010E-002     5.6433597390427489E-019
   2.5200000000000000E-002     8.5638130981881287E-019
   2.6300000000000018E-002     9.4201156385435680E-019
   2.7400000000000008E-002     6.7123357943416739E-019
   2.8500000000000025E-002    -3.6460279185875332E-020
   2.9600000000000015E-002    -1.1233881344255464E-018
   3.0700000000000005E-002    -2.3462860633938529E-018
   3.1800000000000023E-002    -3.2790473491432224E-018
   3.2900000000000013E-002    -3.3887158554114760E-018
   3.4000000000000002E-002    -2.1909642950651339E-018
   3.5100000000000020E-002     5.3571909655246625E-019
   3.6200000000000010E-002     4.5299232550562031E-018
   3.7300000000000028E-002     8.9018289855395413E-018
   3.8400000000000017E-002     1.2154210164521104E-017
   3.9500000000000007E-002     1.2444488213237618E-017
   4.0600000000000025E-002     8.1087741667718436E-018
   4.1700000000000015E-002    -1.6191313416875287E-018
   4.2800000000000005E-002    -1.5867041610889559E-017
   4.3900000000000022E-002    -3.1628522720895854E-017
   4.5000000000000012E-002    -4.3816761540463121E-017
   4.6100000000000002E-002    -4.6115023462824562E-017
   4.7200000000000020E-002    -3.2691836920093104E-017
   4.8300000000000010E-002    -5.6054018829385961E-019
   4.9400000000000027E-002     4.7977028349673284E-017
   5.0500000000000017E-002     1.0364944405292438E-016
   5.1600000000000007E-002     1.5024664610832639E-016
   5.2700000000000025E-002     1.6711425663036883E-016
   5.3800000000000014E-002     1.3431059383188277E-016
   5.4900000000000004E-002     3.9775679217731923E-017
   5.6000000000000022E-002    -1.1310107714915350E-016
   5.7100000000000012E-002    -2.9990882322318103E-016
   5.8200000000000002E-002    -4.7429732515926069E-016
   5.9300000000000019E-002    -5.7384702907237796E-016
   6.0400000000000009E-002    -5.3345226503635397E-016
   6.1500000000000027E-002    -3.0481543792483623E-016
   6.2600000000000017E-002     1.2175019230262890E-016
   6.3700000000000007E-002     6.9902696895000661E-016
   6.4800000000000024E-002     1.3148375121935081E-015
   6.5900000000000014E-002     1.8001828641953913E-015
   6.7000000000000004E-002     1.9568267142487639E-015
   6.8100000000000022E-002     1.6031757672043995E-015
   6.9200000000000012E-002     6.3193661474293655E-016
   7.0300000000000029E-002    -9.3216382840422811E-016
   7.1400000000000019E-002    -2.8899720495330515E-015
   7.2500000000000009E-002    -4.8570415270601160E-015
   7.3600000000000027E-002    -6.2976298064421756E-015
   7.4700000000000016E-002    -6.6099132509290616E-015
   7.5800000000000006E-002    -5.2582258888497976E-015
   7.6900000000000024E-002    -1.9353856197633379E-015
   7.8000000000000014E-002     3.2745364441239329E-015
   7.9100000000000004E-002     9.7724515136916886E-015
   8.0200000000000021E-002     1.6402738816391309E-014
   8.1300000000000011E-002     2.1532271526478838E-014
   8.2400000000000029E-002     2.3272902519348631E-014
   8.3500000000000019E-002     1.9844699182393218E-014
   8.4600000000000009E-002     1.0043855137666938E-014
   8.5700000000000026E-002    -6.2568195380490900E-015
   8.6800000000000016E-002    -2.7678410760832533E-014
   8.7900000000000006E-002    -5.1099593603545660E-014
   8.9000000000000024E-002    -7.1733439408092545E-014
   9.0100000000000013E-002    -8.3608397211441886E-014
   9.1200000000000003E-002    -8.0487099584155884E-014
   9.2300000000000021E-002    -5.7173958537963371E-014
   9.3400000000000011E-002    -1.1063622632364543E-014
   9.4500000000000028E-002     5.6318054761073491E-014
   9.5600000000000018E-002     1.3811158115891247E-013
   9.6700000000000008E-002     2.2163407445870159E-013
   9.7800000000000026E-002     2.8895831201590183E-013
   9.8900000000000016E-002     3.1882023196093112E-013
  0.10000000000000001          2.8993145173514824E-013
  0.10110000000000002          1.8550978865399840E-013
  0.10220000000000001         -1.4782688145464054E-015
  0.10330000000000003         -2.6319741414231213E-013
  0.10440000000000002         -5.7305164948859327E-013
  0.10550000000000001         -8.8426390798645521E-013
  0.10660000000000003         -1.1320966729253697E-012
  0.10770000000000002         -1.2405411872805693E-012
  0.10880000000000001         -1.1336746948908182E-012
  0.10990000000000003         -7.5100853068032480E-013
  0.11100000000000002         -6.5126905390877945E-014
  0.11210000000000001          9.0109045248225493E-013
  0.11320000000000002          2.0611539757179457E-012
  0.11430000000000001          3.2593980885565840E-012
  0.11540000000000003          4.2767250951790000E-012
  0.11650000000000002          4.8501998073038468E-012
  0.11760000000000001          4.7072595896300022E-012
  0.11870000000000003          3.6128921726792733E-012
  0.11980000000000002          1.4253395955056051E-012
  0.12090000000000001         -1.8469116983340102E-012
  0.12200000000000003         -5.9964310107389465E-012
  0.12310000000000001         -1.0587381543146879E-011
  0.12420000000000003         -1.4956177804804850E-011
  0.12530000000000002         -1.8251274071208848E-011
  0.12640000000000001         -1.9517246284065391E-011
  0.12750000000000003         -1.7822584913502595E-011
  0.12860000000000002         -1.2423375889091775E-011
  0.12970000000000001         -2.9470465970102059E-012
  0.13080000000000003          1.0427360149530668E-011
  0.13190000000000002          2.6822075345040915E-011
  0.13300000000000001          4.4579578018117315E-011
  0.13410000000000000          6.1279618381606883E-011
  0.13520000000000004          7.3880159837098795E-011
  0.13630000000000003          7.8996471358489179E-011
  0.13740000000000002          7.3315741807064823E-011
  0.13850000000000001          5.4123685387567596E-011
  0.13960000000000000          1.9896723860659836E-011
  0.14070000000000005         -2.9108690336512483E-011
  0.14180000000000004         -9.0355817064620843E-011
  0.14290000000000003         -1.5871260246316779E-010
  0.14400000000000002         -2.2641693172079440E-010
  0.14510000000000001         -2.8340258796778400E-010
  0.14620000000000000         -3.1803714559345987E-010
  0.14730000000000004         -3.1827995159656456E-010
  0.14840000000000003         -2.7321412882333007E-010
  0.14950000000000002         -1.7484593631927347E-010
  0.15060000000000001         -2.0004376105181332E-011
  0.15170000000000000          1.8787860619799613E-010
  0.15280000000000005          4.3736342424091784E-010
  0.15390000000000004          7.0824240055700922E-010
  0.15500000000000003          9.7167493284685298E-010
  0.15610000000000002          1.1914184581890444E-009
  0.15720000000000001          1.3262698170985129E-009
  0.15830000000000000          1.3337148587852942E-009
  0.15940000000000004          1.1746434376839929E-009
  0.16050000000000003          8.1883350656337772E-010
  0.16160000000000002          2.5075638166866403E-010
  0.16270000000000001         -5.2487758510198966E-010
  0.16380000000000000         -1.4785097866295380E-009
  0.16490000000000005         -2.5527796593198947E-009
  0.16600000000000004         -3.6619195819819313E-009
  0.16710000000000003         -4.6940878733684185E-009
  0.16820000000000002         -5.5170454997849557E-009
  0.16930000000000001         -5.9873232163774273E-009
  0.17040000000000000         -5.9627058413151519E-009
  0.17150000000000004         -5.3175012701565989E-009
  0.17260000000000003         -3.9596926362955479E-009
  0.17370000000000002         -1.8487263506522052E-009
  0.17480000000000001          9.8759800100721396E-010
  0.17590000000000000          4.4388640163237970E-009
  0.17700000000000005          8.3022020884105498E-009
  0.17810000000000004          1.2278613000397046E-008
  0.17920000000000003          1.5976966354768673E-008
  0.18030000000000002          1.8926826348555737E-008
  0.18140000000000001          2.0600770363882042E-008
  0.18250000000000000          2.0446288253732216E-008
  0.18360000000000004          1.7926729017593472E-008
  0.18470000000000003          1.2570153640097921E-008
  0.18580000000000002          4.0244209629531351E-009
  0.18690000000000001         -7.8835585825670904E-009
  0.18800000000000000         -2.3086659010187924E-008
  0.18910000000000005         -4.1216664596890092E-008
  0.19020000000000004         -6.1545541228803269E-008
  0.19130000000000003         -8.2930059084691467E-008
  0.19240000000000002         -1.0376001789982861E-007
  0.19350000000000001         -1.2190908873774586E-007
  0.19460000000000005         -1.3468580784205476E-007
  0.19570000000000004         -1.3878059721835170E-007
  0.19680000000000003         -1.3020291326803343E-007
  0.19790000000000002         -1.0420081406899985E-007
  0.19900000000000001         -5.5153459577910286E-008
  0.20010000000000000          2.3574622683507258E-008
  0.20120000000000005          1.3983022009905911E-007
  0.20230000000000004          3.0293317422658359E-007
  0.20340000000000003          5.2401854201448988E-007
  0.20450000000000002          8.1647570320721993E-007
  0.20560000000000000          1.1965020659110880E-006
  0.20670000000000005          1.6837902033861337E-006
  0.20780000000000004          2.3023685844294806E-006
  0.20890000000000003          3.0816176322881135E-006
