 -0.12000000000000000          0.0000000000000000
 -0.11889999999999999          0.0000000000000000
 -0.11780000000000000          0.0000000000000000
 -0.11670000000000000          0.0000000000000000
 -0.11559999999999999          0.0000000000000000
 -0.11449999999999999          9.9978754343477671E-036
 -0.11340000000000000         -1.2963021797445354E-010
 -0.11230000000000000         -1.0528657052654817E-009
 -0.11119999999999999         -3.9547493918839421E-009
 -0.11009999999999999         -8.0794099135774674E-009
 -0.10900000000000000         -5.0985559977555436E-009
 -0.10790000000000000          2.3095871361664932E-008
 -0.10679999999999999          8.7548165807566956E-008
 -0.10569999999999999          1.4657257193463924E-007
 -0.10460000000000000          5.9212289720440085E-008
 -0.10349999999999999         -3.7722892302289081E-007
 -0.10239999999999999         -1.2086534480675821E-006
 -0.10130000000000000         -1.9483442678603358E-006
 -0.10020000000000000         -1.3355710409471577E-006
  -9.9099999999999994E-002     2.2310814817224058E-006
  -9.7999999999999990E-002     9.1612754758452880E-006
  -9.6899999999999986E-002     1.6398136531133998E-005
  -9.5799999999999996E-002     1.6066803537699356E-005
  -9.4699999999999993E-002    -2.3161942264373371E-006
  -9.3599999999999989E-002    -4.4180502091768363E-005
  -9.2499999999999999E-002    -9.8330153118574733E-005
  -9.1399999999999995E-002    -1.2839162153999845E-004
  -9.0299999999999991E-002    -7.8322414157963011E-005
  -8.9200000000000002E-002     9.8969210500301361E-005
  -8.8099999999999984E-002     3.9241580035524190E-004
  -8.6999999999999994E-002     6.8484086621441002E-004
  -8.5899999999999990E-002     7.4565429766386643E-004
  -8.4799999999999986E-002     3.0421555040517894E-004
  -8.3699999999999997E-002    -7.8523361470138157E-004
  -8.2599999999999993E-002    -2.3345286096900721E-003
  -8.1499999999999989E-002    -3.6815456634619634E-003
  -8.0399999999999999E-002    -3.7643036036982248E-003
  -7.9299999999999995E-002    -1.5099429340252647E-003
  -7.8199999999999992E-002     3.4984650986820062E-003
  -7.7100000000000002E-002     1.0311517842901262E-002
  -7.5999999999999984E-002     1.6260474250439139E-002
  -7.4899999999999994E-002     1.7381260588262618E-002
  -7.3799999999999991E-002     9.8184954618383193E-003
  -7.2699999999999987E-002    -8.0298603477665913E-003
  -7.1599999999999997E-002    -3.3391547634316752E-002
  -7.0499999999999993E-002    -5.8142600367165093E-002
  -6.9399999999999989E-002    -7.0015861392352344E-002
  -6.8300000000000000E-002    -5.6391854179283142E-002
  -6.7199999999999996E-002    -9.9663961813316812E-003
  -6.6099999999999992E-002     6.5581855803905048E-002
  -6.5000000000000002E-002    0.15248969292622408
  -6.3899999999999985E-002    0.22065974938936520
  -6.2799999999999995E-002    0.23514265952504010
  -6.1699999999999991E-002    0.16803314706390129
  -6.0599999999999994E-002     1.1267253450041351E-002
  -5.9499999999999990E-002   -0.21440737806770838
  -5.8399999999999994E-002   -0.45851531103618343
  -5.7299999999999990E-002   -0.64990037740485174
  -5.6199999999999986E-002   -0.71420844314565146
  -5.5099999999999996E-002   -0.59502772922107394
  -5.3999999999999992E-002   -0.27223893880719241
  -5.2899999999999989E-002    0.22811571664220651
  -5.1799999999999985E-002    0.83512319750946451
  -5.0699999999999995E-002     1.4440869939197276
  -4.9599999999999991E-002     1.9327888519155199
  -4.8499999999999988E-002     2.1774071042552086
  -4.7399999999999998E-002     2.0645885720924837
  -4.6299999999999994E-002     1.5002120027922690
  -4.5199999999999990E-002    0.41939511828617793
  -4.4099999999999986E-002    -1.1960683370064444
  -4.2999999999999997E-002    -3.2889276364816458
  -4.1899999999999993E-002    -5.6884508370120814
  -4.0799999999999989E-002    -8.0729947634840027
  -3.9699999999999985E-002    -9.9492763794669568
  -3.8599999999999995E-002    -10.666184031845690
  -3.7499999999999992E-002    -9.4765501570909496
  -3.6399999999999988E-002    -5.6503862860889269
  -3.5299999999999984E-002     1.3695775917192339
  -3.4199999999999994E-002     11.790734407356084
  -3.3099999999999991E-002     25.299385199476035
  -3.1999999999999987E-002     40.923346814907873
  -3.0899999999999997E-002     56.950227434837871
  -2.9799999999999993E-002     70.912803899232927
  -2.8699999999999989E-002     79.640885668636159
  -2.7599999999999986E-002     79.367804704298294
  -2.6499999999999996E-002     65.870736845781224
  -2.5399999999999992E-002     34.618022326236904
  -2.4299999999999988E-002    -19.106368097890307
  -2.3199999999999985E-002    -100.13095688992293
  -2.2099999999999995E-002    -213.40377025708543
  -2.0999999999999991E-002    -364.09796731083514
  -1.9899999999999987E-002    -557.82729484141942
  -1.8799999999999983E-002    -800.97442768020744
  -1.7699999999999994E-002    -1101.1303693870589
  -1.6599999999999990E-002    -1467.6435057802498
  -1.5499999999999986E-002    -1912.2823106930293
  -1.4399999999999996E-002    -2450.0227528708742
  -1.3299999999999992E-002    -3099.9746711717930
  -1.2199999999999989E-002    -3886.4556646601100
  -1.1099999999999985E-002    -4840.2047844771223
  -9.9999999999999950E-003    -5999.7056209391367
  -8.8999999999999913E-003    -7412.5688255218602
  -7.7999999999999875E-003    -9136.9195135923455
  -6.6999999999999837E-003    -11242.754133255768
  -5.5999999999999939E-003    -13813.274812689369
  -4.4999999999999901E-003    -16946.266795069136
  -3.3999999999999864E-003    -20755.637565870598
  -2.2999999999999826E-003    -25373.263624677831
  -1.1999999999999927E-003    -30951.277740391943
  -9.9999999999988987E-005    -37664.874461242383
   1.0000000000000148E-003    -45715.628730621022
   2.1000000000000185E-003    -55335.237272027676
   3.2000000000000084E-003    -66789.532671779016
   4.3000000000000121E-003    -80382.604677890442
   5.4000000000000159E-003    -96460.894161246382
   6.5000000000000058E-003    -115417.18616736191
   7.6000000000000234E-003    -137694.49097467601
   8.7000000000000133E-003    -163789.83644342361
   9.8000000000000032E-003    -194257.98223670127
   1.0900000000000021E-002    -229715.00586719831
   1.2000000000000011E-002    -270841.61927848117
   1.3100000000000001E-002    -318385.98115068389
   1.4200000000000018E-002    -373165.70256182482
   1.5300000000000008E-002    -436068.71973981062
   1.6400000000000026E-002    -508052.72897281707
   1.7500000000000016E-002    -590142.93170207005
   1.8600000000000005E-002    -683427.89999383141
   1.9700000000000023E-002    -789053.42131663242
   2.0800000000000013E-002    -908214.20109215647
   2.1900000000000003E-002    -1042143.2865773262
   2.3000000000000020E-002    -1192099.0313001785
   2.4100000000000010E-002    -1359349.3584180276
   2.5200000000000000E-002    -1545153.0219610592
   2.6300000000000018E-002    -1750737.5276846772
   2.7400000000000008E-002    -1977273.3813114569
   2.8500000000000025E-002    -2225844.3992313538
   2.9600000000000015E-002    -2497413.9544784185
   3.0700000000000005E-002    -2792787.2333661458
   3.1800000000000023E-002    -3112569.8212570059
   3.2900000000000013E-002    -3457123.1789041758
   3.4000000000000002E-002    -3826517.7667340022
   3.5100000000000020E-002    -4220484.6864330377
   3.6200000000000010E-002    -4638366.7270143460
   3.7300000000000028E-002    -5079069.6519533172
   3.8400000000000017E-002    -5541014.5027371580
   3.9500000000000007E-002    -6022091.6931650182
   4.0600000000000025E-002    -6519617.7840250088
   4.1700000000000015E-002    -7030296.0740754334
   4.2800000000000005E-002    -7550182.4807689087
   4.3900000000000022E-002    -8074658.5262505859
   4.5000000000000012E-002    -8598413.4851666782
   4.6100000000000002E-002    -9115437.8042410146
   4.7200000000000020E-002    -9619029.7356310803
   4.8300000000000010E-002    -10101816.770281428
   4.9400000000000027E-002    -10555793.003263151
   5.0500000000000017E-002    -10972373.121917011
   5.1600000000000007E-002    -11342463.370085552
   5.2700000000000025E-002    -11656549.642636046
   5.3800000000000014E-002    -11904802.770268524
   5.4900000000000004E-002    -12077200.977771142
   5.6000000000000022E-002    -12163669.333126178
   5.7100000000000012E-002    -12154235.666297778
   5.8200000000000002E-002    -12039201.894678421
   5.9300000000000019E-002    -11809328.979736300
   6.0400000000000009E-002    -11456032.939211702
   6.1500000000000027E-002    -10971588.555970268
   6.2600000000000017E-002    -10349336.754061813
   6.3700000000000007E-002    -9583891.1192192454
   6.4800000000000024E-002    -8671338.7503756043
   6.5900000000000014E-002    -7609430.5317372000
   6.7000000000000004E-002    -6397755.9792360673
   6.8100000000000022E-002    -5037897.9966489151
   6.9200000000000012E-002    -3533563.1279364876
   7.0300000000000029E-002    -1890683.1699080511
   7.1400000000000019E-002    -117484.28220343393
   7.2500000000000009E-002     1775480.0070628338
   7.3600000000000027E-002     3775335.2236149763
   7.4700000000000016E-002     5866934.7597007491
   7.5800000000000006E-002     8032953.5023451792
   7.6900000000000024E-002     10254027.898949850
   7.8000000000000014E-002     12508942.963914784
   7.9100000000000004E-002     14774865.324652100
   8.0200000000000021E-002     17027619.828447532
   8.1300000000000011E-002     19242005.666125186
   8.2400000000000029E-002     21392146.613421887
   8.3500000000000019E-002     23451868.996274233
   8.4600000000000009E-002     25395100.399444211
   8.5700000000000026E-002     27196281.887122795
   8.6800000000000016E-002     28830786.427340325
   8.7900000000000006E-002     30275336.124429714
   8.9000000000000024E-002     31508410.637222294
   9.0100000000000013E-002     32510638.781900465
   9.1200000000000003E-002     33265164.901639808
   9.2300000000000021E-002     33757981.331761882
   9.3400000000000011E-002     33978218.411131456
   9.4500000000000028E-002     33918384.129028983
   9.5600000000000018E-002     33574546.668508485
   9.6700000000000008E-002     32946454.700478211
   9.7800000000000026E-002     32037592.100505706
   9.8900000000000016E-002     30855165.591145903
  0.10000000000000001          29410025.496784627
  0.10110000000000002          27716521.264101643
  0.10220000000000001          25792294.661793392
  0.10330000000000003          23658014.688963216
  0.10440000000000002          21337059.256215453
  0.10550000000000001          18855149.690782271
  0.10660000000000003          16239945.053225324
  0.10770000000000002          13520604.111017777
  0.10880000000000001          10727323.563323630
  0.10990000000000003          7890861.7293006694
  0.11100000000000002          5042057.3786664903
  0.11210000000000001          2211353.6613324792
  0.11320000000000002         -571662.88353113725
  0.11430000000000001         -3278698.5778658758
  0.11540000000000003         -5883155.1931116693
  0.11650000000000002         -8360491.1357055521
  0.11760000000000001         -10688535.035896048
  0.11870000000000003         -12847747.287628522
  0.11980000000000002         -14821426.794238789
  0.12090000000000001         -16595861.635850167
  0.12200000000000003         -18160423.474378556
  0.12310000000000001         -19507606.277081948
  0.12420000000000003         -20633010.525617193
  0.12530000000000002         -21535274.701667704
  0.12640000000000001         -22215956.682076987
  0.12750000000000003         -22679368.792938065
  0.12860000000000002         -22932371.563870516
  0.12970000000000001         -22984132.469932586
  0.13080000000000003         -22845856.895196799
  0.13190000000000002         -22530499.013763145
  0.13300000000000001         -22052460.214822829
  0.13410000000000000         -21427282.199509535
  0.13520000000000004         -20671341.142611653
  0.13630000000000003         -19801548.540059466
  0.13740000000000002         -18835063.677407775
  0.13850000000000001         -17789022.072216138
  0.13960000000000000         -16680283.698738704
  0.14070000000000005         -15525204.212060684
  0.14180000000000004         -14339431.711583992
  0.14290000000000003         -13137730.856019899
  0.14400000000000002         -11933835.452249929
  0.14510000000000001         -10740330.071380714
  0.14620000000000000         -9568560.8141547721
  0.14730000000000004         -8428574.9823652934
  0.14840000000000003         -7329088.9830269990
  0.14950000000000002         -6277483.1844463116
  0.15060000000000001         -5279821.6406050166
  0.15170000000000000         -4340893.7197766500
  0.15280000000000005         -3464273.9379704422
  0.15390000000000004         -2652395.9452374899
  0.15500000000000003         -1906636.7823433096
  0.15610000000000002         -1227408.1776747762
  0.15720000000000001         -614252.56784340693
  0.15830000000000000         -65942.376337786875
  0.15940000000000004          419418.42121985421
  0.16050000000000003          844291.41826525982
  0.16160000000000002          1211600.9801483240
  0.16270000000000001          1524633.5115187501
  0.16380000000000000          1786941.2027079889
  0.16490000000000005          2002252.6970483710
  0.16600000000000004          2174392.6720471610
  0.16710000000000003          2307211.5246400838
  0.16820000000000002          2404525.4444524874
  0.16930000000000001          2470066.4080106481
  0.17040000000000000          2507441.1893168921
  0.17150000000000004          2520098.3659392134
  0.17260000000000003          2511302.3907432952
  0.17370000000000002          2484113.9454453154
  0.17480000000000001          2441375.8918790994
  0.17590000000000000          2385704.1842673565
  0.17700000000000005          2319483.1686997018
  0.17810000000000004          2244864.8452039761
  0.17920000000000003          2163771.9028422576
  0.18030000000000002          2077904.5593490526
  0.18140000000000001          1988751.2857526755
  0.18250000000000000          1897603.2496860512
  0.18360000000000004          1805571.7743788762
  0.18470000000000003          1713607.4566533936
  0.18580000000000002          1622519.1064482590
  0.18690000000000001          1532990.6433571142
  0.18800000000000000          1445594.6400312579
  0.18910000000000005          1360802.2229728305
  0.19020000000000004          1278990.1886205741
  0.19130000000000003          1200447.0314039176
  0.19240000000000002          1125379.7666927523
  0.19350000000000001          1053922.8727241943
  0.19460000000000005          986149.58554582950
  0.19570000000000004          922084.59906312323
  0.19680000000000003          861716.42811704148
  0.19790000000000002          805007.60005739366
  0.19900000000000001          751901.46458008664
  0.20010000000000000          702325.46993333567
  0.20120000000000005          656191.79868239979
  0.20230000000000004          613396.87767811946
  0.20340000000000003          573821.27612248610
  0.20450000000000002          537330.96454383980
  0.20560000000000000          503780.12451993302
  0.20670000000000005          473015.03095367039
  0.20780000000000004          444878.22055288142
  0.20890000000000003          419212.24621754634
