 -0.12000000000000000          0.0000000000000000
 -0.11889999999999999          0.0000000000000000
 -0.11780000000000000          0.0000000000000000
 -0.11670000000000000          0.0000000000000000
 -0.11559999999999999          0.0000000000000000
 -0.11449999999999999          0.0000000000000000
 -0.11340000000000000          0.0000000000000000
 -0.11230000000000000          0.0000000000000000
 -0.11119999999999999          0.0000000000000000
 -0.11009999999999999          0.0000000000000000
 -0.10900000000000000          0.0000000000000000
 -0.10790000000000000          0.0000000000000000
 -0.10679999999999999          0.0000000000000000
 -0.10569999999999999          0.0000000000000000
 -0.10460000000000000          0.0000000000000000
 -0.10349999999999999          0.0000000000000000
 -0.10239999999999999          0.0000000000000000
 -0.10130000000000000          0.0000000000000000
 -0.10020000000000000          0.0000000000000000
  -9.9099999999999994E-002     0.0000000000000000
  -9.7999999999999990E-002     0.0000000000000000
  -9.6899999999999986E-002     0.0000000000000000
  -9.5799999999999996E-002     0.0000000000000000
  -9.4699999999999993E-002     0.0000000000000000
  -9.3599999999999989E-002     0.0000000000000000
  -9.2499999999999999E-002     0.0000000000000000
  -9.1399999999999995E-002     1.6930164346027181E-038
  -9.0299999999999991E-002    -1.7460892126405562E-038
  -8.9200000000000002E-002    -1.4895529142312569E-037
  -8.8099999999999984E-002    -5.1213683212489787E-037
  -8.6999999999999994E-002    -1.8025698084137858E-037
  -8.5899999999999990E-002     2.2368070463980151E-036
  -8.4799999999999986E-002     5.5806196112316477E-036
  -8.3699999999999997E-002     7.0709350111937008E-036
  -8.2599999999999993E-002     4.8542564401450016E-036
  -8.1499999999999989E-002     1.0051565811117807E-035
  -8.0399999999999999E-002     1.5248875182090612E-035
  -7.9299999999999995E-002    -2.1680142815669510E-034
  -7.8199999999999992E-002    -1.1012826373899918E-033
  -7.7100000000000002E-002    -6.8090202622468875E-034
  -7.5999999999999984E-002    -1.2095118716381383E-033
  -7.4899999999999994E-002    -1.2636264887622116E-033
  -7.3799999999999991E-002     1.0070144189387754E-032
  -7.2699999999999987E-002     1.7607953224893701E-032
  -7.1599999999999997E-002     1.3757877148796602E-032
  -7.0499999999999993E-002    -5.2760469672445072E-033
  -6.9399999999999989E-002    -1.1541305638421380E-031
  -6.8300000000000000E-002    -1.7999853637503045E-031
  -6.7199999999999996E-002     1.1982831896039389E-031
  -6.6099999999999992E-002     4.1965519780570524E-031
  -6.5000000000000002E-002     9.6242358651540321E-031
  -6.3899999999999985E-002    -7.3928015217564484E-032
  -6.2799999999999995E-002    -2.0820459385267229E-030
  -6.1699999999999991E-002    -9.3192364585167975E-031
  -6.0599999999999994E-002     7.9923286551956005E-030
  -5.9499999999999990E-002     1.1085983779102121E-029
  -5.8399999999999994E-002    -1.3686207375776402E-030
  -5.7299999999999990E-002    -9.9361599679526388E-030
  -5.6199999999999986E-002    -1.4616633159706490E-029
  -5.5099999999999996E-002    -3.4845369001312161E-029
  -5.3999999999999992E-002    -2.3977582552479731E-029
  -5.2899999999999989E-002     1.7986723177525264E-029
  -5.1799999999999985E-002     4.4402766257678438E-029
  -5.0699999999999995E-002     8.6257707754864850E-030
  -4.9599999999999991E-002    -2.7151227715971006E-029
  -4.8499999999999988E-002    -6.2266557326853465E-028
  -4.7399999999999998E-002    -1.2803729603927090E-027
  -4.6299999999999994E-002    -1.6893082654898757E-027
  -4.5199999999999990E-002    -8.5438277526601552E-028
  -4.4099999999999986E-002     2.2931508587434389E-028
  -4.2999999999999997E-002     3.5519625519262466E-027
  -4.1899999999999993E-002     7.8696987312721687E-027
  -4.0799999999999989E-002     9.2021695411080106E-027
  -3.9699999999999985E-002    -4.1133433973239267E-028
  -3.8599999999999995E-002    -1.4005193073748873E-026
  -3.7499999999999992E-002    -5.7071028115988517E-027
  -3.6399999999999988E-002     1.4532050469335445E-026
  -3.5299999999999984E-002     3.0790852748953554E-026
  -3.4199999999999994E-002     4.7049648865595841E-026
  -3.3099999999999991E-002     8.7190571019806679E-026
  -3.1999999999999987E-002     4.7724399191983887E-026
  -3.0899999999999997E-002    -5.5427437960704495E-026
  -2.9799999999999993E-002    -1.5061855616257699E-025
  -2.8699999999999989E-002    -1.1843834371471830E-025
  -2.7599999999999986E-002     1.0479888935964043E-025
  -2.6499999999999996E-002     4.2356466356212831E-025
  -2.5399999999999992E-002     4.8758772716134726E-025
  -2.4299999999999988E-002     3.2871094363460917E-025
  -2.3199999999999985E-002     1.6983414778191945E-025
  -2.2099999999999995E-002     1.3832869490491254E-025
  -2.0999999999999991E-002     1.7050891967872287E-025
  -1.9899999999999987E-002     5.8480319803148495E-025
  -1.8799999999999983E-002     1.2538401746615643E-024
  -1.7699999999999994E-002     2.1776197632872995E-024
  -1.6599999999999990E-002     1.8276859961119163E-024
  -1.5499999999999986E-002    -1.5791599038722415E-024
  -1.4399999999999996E-002    -5.4954910278477109E-024
  -1.3299999999999992E-002    -6.8643946513600383E-024
  -1.2199999999999989E-002    -3.1384450488831186E-024
  -1.1099999999999985E-002     9.2487551363831344E-024
  -9.9999999999999950E-003     1.7560072149212311E-023
  -8.8999999999999913E-003     7.5299139986061240E-024
  -7.7999999999999875E-003    -2.0841717737713615E-023
  -6.6999999999999837E-003    -5.5327176106233620E-023
  -5.5999999999999939E-003    -4.3958945777304311E-023
  -4.4999999999999901E-003     2.8547531940965921E-023
  -3.3999999999999864E-003     1.3366107030556733E-022
  -2.2999999999999826E-003     2.1024342192715901E-022
  -1.1999999999999927E-003     9.3221346622424308E-023
  -9.9999999999988987E-005    -2.0313958432523723E-022
   1.0000000000000148E-003    -5.3210760747366617E-022
   2.1000000000000185E-003    -6.0021909496434771E-022
   3.2000000000000084E-003    -8.9555200762387420E-023
   4.3000000000000121E-003     8.2054529521993477E-022
   5.4000000000000159E-003     1.3067539207584174E-021
   6.5000000000000058E-003     6.1910823681123276E-022
   7.6000000000000234E-003    -1.3076059410231541E-021
   8.7000000000000133E-003    -2.9571601885607036E-021
   9.8000000000000032E-003    -2.4546479664347393E-021
   1.0900000000000021E-002     1.1129280952858754E-021
   1.2000000000000011E-002     5.2022168244252014E-021
   1.3100000000000001E-002     5.7373360377777372E-021
   1.4200000000000018E-002     4.6839788810347096E-022
   1.5300000000000008E-002    -7.8003907245574778E-021
   1.6400000000000026E-002    -1.2025903943291105E-020
   1.7500000000000016E-002    -5.8171553318180531E-021
   1.8600000000000005E-002     9.9780697028997668E-021
   1.9700000000000023E-002     2.4990724120902386E-020
   2.0800000000000013E-002     2.3047707558170868E-020
   2.1900000000000003E-002    -3.4158245680792550E-021
   2.3000000000000020E-002    -4.1748328965782688E-020
   2.4100000000000010E-002    -5.9603604099107992E-020
   2.5200000000000000E-002    -2.9461278286994910E-020
   2.6300000000000018E-002     4.1374663048758929E-020
   2.7400000000000008E-002     1.0490662542506368E-019
   2.8500000000000025E-002     9.5920477754759968E-020
   2.9600000000000015E-002    -5.4088694019988923E-021
   3.0700000000000005E-002    -1.4325813074304882E-019
   3.1800000000000023E-002    -2.0598071627701604E-019
   3.2900000000000013E-002    -1.0488542892186700E-019
   3.4000000000000002E-002     1.2507296564167971E-019
   3.5100000000000020E-002     3.2164176241512598E-019
   3.6200000000000010E-002     3.0952532420002580E-019
   3.7300000000000028E-002     3.6552387485682309E-020
   3.8400000000000017E-002    -3.3241573819484088E-019
   3.9500000000000007E-002    -4.9478547632531820E-019
   4.0600000000000025E-002    -2.7734812761868373E-019
   4.1700000000000015E-002     2.6146439870128736E-019
   4.2800000000000005E-002     7.6897423929314392E-019
   4.3900000000000022E-002     8.3824513552290183E-019
   4.5000000000000012E-002     2.5641815752501347E-019
   4.6100000000000002E-002    -7.0938967973517026E-019
   4.7200000000000020E-002    -1.4832071132136004E-018
   4.8300000000000010E-002    -1.3888940477218356E-018
   4.9400000000000027E-002    -1.5098605269112841E-019
   5.0500000000000017E-002     1.7714093497338401E-018
   5.1600000000000007E-002     3.1929601778465396E-018
   5.2700000000000025E-002     2.7446915651596589E-018
   5.3800000000000014E-002    -9.0935997243440528E-020
   5.4900000000000004E-002    -3.9950317229055201E-018
   5.6000000000000022E-002    -6.3298147626951387E-018
   5.7100000000000012E-002    -4.4575038538905488E-018
   5.8200000000000002E-002     2.1561349817401629E-018
   5.9300000000000019E-002     9.9551054371858872E-018
   6.0400000000000009E-002     1.2545294139581360E-017
   6.1500000000000027E-002     5.3857101026062092E-018
   6.2600000000000017E-002    -9.1863734067158565E-018
   6.3700000000000007E-002    -2.0486271033482279E-017
   6.4800000000000024E-002    -1.7161509551192765E-017
   6.5900000000000014E-002     3.0584068435056013E-018
   6.7000000000000004E-002     2.7552196718420501E-017
   6.8100000000000022E-002     3.5685067933905146E-017
   6.9200000000000012E-002     1.4000998014415455E-017
   7.0300000000000029E-002    -2.7449735510304782E-017
   7.1400000000000019E-002    -5.8082233715864550E-017
   7.2500000000000009E-002    -4.6243111937025835E-017
   7.3600000000000027E-002     1.1273024183025799E-017
   7.4700000000000016E-002     7.9340285767554730E-017
   7.5800000000000006E-002     1.0199764948299881E-016
   7.6900000000000024E-002     4.6923951064328431E-017
   7.8000000000000014E-002    -6.5045684957797253E-017
   7.9100000000000004E-002    -1.5851746475320380E-016
   8.0200000000000021E-002    -1.5769691482044100E-016
   8.1300000000000011E-002    -4.0413311724597057E-017
   8.2400000000000029E-002     1.3243063668789447E-016
   8.3500000000000019E-002     2.5585792195140656E-016
   8.4600000000000009E-002     2.4065143061692573E-016
   8.5700000000000026E-002     6.7845863384856663E-017
   8.6800000000000016E-002    -1.8723176255111638E-016
   8.7900000000000006E-002    -3.9369408468066156E-016
   8.9000000000000024E-002    -3.9981860934534298E-016
   9.0100000000000013E-002    -1.2920986008040900E-016
   9.1200000000000003E-002     3.3586013088001603E-016
   9.2300000000000021E-002     7.2079502138334126E-016
   9.3400000000000011E-002     6.6765794468455963E-016
   9.4500000000000028E-002     1.1370517344382524E-017
   9.5600000000000018E-002    -9.4675921833223264E-016
   9.6700000000000008E-002    -1.4550637958586567E-015
   9.7800000000000026E-002    -7.8164258606141959E-016
   9.8900000000000016E-002     1.0200811431036435E-015
  0.10000000000000001          2.7203003084575730E-015
  0.10110000000000002          2.5506999602200285E-015
  0.10220000000000001         -2.8152336436034668E-016
  0.10330000000000003         -4.2933359944736117E-015
  0.10440000000000002         -6.0912815861170061E-015
  0.10550000000000001         -2.8679612328118102E-015
  0.10660000000000003          4.5544394061789069E-015
  0.10770000000000002          1.0946836122847133E-014
  0.10880000000000001          9.8813254264086894E-015
  0.10990000000000003         -5.8670584124516367E-016
  0.11100000000000002         -1.4316771103058470E-014
  0.11210000000000001         -1.9935025445715418E-014
  0.11320000000000002         -9.6544722154420955E-015
  0.11430000000000001          1.2246741164581576E-014
  0.11540000000000003          2.9561822553671874E-014
  0.11650000000000002          2.5533181390599916E-014
  0.11760000000000001         -2.0530503160162347E-015
  0.11870000000000003         -3.4639713921693835E-014
  0.11980000000000002         -4.4549209969862308E-014
  0.12090000000000001         -1.7639290025915459E-014
  0.12200000000000003          3.0793855692375777E-014
  0.12310000000000001          6.3311104948025887E-014
  0.12420000000000003          4.8456735585872268E-014
  0.12530000000000002         -1.0623670183580042E-014
  0.12640000000000001         -7.2738527440857625E-014
  0.12750000000000003         -8.7261666263053345E-014
  0.12860000000000002         -3.4206321043901700E-014
  0.12970000000000001          5.5775283209266030E-014
  0.13080000000000003          1.1854086505794226E-013
  0.13190000000000002          1.0106982796260350E-013
  0.13300000000000001          3.0619122959752582E-015
  0.13410000000000000         -1.1764881061547550E-013
  0.13520000000000004         -1.7592680513333486E-013
  0.13630000000000003         -1.1552789432565935E-013
  0.13740000000000002          5.2401666176832978E-014
  0.13850000000000001          2.3728995114311036E-013
  0.13960000000000000          3.1170714880762729E-013
  0.14070000000000005          1.7198623167985483E-013
  0.14180000000000004         -1.7934270605049485E-013
  0.14290000000000003         -5.5440022147731916E-013
  0.14400000000000002         -6.4015931227831557E-013
  0.14510000000000001         -2.1414770998151589E-013
  0.14620000000000000          5.9617057384525607E-013
  0.14730000000000004          1.2245928012952212E-012
  0.14840000000000003          1.0253196945989029E-012
  0.14950000000000002         -1.1707757159584720E-013
  0.15060000000000001         -1.5067440567798074E-012
  0.15170000000000000         -1.9948626084342891E-012
  0.15280000000000005         -9.7091909165292201E-013
  0.15390000000000004          1.0366307421835752E-012
  0.15500000000000003          2.4774308039071657E-012
  0.15610000000000002          1.9203835570358319E-012
  0.15720000000000001         -6.0825281443521728E-013
  0.15830000000000000         -3.3688407966026013E-012
  0.15940000000000004         -3.5560786086630269E-012
  0.16050000000000003         -1.4584253943406011E-014
  0.16160000000000002          5.0630428669040661E-012
  0.16270000000000001          7.1734389262001486E-012
  0.16380000000000000          3.0955407508137522E-012
  0.16490000000000005         -5.2975332454074930E-012
  0.16600000000000004         -1.2010051807231914E-011
  0.16710000000000003         -1.1020024302810238E-011
  0.16820000000000002         -2.3099460712272535E-012
  0.16930000000000001          9.6036911062524766E-012
  0.17040000000000000          1.6930812654636362E-011
  0.17150000000000004          1.3439357265943030E-011
  0.17260000000000003          3.1972211336772638E-013
  0.17370000000000002         -1.0979312077552539E-011
  0.17480000000000001         -9.5341338990362345E-012
  0.17590000000000000          4.0250467889246799E-012
  0.17700000000000005          1.5133418823642941E-011
  0.17810000000000004          9.9964212255110318E-012
  0.17920000000000003         -8.3049261911938288E-012
  0.18030000000000002         -2.6186134857719701E-011
  0.18140000000000001         -2.5441189085984028E-011
  0.18250000000000000         -7.4833195196077895E-013
  0.18360000000000004          3.2067209998487556E-011
  0.18470000000000003          3.7993871937480606E-011
  0.18580000000000002          1.6751551534799347E-011
  0.18690000000000001         -2.0456044844130439E-011
  0.18800000000000000         -4.1418275059657006E-011
  0.18910000000000005         -4.4454578906893971E-011
  0.19020000000000004         -3.1245516590727718E-011
  0.19130000000000003         -2.4758674277425285E-011
  0.19240000000000002         -2.5554235810743009E-011
  0.19350000000000001         -2.0187762919676722E-011
  0.19460000000000005         -1.2580550316776407E-011
  0.19570000000000004          5.1099948925048544E-012
  0.19680000000000003          3.7365353866558593E-011
  0.19790000000000002          8.4185519666490904E-011
  0.19900000000000001          1.2204272314964015E-010
  0.20010000000000000          1.0836290198490417E-010
  0.20120000000000005          1.8497897658065199E-011
  0.20230000000000004         -1.3634858520017445E-010
  0.20340000000000003         -2.5086174804123118E-010
  0.20450000000000002         -2.0628235231079373E-010
  0.20560000000000000         -3.3980741831474148E-011
  0.20670000000000005          2.4363569495200466E-010
  0.20780000000000004          4.5851145102915325E-010
  0.20890000000000003          4.2466496985582580E-010
