 -0.12000000000000000          0.0000000000000000
 -0.11889999999999999          0.0000000000000000
 -0.11780000000000000          0.0000000000000000
 -0.11670000000000000          0.0000000000000000
 -0.11559999999999999          0.0000000000000000
 -0.11449999999999999          0.0000000000000000
 -0.11340000000000000          0.0000000000000000
 -0.11230000000000000          0.0000000000000000
 -0.11119999999999999          0.0000000000000000
 -0.11009999999999999          0.0000000000000000
 -0.10900000000000000          0.0000000000000000
 -0.10790000000000000          1.0893719974239142E-026
 -0.10679999999999999          1.1042542990536799E-024
 -0.10569999999999999          6.2965496948157026E-024
 -0.10460000000000000          8.3358938165591559E-023
 -0.10349999999999999          5.9673891832955125E-022
 -0.10239999999999999          1.6222207346643953E-021
 -0.10130000000000000          4.9038734166029598E-022
 -0.10020000000000000         -4.5939189859978235E-022
  -9.9099999999999994E-002     3.8468431821213490E-020
  -9.7999999999999990E-002     1.3264995297736252E-019
  -9.6899999999999986E-002    -1.3607590243000988E-019
  -9.5799999999999996E-002    -1.6698024123957359E-018
  -9.4699999999999993E-002    -2.6277826136699361E-018
  -9.3599999999999989E-002     7.3657563231121555E-018
  -9.2499999999999999E-002     3.5559065165556168E-017
  -9.1399999999999995E-002     2.9512083720217917E-017
  -9.0299999999999991E-002    -1.5636600106717788E-016
  -8.9200000000000002E-002    -5.1385910195716252E-016
  -8.8099999999999984E-002    -2.6148108252065224E-016
  -8.6999999999999994E-002     2.0874779701573858E-015
  -8.5899999999999990E-002     5.7487850844441506E-015
  -8.4799999999999986E-002     2.5246016045657026E-015
  -8.3699999999999997E-002    -2.0114294886804107E-014
  -8.2599999999999993E-002    -5.2726106900685688E-014
  -8.1499999999999989E-002    -2.7845965889562209E-014
  -8.0399999999999999E-002     1.4780903822946001E-013
  -7.9299999999999995E-002     4.0561594339370843E-013
  -7.8199999999999992E-002     2.8708535115135048E-013
  -7.7100000000000002E-002    -8.3746112258462069E-013
  -7.5999999999999984E-002    -2.6347932082643188E-012
  -7.4899999999999994E-002    -2.4688226723384998E-012
  -7.3799999999999991E-002     3.5100553106431898E-012
  -7.2699999999999987E-002     1.4430245193208791E-011
  -7.1599999999999997E-002     1.7365655788359469E-011
  -7.0499999999999993E-002    -8.7613622953841563E-012
  -6.9399999999999989E-002    -6.6037113277683801E-011
  -6.8300000000000000E-002    -1.0066152772436610E-010
  -6.7199999999999996E-002    -1.0450403563344590E-011
  -6.6099999999999992E-002     2.4676577448090597E-010
  -6.5000000000000002E-002     4.8497988958118299E-010
  -6.3899999999999985E-002     2.6969557143097234E-010
  -6.2799999999999995E-002    -7.0803846119460445E-010
  -6.1699999999999991E-002    -1.9453785249368138E-009
  -6.0599999999999994E-002    -1.8375914123680559E-009
  -5.9499999999999990E-002     1.2357608270008313E-009
  -5.8399999999999994E-002     6.4266996169237700E-009
  -5.7299999999999990E-002     8.6617930605825677E-009
  -5.6199999999999986E-002     1.1249440268201738E-009
  -5.5099999999999996E-002    -1.6843952010958674E-008
  -5.3999999999999992E-002    -3.1905312170010802E-008
  -5.2899999999999989E-002    -2.0189329319464377E-008
  -5.1799999999999985E-002     3.0962006292156730E-008
  -5.0699999999999995E-002     9.4418965090881102E-008
  -4.9599999999999991E-002     9.9866355185440625E-008
  -4.8499999999999988E-002    -1.5820745602468378E-008
  -4.7399999999999998E-002    -2.2066656413244345E-007
  -4.6299999999999994E-002    -3.4197628906440514E-007
  -4.5199999999999990E-002    -1.5808916487003444E-007
  -4.4099999999999986E-002     3.7098882899044838E-007
  -4.2999999999999997E-002     9.0493404059088789E-007
  -4.1899999999999993E-002     8.2448576677052188E-007
  -4.0799999999999989E-002    -2.5597381636544014E-007
  -3.9699999999999985E-002    -1.8636364984558895E-006
  -3.8599999999999995E-002    -2.5816275410761591E-006
  -3.7499999999999992E-002    -9.8561713457456790E-007
  -3.6399999999999988E-002     2.7648070499708410E-006
  -3.5299999999999984E-002     6.0451075114542618E-006
  -3.4199999999999994E-002     5.0464745982026216E-006
  -3.3099999999999991E-002    -1.8355449356022291E-006
  -3.1999999999999987E-002    -1.0934436431853101E-005
  -3.0899999999999997E-002    -1.4100964108365588E-005
  -2.9799999999999993E-002    -4.7323810576926917E-006
  -2.8699999999999989E-002     1.4456803000939544E-005
  -2.7599999999999986E-002     2.9222637749626301E-005
  -2.6499999999999996E-002     2.2436923245550133E-005
  -2.5399999999999992E-002    -9.8256614364800043E-006
  -2.4299999999999988E-002    -4.7735877160448581E-005
  -2.3199999999999985E-002    -5.6340311857638881E-005
  -2.2099999999999995E-002    -1.3724080417887308E-005
  -2.0999999999999991E-002     6.0945967561565340E-005
  -1.9899999999999987E-002     1.0813036351464689E-004
  -1.8799999999999983E-002     6.9596855610143393E-005
  -1.7699999999999994E-002    -5.2973562560509890E-005
  -1.6599999999999990E-002    -1.7410886357538402E-004
  -1.5499999999999986E-002    -1.7410400323569775E-004
  -1.4399999999999996E-002    -3.2381954042648431E-006
  -1.3299999999999992E-002     2.4049513740465045E-004
  -1.2199999999999989E-002     3.4785625757649541E-004
  -1.1099999999999985E-002     1.5868007903918624E-004
  -9.9999999999999950E-003    -2.6248989161103964E-004
  -8.8999999999999913E-003    -6.0089922044426203E-004
  -7.7999999999999875E-003    -4.9822317669168115E-004
  -6.6999999999999837E-003     1.2081917520845309E-004
  -5.5999999999999939E-003     8.7058090139180422E-004
  -4.4999999999999901E-003     1.0984364198520780E-003
  -3.3999999999999864E-003     3.9916907553561032E-004
  -2.2999999999999826E-003    -9.2155375750735402E-004
  -1.1999999999999927E-003    -1.8835971131920815E-003
  -9.9999999999988987E-005    -1.5006556641310453E-003
   1.0000000000000148E-003     3.2899240613915026E-004
   2.1000000000000185E-003     2.4515599943697453E-003
   3.2000000000000084E-003     3.1021160539239645E-003
   4.3000000000000121E-003     1.2869146885350347E-003
   5.4000000000000159E-003    -2.1199765615165234E-003
   6.5000000000000058E-003    -4.6237725764513016E-003
   7.6000000000000234E-003    -3.8508116267621517E-003
   8.7000000000000133E-003     3.5266307531856000E-004
   9.8000000000000032E-003     5.2204309031367302E-003
   1.0900000000000021E-002     6.7404690198600292E-003
   1.2000000000000011E-002     2.8351887594908476E-003
   1.3100000000000001E-002    -4.3627745471894741E-003
   1.4200000000000018E-002    -9.3533312901854515E-003
   1.5300000000000008E-002    -7.2553791105747223E-003
   1.6400000000000026E-002     1.7804822418838739E-003
   1.7500000000000016E-002     1.1478083208203316E-002
   1.8600000000000005E-002     1.3414490036666393E-002
   1.9700000000000023E-002     3.8381889462471008E-003
   2.0800000000000013E-002    -1.1896202340722084E-002
   2.1900000000000003E-002    -2.1676594391465187E-002
   2.3000000000000020E-002    -1.5367288142442703E-002
   2.4100000000000010E-002     6.0262125916779041E-003
   2.5200000000000000E-002     2.8451366350054741E-002
   2.6300000000000018E-002     3.3447336405515671E-002
   2.7400000000000008E-002     1.2466538697481155E-002
   2.8500000000000025E-002    -2.3800589144229889E-002
   2.9600000000000015E-002    -4.9890711903572083E-002
   3.0700000000000005E-002    -4.3022722005844116E-002
   3.1800000000000023E-002    -1.8898147391155362E-003
   3.2900000000000013E-002     4.8217657953500748E-002
   3.4000000000000002E-002     7.0618458092212677E-002
   3.5100000000000020E-002     4.4113636016845703E-002
   3.6200000000000010E-002    -1.8073236569762230E-002
   3.7300000000000028E-002    -7.3694713413715363E-002
   3.8400000000000017E-002    -8.0540232360363007E-002
   3.9500000000000007E-002    -2.9265930876135826E-002
   4.0600000000000025E-002     4.5799013227224350E-002
   4.1700000000000015E-002     8.9336544275283813E-002
   4.2800000000000005E-002     6.6906623542308807E-002
   4.3900000000000022E-002    -5.8771045878529549E-003
   4.5000000000000012E-002    -7.2274617850780487E-002
   4.6100000000000002E-002    -7.8284852206707001E-002
   4.7200000000000020E-002    -1.8436133861541748E-002
   4.8300000000000010E-002     5.5485505610704422E-002
   4.9400000000000027E-002     7.5108297169208527E-002
   5.0500000000000017E-002     1.6442306339740753E-002
   5.1600000000000007E-002    -7.0635266602039337E-002
   5.2700000000000025E-002    -9.6953958272933960E-002
   5.3800000000000014E-002    -1.3426608406007290E-002
   5.4900000000000004E-002    0.12895740568637848
   5.6000000000000022E-002    0.19947589933872223
   5.7100000000000012E-002     9.0475447475910187E-002
   5.8200000000000002E-002   -0.16993217170238495
   5.9300000000000019E-002   -0.39608383178710938
   6.0400000000000009E-002   -0.36065295338630676
   6.1500000000000027E-002     1.4123165979981422E-002
   6.2600000000000017E-002    0.53552991151809692
   6.3700000000000007E-002    0.81526899337768555
   6.4800000000000024E-002    0.53369277715682983
   6.5900000000000014E-002   -0.27352252602577209
   6.7000000000000004E-002    -1.1360114812850952
   6.8100000000000022E-002    -1.3970947265625000
   6.9200000000000012E-002   -0.67745387554168701
   7.0300000000000029E-002    0.75632762908935547
   7.1400000000000019E-002     2.0275993347167969
   7.2500000000000009E-002     2.1572074890136719
   7.3600000000000027E-002    0.76521992683410645
   7.4700000000000016E-002    -1.5150930881500244
   7.5800000000000006E-002    -3.2751741409301758
   7.6900000000000024E-002    -3.1749384403228760
   7.8000000000000014E-002   -0.89739668369293213
   7.9100000000000004E-002     2.4450647830963135
   8.0200000000000021E-002     4.8276057243347168
   8.1300000000000011E-002     4.5344347953796387
   8.2400000000000029E-002     1.3451762199401855
   8.3500000000000019E-002    -3.1241340637207031
   8.4600000000000009E-002    -6.2533931732177734
   8.5700000000000026E-002    -5.9933800697326660
   8.6800000000000016E-002    -2.2145078182220459
   8.7900000000000006E-002     3.0691025257110596
   8.9000000000000024E-002     6.8215684890747070
   9.0100000000000013E-002     6.8076725006103516
   9.1200000000000003E-002     2.9845826625823975
   9.2300000000000021E-002    -2.4323766231536865
   9.3400000000000011E-002    -6.2989592552185059
   9.4500000000000028E-002    -6.4477491378784180
   9.5600000000000018E-002    -2.9816193580627441
   9.6700000000000008E-002     1.8455724716186523
   9.7800000000000026E-002     5.0697698593139648
   9.8900000000000016E-002     4.8696198463439941
  0.10000000000000001          1.6905792951583862
  0.10110000000000002         -2.0260407924652100
  0.10220000000000001         -3.3218579292297363
  0.10330000000000003        -0.52406489849090576
  0.10440000000000002          5.6574482917785645
  0.10550000000000001          12.332788467407227
  0.10660000000000003          15.808002471923828
  0.10770000000000002          13.405447959899902
  0.10880000000000001          4.7867312431335449
  0.10990000000000003         -7.9345059394836426
  0.11100000000000002         -21.454376220703125
  0.11210000000000001         -33.416400909423828
  0.11320000000000002         -44.384845733642578
  0.11430000000000001         -58.470252990722656
  0.11540000000000003         -81.877990722656250
  0.11650000000000002         -119.70382690429688
  0.11760000000000001         -172.54209899902344
  0.11870000000000003         -235.13421630859375
  0.11980000000000002         -298.70584106445312
  0.12090000000000001         -356.67373657226562
  0.12200000000000003         -411.03778076171875
  0.12310000000000001         -475.46166992187500
  0.12420000000000003         -572.11547851562500
  0.12530000000000002         -722.75616455078125
  0.12640000000000001         -938.51177978515625
  0.12750000000000003         -1214.7862548828125
  0.12860000000000002         -1535.6475830078125
  0.12970000000000001         -1886.8552246093750
  0.13080000000000003         -2270.6118164062500
  0.13190000000000002         -2713.1171875000000
  0.13300000000000001         -3259.1169433593750
  0.13410000000000000         -3955.3212890625000
  0.13520000000000004         -4832.4394531250000
  0.13630000000000003         -5897.4326171875000
  0.13740000000000002         -7142.5229492187500
  0.13850000000000001         -8567.3759765625000
  0.13960000000000000         -10201.277343750000
  0.14070000000000005         -12111.194335937500
  0.14180000000000004         -14388.992187500000
  0.14290000000000003         -17124.169921875000
  0.14400000000000002         -20378.376953125000
  0.14510000000000001         -24178.996093750000
  0.14620000000000000         -28536.546875000000
  0.14730000000000004         -33478.523437500000
  0.14840000000000003         -39078.652343750000
  0.14950000000000002         -45465.019531250000
  0.15060000000000001         -52799.265625000000
  0.15170000000000000         -61239.972656250000
  0.15280000000000005         -70913.195312500000
  0.15390000000000004         -81903.328125000000
  0.15500000000000003         -94273.375000000000
  0.15610000000000002         -108099.80468750000
  0.15720000000000001         -123496.69531250000
  0.15830000000000000         -140617.59375000000
  0.15940000000000004         -159633.21875000000
  0.16050000000000003         -180698.20312500000
  0.16160000000000002         -203929.98437500000
  0.16270000000000001         -229408.32812500000
  0.16380000000000000         -257198.64062500000
  0.16490000000000005         -287374.50000000000
  0.16600000000000004         -320019.65625000000
  0.16710000000000003         -355223.56250000000
  0.16820000000000002         -393042.00000000000
  0.16930000000000001         -433463.65625000000
  0.17040000000000000         -476395.21875000000
  0.17150000000000004         -521677.59375000000
  0.17260000000000003         -569107.12500000000
  0.17370000000000002         -618471.56250000000
  0.17480000000000001         -669559.68750000000
  0.17590000000000000         -722128.93750000000
  0.17700000000000005         -775866.00000000000
  0.17810000000000004         -830369.06250000000
  0.17920000000000003         -885114.93750000000
  0.18030000000000002         -939472.50000000000
  0.18140000000000001         -992742.56250000000
  0.18250000000000000         -1044183.0000000000
  0.18360000000000004         -1093049.5000000000
  0.18470000000000003         -1138568.3750000000
  0.18580000000000002         -1179942.2500000000
  0.18690000000000001         -1216307.7500000000
  0.18800000000000000         -1246732.5000000000
  0.18910000000000005         -1270200.7500000000
  0.19020000000000004         -1285667.3750000000
  0.19130000000000003         -1292121.8750000000
  0.19240000000000002         -1288644.7500000000
  0.19350000000000001         -1274367.0000000000
  0.19460000000000005         -1248503.1250000000
  0.19570000000000004         -1210358.2500000000
  0.19680000000000003         -1159301.5000000000
  0.19790000000000002         -1094727.3750000000
  0.19900000000000001         -1016148.6875000000
  0.20010000000000000         -923248.00000000000
  0.20120000000000005         -815881.50000000000
  0.20230000000000004         -694192.25000000000
  0.20340000000000003         -558500.37500000000
  0.20450000000000002         -409354.43750000000
  0.20560000000000000         -247443.01562500000
  0.20670000000000005         -73663.203125000000
  0.20780000000000004          110888.40625000000
  0.20890000000000003          304932.75000000000
