-1.200000e-01 0.000000e+00
-1.190000e-01 0.000000e+00
-1.180000e-01 0.000000e+00
-1.170000e-01 0.000000e+00
-1.160000e-01 0.000000e+00
-1.150000e-01 0.000000e+00
-1.140000e-01 0.000000e+00
-1.130000e-01 0.000000e+00
-1.120000e-01 0.000000e+00
-1.110000e-01 0.000000e+00
-1.100000e-01 0.000000e+00
-1.090000e-01 0.000000e+00
-1.080000e-01 0.000000e+00
-1.070000e-01 0.000000e+00
-1.060000e-01 0.000000e+00
-1.050000e-01 0.000000e+00
-1.040000e-01 0.000000e+00
-1.030000e-01 0.000000e+00
-1.020000e-01 0.000000e+00
-1.010000e-01 7.875297e-43
-1.000000e-01 2.914701e-43
-9.900001e-02 -1.432197e-40
-9.800000e-02 -1.488231e-39
-9.700000e-02 -5.696976e-39
-9.600000e-02 6.836120e-39
-9.500001e-02 1.717237e-37
-9.400000e-02 7.712667e-37
-9.300000e-02 9.534354e-37
-9.200001e-02 -6.712924e-36
-9.100001e-02 -4.231601e-35
-9.000000e-02 -1.060797e-34
-8.900000e-02 -1.135583e-35
-8.800000e-02 9.060854e-34
-8.700000e-02 3.475714e-33
-8.600000e-02 5.720251e-33
-8.500001e-02 -4.113939e-33
-8.400001e-02 -5.028001e-32
-8.300000e-02 -1.383738e-31
-8.200000e-02 -1.543033e-31
-8.100000e-02 2.555080e-31
-8.000000e-02 1.526688e-30
-7.900000e-02 3.231152e-30
-7.800000e-02 2.338581e-30
-7.700001e-02 -7.273550e-30
-7.600001e-02 -2.923903e-29
-7.500000e-02 -4.942933e-29
-7.400000e-02 -1.986869e-29
-7.300000e-02 1.258810e-28
-7.200000e-02 3.839837e-28
-7.100000e-02 5.301167e-28
-7.000001e-02 6.205977e-29
-6.900001e-02 -1.475635e-27
-6.800000e-02 -3.630366e-27
-6.700000e-02 -4.136939e-27
-6.600000e-02 6.208821e-28
-6.500000e-02 1.229813e-26
-6.400000e-02 2.514801e-26
-6.300000e-02 2.352709e-26
-6.200000e-02 -9.890066e-27
-6.100000e-02 -7.290252e-26
-6.000000e-02 -1.234160e-25
-5.900000e-02 -8.960985e-26
-5.800000e-02 6.865823e-26
-5.700000e-02 2.774832e-25
-5.600000e-02 3.420270e-25
-5.500000e-02 1.087203e-25
-5.400001e-02 -2.631353e-25
-5.300000e-02 -2.305019e-25
-5.200000e-02 6.210903e-25
-5.100000e-02 1.553954e-24
-5.000000e-02 1.691302e-25
-4.900000e-02 -5.947061e-24
-4.800000e-02 -1.490395e-23
-4.700000e-02 -1.644289e-23
-4.600000e-02 5.277158e-24
-4.500000e-02 5.657310e-23
-4.400000e-02 1.115880e-22
-4.300000e-02 1.031987e-22
-4.200000e-02 -4.370879e-23
-4.100000e-02 -3.284699e-22
-4.000000e-02 -5.861870e-22
-3.900000e-02 -4.958838e-22
-3.800000e-02 2.222742e-22
-3.700000e-02 1.454868e-21
-3.600000e-02 2.432039e-21
-3.500000e-02 1.925971e-21
-3.400000e-02 -8.867097e-22
-3.300000e-02 -5.238184e-21
-3.200000e-02 -8.229332e-21
-3.100000e-02 -6.015249e-21
-3.000000e-02 3.154667e-21
-2.900000e-02 1.573030e-20
-2.800000e-02 2.259253e-20
-2.700000e-02 1.405685e-20
-2.600000e-02 -1.124800e-20
-2.500000e-02 -3.991315e-20
-2.400000e-02 -4.774581e-20
-2.300000e-02 -1.693978e-20
-2.200000e-02 4.256779e-20
-2.100000e-02 8.670043e-20
-2.000000e-02 6.197595e-20
-1.900000e-02 -4.420220e-20
-1.800000e-02 -1.635763e-19
-1.700000e-02 -1.663069e-19
-1.600000e-02 4.075245e-20
-1.500000e-02 3.860513e-19
-1.400000e-02 5.890069e-19
-1.300000e-02 3.031631e-19
-1.200000e-02 -5.707411e-19
-1.100000e-02 -1.602467e-18
-9.999998e-03 -1.882945e-18
-8.999996e-03 -5.786544e-19
-8.000001e-03 2.219631e-18
-6.999999e-03 4.975398e-18
-5.999997e-03 5.203146e-18
-5.000003e-03 1.134403e-18
-4.000001e-03 -6.287273e-18
-2.999999e-03 -1.269658e-17
-1.999997e-03 -1.222132e-17
-1.000002e-03 -1.726265e-18
0.000000e+00 1.513288e-17
1.000002e-03 2.767470e-17
2.000004e-03 2.384952e-17
2.999999e-03 -2.831754e-19
4.000001e-03 -3.363446e-17
4.999995e-03 -5.283569e-17
5.999997e-03 -3.663086e-17
6.999999e-03 1.530520e-17
8.000001e-03 7.335624e-17
9.000003e-03 9.074081e-17
1.000001e-02 3.642089e-17
1.100001e-02 -7.160772e-17
1.199999e-02 -1.611649e-16
1.300000e-02 -1.452676e-16
1.400000e-02 8.946918e-18
1.500000e-02 2.284149e-16
1.600000e-02 3.510178e-16
1.700000e-02 2.256193e-16
1.800001e-02 -1.548004e-16
1.900001e-02 -5.853842e-16
2.000000e-02 -7.304726e-16
2.100000e-02 -3.462428e-16
2.200000e-02 4.824331e-16
2.300000e-02 1.279226e-15
2.400000e-02 1.405338e-15
2.500001e-02 5.049735e-16
2.600001e-02 -1.110066e-15
2.700000e-02 -2.464479e-15
2.800000e-02 -2.445113e-15
2.900000e-02 -6.130242e-16
3.000000e-02 2.238025e-15
3.100000e-02 4.294628e-15
3.200001e-02 3.789046e-15
3.300001e-02 3.581789e-16
3.400001e-02 -4.263177e-15
3.500000e-02 -6.948802e-15
3.600000e-02 -5.157086e-15
3.700000e-02 9.718433e-16
3.800000e-02 7.971566e-15
3.900000e-02 1.076232e-14
4.000001e-02 6.071487e-15
4.100001e-02 -4.577460e-15
4.200000e-02 -1.470487e-14
4.300000e-02 -1.643587e-14
4.400000e-02 -6.084051e-15
4.500000e-02 1.192634e-14
4.600000e-02 2.619732e-14
4.700001e-02 2.502226e-14
4.800001e-02 5.019283e-15
4.900001e-02 -2.419929e-14
5.000000e-02 -4.378044e-14
5.100000e-02 -3.711329e-14
5.200000e-02 -2.471327e-15
5.300000e-02 4.216777e-14
5.400001e-02 6.747006e-14
5.500001e-02 5.121849e-14
5.600001e-02 -4.179911e-15
5.700000e-02 -6.800051e-14
5.800000e-02 -9.698632e-14
5.900000e-02 -6.346640e-14
6.000000e-02 2.169768e-14
6.100000e-02 1.087785e-13
6.200001e-02 1.363494e-13
6.300001e-02 7.227792e-14
6.400001e-02 -5.763960e-14
6.500000e-02 -1.759993e-13
6.600000e-02 -1.974481e-13
6.700000e-02 -8.637218e-14
6.800000e-02 1.088259e-13
6.900001e-02 2.728911e-13
7.000001e-02 2.897975e-13
7.100001e-02 1.210742e-13
7.200000e-02 -1.549945e-13
7.300000e-02 -3.765066e-13
7.400000e-02 -3.926979e-13
7.500000e-02 -1.659135e-13
7.600001e-02 1.870773e-13
7.700001e-02 4.515646e-13
7.800001e-02 4.455323e-13
7.900001e-02 1.468077e-13
8.000000e-02 -2.702536e-13
8.100000e-02 -5.270604e-13
8.200000e-02 -4.185030e-13
8.300000e-02 3.244020e-14
8.400001e-02 5.529085e-13
8.500001e-02 7.676757e-13
8.600001e-02 4.430897e-13
8.700001e-02 -3.226952e-13
8.800000e-02 -1.101472e-12
8.900000e-02 -1.360366e-12
9.000000e-02 -7.980190e-13
9.100001e-02 4.130320e-13
9.200001e-02 1.652523e-12
9.300001e-02 2.172395e-12
9.400001e-02 1.547647e-12
9.500000e-02 -1.312882e-14
9.600000e-02 -1.715456e-12
9.700000e-02 -2.600703e-12
9.800000e-02 -2.118743e-12
9.900001e-02 -5.038405e-13
1.000000e-01 1.308435e-12
1.010000e-01 2.219393e-12
1.020000e-01 1.660974e-12
1.030000e-01 1.001174e-14
1.040000e-01 -1.579593e-12
1.050000e-01 -1.882649e-12
1.060000e-01 -4.424731e-13
1.070000e-01 1.997975e-12
1.080000e-01 3.815628e-12
1.090000e-01 3.468973e-12
1.100000e-01 5.565748e-13
1.110000e-01 -3.708706e-12
1.120000e-01 -7.000623e-12
1.130000e-01 -7.166289e-12
1.140000e-01 -3.580736e-12
1.150000e-01 2.278700e-12
1.160000e-01 7.488038e-12
1.170000e-01 9.282255e-12
1.180000e-01 6.701180e-12
1.190000e-01 1.250997e-12
1.200000e-01 -3.916381e-12
1.210000e-01 -5.906089e-12
1.220000e-01 -3.935412e-12
1.230000e-01 6.423811e-14
1.240000e-01 2.608848e-12
1.250000e-01 9.985780e-13
1.260000e-01 -4.594489e-12
1.270000e-01 -1.071746e-11
1.280000e-01 -1.241529e-11
1.290000e-01 -6.345405e-12
1.300000e-01 6.601089e-12
1.310000e-01 2.093028e-11
1.320000e-01 2.899268e-11
1.330000e-01 2.512341e-11
1.340000e-01 9.175140e-12
1.350000e-01 -1.273586e-11
1.360000e-01 -3.098026e-11
1.370000e-01 -3.733507e-11
1.380000e-01 -2.934774e-11
1.390000e-01 -1.157759e-11
1.400000e-01 7.118512e-12
1.410000e-01 1.873350e-11
1.420000e-01 2.061021e-11
1.430000e-01 1.648470e-11
1.440000e-01 1.332363e-11
1.450000e-01 1.588365e-11
1.460000e-01 2.255506e-11
1.470000e-01 2.550729e-11
1.480000e-01 1.558401e-11
1.490000e-01 -1.073621e-11
1.500000e-01 -4.673165e-11
1.510000e-01 -7.667719e-11
1.520000e-01 -8.315209e-11
1.530000e-01 -5.682965e-11
1.540000e-01 -3.162748e-12
1.550000e-01 5.838857e-11
1.560000e-01 1.029293e-10
1.570000e-01 1.122652e-10
1.580000e-01 8.396964e-11
1.590000e-01 3.216031e-11
1.600000e-01 -2.061177e-11
1.610000e-01 -5.573494e-11
1.620000e-01 -6.787469e-11
1.630000e-01 -6.565556e-11
1.640000e-01 -6.330411e-11
1.650000e-01 -6.861696e-11
1.660000e-01 -7.529914e-11
1.670000e-01 -6.542375e-11
1.680000e-01 -2.156413e-11
1.690000e-01 5.834816e-11
1.700000e-01 1.530828e-10
1.710000e-01 2.235798e-10
1.720000e-01 2.307385e-10
1.730000e-01 1.567030e-10
1.740000e-01 1.768730e-11
1.750000e-01 -1.398617e-10
1.760000e-01 -2.590429e-10
1.770000e-01 -2.983716e-10
1.780000e-01 -2.500085e-10
1.790000e-01 -1.405705e-10
1.800000e-01 -1.453544e-11
1.810000e-01 8.973454e-11
1.820000e-01 1.571289e-10
1.830000e-01 1.962425e-10
1.840000e-01 2.238574e-10
1.850000e-01 2.445671e-10
1.860000e-01 2.403290e-10
1.870000e-01 1.789211e-10
1.880000e-01 3.805412e-11
1.890000e-01 -1.693522e-10
1.900000e-01 -3.862582e-10
1.910000e-01 -5.284940e-10
1.920000e-01 -5.223304e-10
1.930000e-01 -3.438628e-10
1.940000e-01 -3.811429e-11
1.950000e-01 2.948585e-10
1.960000e-01 5.419623e-10
1.970000e-01 6.263128e-10
1.980000e-01 5.381852e-10
1.990000e-01 3.319327e-10
2.000000e-01 9.198103e-11
2.010000e-01 -1.115414e-10
2.020000e-01 -2.519850e-10
2.030000e-01 -3.438751e-10
2.040000e-01 -4.135660e-10
2.050000e-01 -4.640134e-10
2.060000e-01 -4.591572e-10
2.070000e-01 -3.419072e-10
2.080000e-01 -7.715506e-11
2.090000e-01 3.071146e-10
2.100000e-01 7.078067e-10
2.110000e-01 9.801853e-10
2.120000e-01 1.001735e-09
2.130000e-01 7.358316e-10
2.140000e-01 2.589828e-10
2.150000e-01 -2.664124e-10
2.160000e-01 -6.623750e-10
2.170000e-01 -8.122607e-10
2.180000e-01 -7.049763e-10
2.190000e-01 -4.260083e-10
2.200000e-01 -9.927342e-11
2.210000e-01 1.806707e-10
2.220000e-01 3.873535e-10
2.230000e-01 5.519135e-10
2.240000e-01 7.113183e-10
2.250000e-01 8.567222e-10
2.260000e-01 9.186574e-10
2.270000e-01 7.974656e-10
2.280000e-01 4.337468e-10
2.290000e-01 -1.270857e-10
2.300000e-01 -7.320393e-10
2.310000e-01 -1.165564e-09
2.320000e-01 -1.253368e-09
2.330000e-01 -9.449639e-10
2.340000e-01 -3.601105e-10
2.350000e-01 2.630070e-10
2.360000e-01 6.785945e-10
2.370000e-01 7.612594e-10
2.380000e-01 5.294182e-10
2.390000e-01 1.154197e-10
2.400000e-01 -3.036935e-10
2.410000e-01 -6.145632e-10
2.420000e-01 -8.021895e-10
2.430000e-01 -9.462064e-10
2.440000e-01 -1.137255e-09
2.450000e-01 -1.388799e-09
2.460000e-01 -1.609613e-09
2.470000e-01 -1.655044e-09
2.480000e-01 -1.435196e-09
2.490000e-01 -9.801679e-10
2.500000e-01 -4.574301e-10
2.510000e-01 -9.864642e-11
2.520000e-01 -1.058607e-10
2.530000e-01 -5.133951e-10
2.540000e-01 -1.096721e-09
2.550000e-01 -1.591613e-09
2.560000e-01 -1.822621e-09
2.570000e-01 -1.655680e-09
2.580000e-01 -1.160722e-09
2.590000e-01 -4.868319e-10
2.600000e-01 1.069669e-10
2.610000e-01 3.469394e-10
2.620000e-01 3.658434e-10
2.630000e-01 4.382583e-10
2.640000e-01 6.720420e-10
2.650000e-01 1.053381e-09
2.660000e-01 1.415423e-09
2.670000e-01 1.653997e-09
2.680000e-01 1.793225e-09
2.690000e-01 1.736375e-09
2.700000e-01 1.597823e-09
2.710000e-01 1.650960e-09
2.720000e-01 2.114254e-09
2.730000e-01 2.939096e-09
2.740000e-01 3.839616e-09
2.750000e-01 4.467433e-09
2.760000e-01 4.630579e-09
2.770000e-01 4.294987e-09
2.780000e-01 3.656541e-09
2.790000e-01 2.871120e-09
2.800000e-01 2.142897e-09
2.810000e-01 1.768329e-09
2.820000e-01 1.771671e-09
2.830000e-01 1.865278e-09
2.840000e-01 1.794707e-09
2.850000e-01 1.443389e-09
2.860000e-01 9.941914e-10
2.870000e-01 6.472440e-10
2.880000e-01 4.057288e-10
2.890000e-01 2.062706e-10
2.900000e-01 -1.100986e-10
2.910000e-01 -6.273346e-10
2.920000e-01 -1.428383e-09
2.930000e-01 -2.595423e-09
2.940000e-01 -3.975211e-09
2.950000e-01 -5.094251e-09
2.960000e-01 -5.597303e-09
2.970000e-01 -5.508610e-09
2.980000e-01 -5.085779e-09
2.990000e-01 -4.673969e-09
3.000000e-01 -4.444971e-09
3.010000e-01 -4.288184e-09
3.020000e-01 -4.233585e-09
3.030000e-01 -4.321369e-09
3.040000e-01 -4.402026e-09
3.050000e-01 -4.204375e-09
3.060000e-01 -3.730642e-09
3.070000e-01 -3.325241e-09
3.080000e-01 -3.135774e-09
3.090000e-01 -3.080077e-09
3.100000e-01 -2.819782e-09
3.110000e-01 -2.354440e-09
3.120000e-01 -1.685656e-09
3.130000e-01 -7.989769e-10
3.140000e-01 2.294911e-10
3.150000e-01 1.310390e-09
3.160000e-01 2.162091e-09
3.170000e-01 2.516320e-09
3.180000e-01 2.448836e-09
3.190000e-01 2.363382e-09
3.200000e-01 2.699535e-09
3.210000e-01 3.361931e-09
3.220000e-01 3.931865e-09
3.230000e-01 4.139530e-09
3.240000e-01 4.134231e-09
3.250000e-01 4.030217e-09
3.260000e-01 3.729500e-09
3.270000e-01 3.249170e-09
3.280000e-01 2.883832e-09
3.290000e-01 2.892602e-09
3.300000e-01 3.094315e-09
3.310000e-01 3.110704e-09
3.320000e-01 2.749510e-09
3.330000e-01 2.235184e-09
3.340000e-01 1.863233e-09
3.350000e-01 1.648221e-09
3.360000e-01 1.356852e-09
3.370000e-01 9.201644e-10
3.380000e-01 5.361347e-10
3.390000e-01 3.116476e-10
3.400000e-01 5.050271e-11
3.410000e-01 -4.226424e-10
3.420000e-01 -9.520527e-10
3.430000e-01 -1.199638e-09
3.440000e-01 -1.124829e-09
3.450000e-01 -1.026076e-09
3.460000e-01 -1.126883e-09
3.470000e-01 -1.299492e-09
3.480000e-01 -1.327428e-09
3.490000e-01 -1.263916e-09
3.500000e-01 -1.281782e-09
3.510000e-01 -1.395287e-09
3.520000e-01 -1.378492e-09
3.530000e-01 -1.112345e-09
3.540000e-01 -8.251706e-10
3.550000e-01 -8.004406e-10
3.560000e-01 -9.437038e-10
3.570000e-01 -8.826964e-10
3.580000e-01 -5.222832e-10
3.590000e-01 -1.298573e-10
3.600000e-01 2.339295e-11
3.610000e-01 -2.701739e-11
3.620000e-01 -6.285594e-11
3.630000e-01 -6.439255e-11
3.640000e-01 -2.179467e-10
3.650000e-01 -5.241303e-10
3.660000e-01 -6.850115e-10
3.670000e-01 -5.504367e-10
3.680000e-01 -3.280193e-10
3.690000e-01 -3.082112e-10
3.700000e-01 -4.381362e-10
3.710000e-01 -3.518898e-10
3.720000e-01 8.891293e-11
3.730000e-01 6.179412e-10
3.740000e-01 8.748540e-10
3.750000e-01 8.220620e-10
3.760000e-01 6.161007e-10
3.770000e-01 2.602529e-10
3.780000e-01 -3.452420e-10
3.790000e-01 -1.092877e-09
3.800000e-01 -1.587434e-09
3.810000e-01 -1.536992e-09
3.820000e-01 -1.145278e-09
3.830000e-01 -8.644940e-10
3.840000e-01 -8.977192e-10
3.850000e-01 -1.093209e-09
3.860000e-01 -1.330217e-09
3.870000e-01 -1.748481e-09
3.880000e-01 -2.503862e-09
3.890000e-01 -3.473228e-09
3.900000e-01 -4.421910e-09
3.910000e-01 -5.420485e-09
3.920000e-01 -6.815974e-09
3.930000e-01 -8.784623e-09
3.940000e-01 -1.108563e-08
3.950000e-01 -1.337632e-08
3.960000e-01 -1.566386e-08
3.970000e-01 -1.826098e-08
3.980000e-01 -2.133226e-08
3.990000e-01 -2.478279e-08
4.000000e-01 -2.857807e-08
4.010000e-01 -3.293779e-08
4.020000e-01 -3.804919e-08
4.030000e-01 -4.373173e-08
4.040000e-01 -4.963633e-08
4.050000e-01 -5.575355e-08
4.060000e-01 -6.249260e-08
4.070000e-01 -7.019399e-08
4.080000e-01 -7.872628e-08
4.090000e-01 -8.768973e-08
4.100000e-01 -9.686404e-08
4.110000e-01 -1.062455e-07
4.120000e-01 -1.157391e-07
4.130000e-01 -1.250804e-07
4.140000e-01 -1.341649e-07
4.150000e-01 -1.432334e-07
4.160000e-01 -1.524777e-07
4.170000e-01 -1.615625e-07
4.180000e-01 -1.697369e-07
4.190000e-01 -1.764107e-07
4.200000e-01 -1.813892e-07
4.210000e-01 -1.845274e-07
4.220001e-01 -1.853366e-07
4.230000e-01 -1.831324e-07
4.240000e-01 -1.774133e-07
4.250000e-01 -1.678928e-07
4.260000e-01 -1.541171e-07
4.270000e-01 -1.353460e-07
4.280000e-01 -1.109452e-07
4.290000e-01 -8.070128e-08
4.300000e-01 -4.458798e-08
4.310000e-01 -2.243723e-09
4.320000e-01 4.703179e-08
4.330000e-01 1.037592e-07
4.340000e-01 1.679859e-07
4.350000e-01 2.395836e-07
4.360000e-01 3.185232e-07
4.370000e-01 4.046860e-07
4.380000e-01 4.974718e-07
4.390000e-01 5.956999e-07
4.400000e-01 6.981300e-07
4.410000e-01 8.036841e-07
4.420000e-01 9.111754e-07
4.430000e-01 1.018921e-06
4.440000e-01 1.124718e-06
4.450000e-01 1.226235e-06
4.460000e-01 1.321212e-06
4.470000e-01 1.406970e-06
4.480000e-01 1.480443e-06
4.490000e-01 1.538327e-06
4.500000e-01 1.577744e-06
4.510000e-01 1.596145e-06
4.520000e-01 1.590750e-06
4.530000e-01 1.558132e-06
4.540000e-01 1.494867e-06
4.550000e-01 1.398337e-06
4.560000e-01 1.266715e-06
4.570000e-01 1.098284e-06
4.580000e-01 8.916249e-07
4.590001e-01 6.461487e-07
4.600000e-01 3.621535e-07
4.610000e-01 4.062895e-08
4.620000e-01 -3.170280e-07
4.630000e-01 -7.085619e-07
4.640000e-01 -1.129898e-06
4.650000e-01 -1.576293e-06
4.660000e-01 -2.042434e-06
4.670000e-01 -2.521920e-06
4.680000e-01 -3.007051e-06
4.690000e-01 -3.489607e-06
4.700000e-01 -3.961439e-06
4.710000e-01 -4.413028e-06
4.720000e-01 -4.833826e-06
4.730000e-01 -5.213311e-06
4.740000e-01 -5.540991e-06
4.750000e-01 -5.806243e-06
4.760000e-01 -5.998911e-06
4.770000e-01 -6.109447e-06
4.780000e-01 -6.129063e-06
4.790000e-01 -6.050221e-06
4.800000e-01 -5.865935e-06
4.810000e-01 -5.571055e-06
4.820001e-01 -5.162525e-06
4.830000e-01 -4.639718e-06
4.840000e-01 -4.002635e-06
4.850000e-01 -3.254609e-06
4.860000e-01 -2.400891e-06
4.870000e-01 -1.449924e-06
4.880000e-01 -4.110116e-07
4.890000e-01 7.036797e-07
4.900000e-01 1.879464e-06
4.910000e-01 3.098850e-06
4.920000e-01 4.344953e-06
4.930000e-01 5.598260e-06
4.940000e-01 6.837261e-06
4.950000e-01 8.037008e-06
4.960001e-01 9.173440e-06
4.970000e-01 1.022701e-05
4.980000e-01 1.117669e-05
4.990000e-01 1.199989e-05
5.000000e-01 1.267568e-05
5.010000e-01 1.318616e-05
5.020000e-01 1.351724e-05
5.030000e-01 1.365406e-05
5.040000e-01 1.358357e-05
5.050000e-01 1.329987e-05
5.060000e-01 1.280278e-05
5.070000e-01 1.209340e-05
5.080000e-01 1.117424e-05
5.090000e-01 1.005066e-05
5.100001e-01 8.737494e-06
5.110000e-01 7.255352e-06
5.120000e-01 5.623733e-06
5.130000e-01 3.861496e-06
5.140000e-01 1.993671e-06
5.150000e-01 5.203765e-08
5.160000e-01 -1.932087e-06
5.170000e-01 -3.925932e-06
5.180000e-01 -5.899870e-06
5.190001e-01 -7.820257e-06
5.200000e-01 -9.651645e-06
5.210000e-01 -1.136184e-05
5.220000e-01 -1.292332e-05
5.230000e-01 -1.431187e-05
5.240000e-01 -1.550250e-05
5.250000e-01 -1.646869e-05
5.260000e-01 -1.719236e-05
5.270000e-01 -1.766605e-05
5.280000e-01 -1.788593e-05
5.290000e-01 -1.784558e-05
5.300000e-01 -1.754083e-05
5.310000e-01 -1.697827e-05
5.320000e-01 -1.617091e-05
5.330001e-01 -1.513465e-05
5.340000e-01 -1.388699e-05
5.350000e-01 -1.244844e-05
5.360000e-01 -1.084781e-05
5.370000e-01 -9.116193e-06
5.380000e-01 -7.281924e-06
5.390000e-01 -5.371898e-06
5.400000e-01 -3.418507e-06
5.410000e-01 -1.459150e-06
5.420001e-01 4.695612e-07
5.430000e-01 2.342189e-06
5.440000e-01 4.132075e-06
5.450000e-01 5.812035e-06
5.460000e-01 7.354247e-06
5.470001e-01 8.736097e-06
5.480000e-01 9.943440e-06
5.490000e-01 1.096510e-05
5.500000e-01 1.179136e-05
5.510000e-01 1.241284e-05
5.520000e-01 1.282757e-05
5.530000e-01 1.304015e-05
5.540000e-01 1.305714e-05
5.550000e-01 1.288412e-05
5.560001e-01 1.253191e-05
5.570000e-01 1.201770e-05
5.580000e-01 1.136231e-05
5.590000e-01 1.058329e-05
5.600000e-01 9.695563e-06
5.610000e-01 8.719100e-06
5.620000e-01 7.678842e-06
5.630000e-01 6.600691e-06
5.640000e-01 5.503476e-06
5.650001e-01 4.401809e-06
5.660000e-01 3.312874e-06
5.670000e-01 2.255838e-06
5.680000e-01 1.248118e-06
5.690000e-01 3.014720e-07
5.700001e-01 -5.753973e-07
5.710000e-01 -1.372428e-06
5.720000e-01 -2.080247e-06
5.730000e-01 -2.695648e-06
5.740000e-01 -3.220935e-06
5.750000e-01 -3.657842e-06
5.760000e-01 -4.003959e-06
5.770000e-01 -4.257552e-06
5.780000e-01 -4.424054e-06
5.790001e-01 -4.514222e-06
5.800000e-01 -4.537163e-06
5.810000e-01 -4.496593e-06
5.820000e-01 -4.397030e-06
5.830000e-01 -4.248075e-06
5.840001e-01 -4.060890e-06
5.850000e-01 -3.841997e-06
5.860000e-01 -3.594880e-06
5.870000e-01 -3.326302e-06
5.880000e-01 -3.046636e-06
5.890000e-01 -2.764045e-06
5.900000e-01 -2.480469e-06
5.910000e-01 -2.195422e-06
5.920000e-01 -1.913097e-06
5.930001e-01 -1.641129e-06
5.940000e-01 -1.383996e-06
5.950000e-01 -1.140204e-06
5.960000e-01 -9.084215e-07
5.970000e-01 -6.917980e-07
5.980000e-01 -4.939502e-07
5.990000e-01 -3.135465e-07
6.000000e-01 -1.464505e-07
6.010000e-01 8.356437e-09
6.020001e-01 1.465596e-07
6.030000e-01 2.650122e-07
6.040000e-01 3.666682e-07
6.050000e-01 4.568392e-07
6.060000e-01 5.356815e-07
6.070001e-01 5.991242e-07
6.080000e-01 6.454429e-07
6.090000e-01 6.786468e-07
6.100000e-01 7.026829e-07
6.110000e-01 7.164490e-07
6.120000e-01 7.166236e-07
6.130000e-01 7.039598e-07
6.140000e-01 6.827358e-07
6.150000e-01 6.548362e-07
6.160001e-01 6.177524e-07
6.170000e-01 5.701149e-07
6.180000e-01 5.162365e-07
6.190000e-01 4.624235e-07
6.200000e-01 4.093672e-07
6.210001e-01 3.527439e-07
6.220000e-01 2.909692e-07
6.230000e-01 2.292691e-07
6.240000e-01 1.740518e-07
6.250001e-01 1.258886e-07
6.260000e-01 8.092684e-08
6.270000e-01 3.810055e-08
6.280000e-01 1.068656e-09
6.290000e-01 -2.762590e-08
6.300001e-01 -4.997946e-08
6.310000e-01 -6.821665e-08
6.320000e-01 -8.001371e-08
6.330000e-01 -8.143252e-08
6.340000e-01 -7.392373e-08
6.350001e-01 -6.400660e-08
6.360000e-01 -5.533366e-08
6.370000e-01 -4.432877e-08
6.380000e-01 -2.632896e-08
6.390001e-01 -3.540663e-09
6.400000e-01 1.669878e-08
6.410000e-01 3.063724e-08
6.420000e-01 4.137883e-08
6.430000e-01 5.255333e-08
6.440001e-01 6.274922e-08
6.450000e-01 6.839537e-08
6.460000e-01 7.000472e-08
6.470000e-01 7.100471e-08
6.480000e-01 7.128119e-08
6.490000e-01 6.620894e-08
6.500000e-01 5.377342e-08
6.510000e-01 3.896457e-08
6.520000e-01 2.793786e-08
6.530001e-01 1.990929e-08
6.540000e-01 8.849838e-09
6.550000e-01 -7.122253e-09
6.560000e-01 -2.223942e-08
6.570000e-01 -3.049627e-08
6.580001e-01 -3.302102e-08
6.590000e-01 -3.492460e-08
6.600000e-01 -3.713581e-08
6.610000e-01 -3.556784e-08
6.620001e-01 -2.835509e-08
6.630000e-01 -1.920876e-08
6.640000e-01 -1.157559e-08
6.650000e-01 -2.978595e-09
6.660000e-01 1.095782e-08
6.670001e-01 2.862089e-08
6.680000e-01 4.305116e-08
6.690000e-01 5.101811e-08
6.700000e-01 5.699781e-08
6.710000e-01 6.591358e-08
6.720001e-01 7.518202e-08
6.730000e-01 7.800418e-08
6.740000e-01 7.306380e-08
6.750000e-01 6.604591e-08
6.760001e-01 6.099435e-08
6.770000e-01 5.463289e-08
6.780000e-01 4.195363e-08
6.790000e-01 2.432216e-08
6.800000e-01 7.481731e-09
6.810001e-01 -7.084736e-09
6.820000e-01 -2.387810e-08
6.830000e-01 -4.521348e-08
6.840000e-01 -6.609048e-08
6.850001e-01 -8.042548e-08
6.860000e-01 -8.950701e-08
6.870000e-01 -9.961445e-08
6.880000e-01 -1.119203e-07
6.890000e-01 -1.199202e-07
6.900001e-01 -1.184244e-07
6.910000e-01 -1.107295e-07
6.920000e-01 -1.033429e-07
6.930000e-01 -9.641349e-08
6.940000e-01 -8.441395e-08
6.950001e-01 -6.585572e-08
6.960000e-01 -4.689605e-08
6.970000e-01 -3.297066e-08
6.980000e-01 -2.112347e-08
6.990001e-01 -4.878302e-09
7.000000e-01 1.566139e-08
7.010000e-01 3.356843e-08
7.020000e-01 4.507399e-08
7.030000e-01 5.433458e-08
7.040001e-01 6.593473e-08
7.050000e-01 7.686936e-08
7.060000e-01 8.058771e-08
7.070000e-01 7.704682e-08
7.080001e-01 7.304232e-08
7.090001e-01 7.200231e-08
7.100000e-01 6.871062e-08
7.110000e-01 5.745085e-08
7.120000e-01 4.163041e-08
7.130001e-01 3.005516e-08
7.140000e-01 2.508591e-08
7.150000e-01 2.004322e-08
7.160000e-01 9.602104e-09
7.170000e-01 -2.435854e-09
7.180001e-01 -9.129622e-09
7.190000e-01 -1.051455e-08
7.200000e-01 -1.234469e-08
7.210000e-01 -1.602189e-08
7.220001e-01 -1.591229e-08
7.230000e-01 -8.582106e-09
7.240000e-01 5.803145e-10
7.250000e-01 4.390415e-09
7.260000e-01 4.456467e-09
7.270001e-01 9.056407e-09
7.280000e-01 2.077252e-08
7.290000e-01 3.211852e-08
7.300000e-01 3.591384e-08
7.310000e-01 3.510348e-08
7.320001e-01 3.760641e-08
7.330000e-01 4.411078e-08
7.340000e-01 4.700820e-08
7.350000e-01 4.160955e-08
7.360001e-01 3.244003e-08
7.370000e-01 2.549064e-08
7.380000e-01 1.894733e-08
7.390000e-01 6.888285e-09
7.400000e-01 -1.001462e-08
7.410001e-01 -2.405329e-08
7.420000e-01 -3.169009e-08
7.430000e-01 -3.920775e-08
7.440000e-01 -5.346664e-08
7.450001e-01 -7.100078e-08
7.460001e-01 -8.206328e-08
7.470000e-01 -8.400664e-08
7.480000e-01 -8.441725e-08
7.490000e-01 -8.944147e-08
7.500001e-01 -9.476753e-08
7.510000e-01 -9.234074e-08
7.520000e-01 -8.230168e-08
7.530000e-01 -7.219933e-08
7.540000e-01 -6.530652e-08
7.550001e-01 -5.629633e-08
7.560000e-01 -4.067675e-08
7.570000e-01 -2.290574e-08
7.580000e-01 -1.015405e-08
7.590001e-01 -1.166768e-09
7.600001e-01 1.214943e-08
7.610000e-01 3.202985e-08
7.620000e-01 5.017421e-08
7.630000e-01 5.867867e-08
7.640001e-01 6.076044e-08
7.650000e-01 6.539409e-08
7.660000e-01 7.392123e-08
7.670000e-01 7.844108e-08
7.680001e-01 7.399939e-08
7.690001e-01 6.599379e-08
7.700000e-01 6.190047e-08
7.710000e-01 6.028975e-08
7.720000e-01 5.389208e-08
7.730001e-01 4.162496e-08
7.740000e-01 3.081564e-08
7.750000e-01 2.611404e-08
7.760000e-01 2.229447e-08
7.770000e-01 1.242651e-08
7.780001e-01 -8.491270e-10
7.790000e-01 -8.341004e-09
7.800000e-01 -7.472153e-09
7.810000e-01 -5.864635e-09
7.820001e-01 -9.817015e-09
7.830001e-01 -1.496726e-08
7.840000e-01 -1.310454e-08
7.850000e-01 -4.765212e-09
7.860000e-01 1.403833e-09
7.870001e-01 1.424866e-09
7.880000e-01 1.495636e-09
7.890000e-01 8.060255e-09
7.900000e-01 1.765655e-08
7.910001e-01 2.187308e-08
7.920001e-01 1.963028e-08
7.930000e-01 1.800441e-08
7.940000e-01 2.062150e-08
7.950000e-01 2.171691e-08
7.960001e-01 1.512603e-08
7.970001e-01 4.309840e-09
7.980000e-01 -2.300794e-09
7.990000e-01 -3.962413e-09
8.000000e-01 -8.957244e-09
8.010001e-01 -2.220139e-08
8.020000e-01 -3.752032e-08
8.030000e-01 -4.622103e-08
8.040000e-01 -4.922950e-08
8.050001e-01 -5.487306e-08
8.060001e-01 -6.595590e-08
8.070000e-01 -7.555906e-08
8.080000e-01 -7.738569e-08
8.090000e-01 -7.456330e-08
8.100001e-01 -7.377733e-08
8.110000e-01 -7.436256e-08
8.120000e-01 -6.946620e-08
8.130000e-01 -5.738747e-08
8.140000e-01 -4.520507e-08
8.150001e-01 -3.850107e-08
8.160000e-01 -3.265983e-08
8.170000e-01 -1.942544e-08
8.180000e-01 5.973391e-10
8.190001e-01 1.806433e-08
8.200001e-01 2.762503e-08
8.210000e-01 3.455109e-08
8.220000e-01 4.584884e-08
8.230000e-01 5.952199e-08
8.240001e-01 6.782329e-08
8.250000e-01 6.894303e-08
8.260000e-01 6.916146e-08
8.270000e-01 7.266336e-08
8.280001e-01 7.506455e-08
8.290001e-01 7.065074e-08
8.300000e-01 6.187319e-08
8.310000e-01 5.608305e-08
8.320000e-01 5.425727e-08
8.330001e-01 4.912076e-08
8.340001e-01 3.607748e-08
8.350000e-01 2.073874e-08
8.360000e-01 1.159404e-08
8.370000e-01 8.505111e-09
8.380001e-01 3.861103e-09
8.390000e-01 -5.659444e-09
8.400000e-01 -1.434680e-08
8.410000e-01 -1.631281e-08
8.420001e-01 -1.410402e-08
8.430001e-01 -1.424692e-08
8.440000e-01 -1.709630e-08
8.450000e-01 -1.674802e-08
8.460000e-01 -1.085185e-08
8.470001e-01 -4.816854e-09
8.480000e-01 -3.701800e-09
8.490000e-01 -4.287514e-09
8.500000e-01 1.060840e-10
8.510001e-01 8.985907e-09
8.520001e-01 1.435031e-08
8.530000e-01 1.155183e-08
8.540000e-01 5.493675e-09
8.550000e-01 3.237005e-09
8.560001e-01 4.156064e-09
8.570001e-01 1.908589e-09
8.580000e-01 -5.548102e-09
8.590000e-01 -1.329754e-08
8.600000e-01 -1.764278e-08
8.610001e-01 -2.197261e-08
8.620000e-01 -3.114221e-08
8.630000e-01 -4.322087e-08
8.640000e-01 -5.161356e-08
8.650001e-01 -5.454943e-08
8.660001e-01 -5.743708e-08
8.670000e-01 -6.431610e-08
8.680000e-01 -7.122790e-08
8.690000e-01 -7.153548e-08
8.700001e-01 -6.527417e-08
8.710001e-01 -5.868824e-08
8.720000e-01 -5.495714e-08
8.730000e-01 -5.007819e-08
8.740000e-01 -3.968176e-08
8.750001e-01 -2.601416e-08
8.760000e-01 -1.453563e-08
8.770000e-01 -5.696822e-09
8.780000e-01 5.343712e-09
8.790001e-01 2.074457e-08
