-1.200000e-01 0.000000e+00
-1.190000e-01 0.000000e+00
-1.180000e-01 0.000000e+00
-1.170000e-01 0.000000e+00
-1.160000e-01 0.000000e+00
-1.150000e-01 0.000000e+00
-1.140000e-01 -6.164813e-23
-1.130000e-01 3.552335e-21
-1.120000e-01 2.275548e-20
-1.110000e-01 3.511251e-20
-1.100000e-01 -1.154442e-19
-1.090000e-01 -5.311055e-19
-1.080000e-01 -2.312117e-19
-1.070000e-01 3.603429e-18
-1.060000e-01 1.133902e-17
-1.050000e-01 8.539934e-18
-1.040000e-01 -3.882653e-17
-1.030000e-01 -1.411077e-16
-1.020000e-01 -1.793228e-16
-1.010000e-01 1.436363e-16
-1.000000e-01 1.028673e-15
-9.900001e-02 1.880000e-15
-9.800000e-02 8.053897e-16
-9.700000e-02 -4.245991e-15
-9.600000e-02 -1.186993e-14
-9.500001e-02 -1.347081e-14
-9.400000e-02 4.234371e-15
-9.300000e-02 4.504200e-14
-9.200001e-02 8.313857e-14
-9.100001e-02 5.967734e-14
-9.000000e-02 -7.737050e-14
-8.900000e-02 -2.935352e-13
-8.800000e-02 -4.106148e-13
-8.700000e-02 -1.713060e-13
-8.600000e-02 5.301866e-13
-8.500001e-02 1.371226e-12
-8.400001e-02 1.562499e-12
-8.300000e-02 3.019945e-13
-8.200000e-02 -2.375031e-12
-8.100000e-02 -4.958146e-12
-8.000000e-02 -4.866394e-12
-7.900000e-02 -2.184252e-13
-7.800000e-02 7.886578e-12
-7.700001e-02 1.447822e-11
-7.600001e-02 1.289588e-11
-7.500000e-02 -2.515248e-13
-7.400000e-02 -2.038231e-11
-7.300000e-02 -3.481962e-11
-7.200000e-02 -2.951883e-11
-7.100000e-02 9.398819e-14
-7.000001e-02 4.160245e-11
-6.900001e-02 6.891122e-11
-6.800000e-02 5.758163e-11
-6.700000e-02 3.872172e-12
-6.600000e-02 -6.648231e-11
-6.500000e-02 -1.095457e-10
-6.400000e-02 -9.096467e-11
-6.300000e-02 -1.277569e-11
-6.200000e-02 8.150490e-11
-6.100000e-02 1.316671e-10
-6.000000e-02 1.019531e-10
-5.900000e-02 9.897603e-12
-5.800000e-02 -8.104144e-11
-5.700000e-02 -1.045862e-10
-5.600000e-02 -4.218142e-11
-5.500000e-02 5.708393e-11
-5.400001e-02 1.066686e-10
-5.300000e-02 4.629462e-11
-5.200000e-02 -1.050986e-10
-5.100000e-02 -2.485348e-10
-5.000000e-02 -2.634993e-10
-4.900000e-02 -9.060015e-11
-4.800000e-02 2.165475e-10
-4.700000e-02 5.072519e-10
-4.600000e-02 6.110804e-10
-4.500000e-02 4.315707e-10
-4.400000e-02 3.078107e-12
-4.300000e-02 -5.178225e-10
-4.200000e-02 -9.175929e-10
-4.100000e-02 -1.013626e-09
-4.000000e-02 -7.282384e-10
-3.900000e-02 -1.246348e-10
-3.800000e-02 6.055804e-10
-3.700000e-02 1.203417e-09
-3.600000e-02 1.438823e-09
-3.500000e-02 1.209080e-09
-3.400000e-02 5.904506e-10
-3.300000e-02 -1.955291e-10
-3.200000e-02 -8.944971e-10
-3.100000e-02 -1.346241e-09
-3.000000e-02 -1.538191e-09
-2.900000e-02 -1.540586e-09
-2.800000e-02 -1.371128e-09
-2.700000e-02 -9.105121e-10
-2.600000e-02 2.637557e-11
-2.500000e-02 1.475168e-09
-2.400000e-02 3.113385e-09
-2.300000e-02 4.255364e-09
-2.200000e-02 4.138209e-09
-2.100000e-02 2.376818e-09
-2.000000e-02 -6.938575e-10
-1.900000e-02 -4.046286e-09
-1.800000e-02 -6.396102e-09
-1.700000e-02 -6.813919e-09
-1.600000e-02 -5.153116e-09
-1.500000e-02 -2.049336e-09
-1.400000e-02 1.470711e-09
-1.300000e-02 4.489102e-09
-1.200000e-02 6.490845e-09
-1.100000e-02 7.329045e-09
-9.999998e-03 6.993894e-09
-8.999996e-03 5.440308e-09
-8.000001e-03 2.635901e-09
-6.999999e-03 -1.222652e-09
-5.999997e-03 -5.528363e-09
-5.000003e-03 -9.296039e-09
-4.000001e-03 -1.142498e-08
-2.999999e-03 -1.105894e-08
-1.999997e-03 -7.882808e-09
-1.000002e-03 -2.276137e-09
0.000000e+00 4.678009e-09
1.000002e-03 1.133444e-08
2.000004e-03 1.582878e-08
2.999999e-03 1.664291e-08
4.000001e-03 1.325174e-08
4.999995e-03 6.523083e-09
5.999997e-03 -1.466201e-09
6.999999e-03 -8.253512e-09
8.000001e-03 -1.207616e-08
9.000003e-03 -1.257834e-08
1.000001e-02 -1.067561e-08
1.100001e-02 -7.670440e-09
1.199999e-02 -4.266113e-09
1.300000e-02 -2.285887e-10
1.400000e-02 5.035140e-09
1.500000e-02 1.144620e-08
1.600000e-02 1.764547e-08
1.700000e-02 2.141296e-08
1.800001e-02 2.094028e-08
1.900001e-02 1.608305e-08
2.000000e-02 8.667854e-09
2.100000e-02 1.586102e-09
2.200000e-02 -2.736954e-09
2.300000e-02 -3.473048e-09
2.400000e-02 -1.460251e-09
2.500001e-02 1.669321e-09
2.600001e-02 4.562310e-09
2.700000e-02 6.695927e-09
2.800000e-02 8.250254e-09
2.900000e-02 9.668042e-09
3.000000e-02 1.136868e-08
3.100000e-02 1.375690e-08
3.200001e-02 1.722276e-08
3.300001e-02 2.187676e-08
3.400001e-02 2.712454e-08
3.500000e-02 3.158493e-08
3.600000e-02 3.367518e-08
3.700000e-02 3.261675e-08
3.800000e-02 2.903926e-08
3.900000e-02 2.462320e-08
4.000001e-02 2.079287e-08
4.100001e-02 1.751732e-08
4.200000e-02 1.328362e-08
4.300000e-02 6.526989e-09
4.400000e-02 -2.607521e-09
4.500000e-02 -1.156241e-08
4.600000e-02 -1.663102e-08
4.700001e-02 -1.540411e-08
4.800001e-02 -8.661118e-09
4.900001e-02 -1.082299e-10
5.000000e-02 5.780748e-09
5.100000e-02 6.475602e-09
5.200000e-02 2.273737e-09
5.300000e-02 -4.556568e-09
5.400001e-02 -1.218723e-08
5.500001e-02 -2.061097e-08
5.600001e-02 -3.101377e-08
5.700000e-02 -4.428512e-08
5.800000e-02 -5.941911e-08
5.900000e-02 -7.390918e-08
6.000000e-02 -8.533243e-08
6.100000e-02 -9.362702e-08
6.200001e-02 -1.002882e-07
6.300001e-02 -1.073058e-07
6.400001e-02 -1.152875e-07
6.500000e-02 -1.228873e-07
6.600000e-02 -1.282024e-07
6.700000e-02 -1.303306e-07
6.800000e-02 -1.297703e-07
6.900001e-02 -1.274711e-07
7.000001e-02 -1.229346e-07
7.100001e-02 -1.146327e-07
7.200000e-02 -1.006993e-07
7.300000e-02 -8.180359e-08
7.400000e-02 -6.155460e-08
7.500000e-02 -4.352478e-08
7.600001e-02 -3.042805e-08
7.700001e-02 -2.025627e-08
7.800001e-02 -8.229108e-09
7.900001e-02 1.034641e-08
8.000000e-02 3.514651e-08
8.100000e-02 6.116898e-08
8.200000e-02 8.385541e-08
8.300000e-02 1.010849e-07
8.400001e-02 1.148874e-07
8.500001e-02 1.302360e-07
8.600001e-02 1.491062e-07
8.700001e-02 1.691660e-07
8.800000e-02 1.854823e-07
8.900000e-02 1.948320e-07
9.000000e-02 1.965091e-07
9.100001e-02 1.928769e-07
9.200001e-02 1.869257e-07
9.300001e-02 1.763838e-07
9.400001e-02 1.544122e-07
9.500000e-02 1.149128e-07
9.600000e-02 5.503171e-08
9.700000e-02 -2.401066e-08
9.800000e-02 -1.198932e-07
9.900001e-02 -2.349479e-07
1.000000e-01 -3.760142e-07
1.010000e-01 -5.519760e-07
1.020000e-01 -7.702984e-07
1.030000e-01 -1.033091e-06
1.040000e-01 -1.341185e-06
1.050000e-01 -1.698369e-06
1.060000e-01 -2.115572e-06
1.070000e-01 -2.608198e-06
1.080000e-01 -3.191410e-06
1.090000e-01 -3.875975e-06
1.100000e-01 -4.669040e-06
1.110000e-01 -5.579655e-06
1.120000e-01 -6.624832e-06
1.130000e-01 -7.828945e-06
1.140000e-01 -9.220472e-06
1.150000e-01 -1.082450e-05
1.160000e-01 -1.266206e-05
1.170000e-01 -1.475435e-05
1.180000e-01 -1.712794e-05
1.190000e-01 -1.982019e-05
1.200000e-01 -2.287453e-05
1.210000e-01 -2.633393e-05
1.220000e-01 -3.023684e-05
1.230000e-01 -3.461834e-05
1.240000e-01 -3.951691e-05
1.250000e-01 -4.497949e-05
1.260000e-01 -5.106159e-05
1.270000e-01 -5.782180e-05
1.280000e-01 -6.531316e-05
1.290000e-01 -7.358067e-05
1.300000e-01 -8.266792e-05
1.310000e-01 -9.262424e-05
1.320000e-01 -1.035067e-04
1.330000e-01 -1.153727e-04
1.340000e-01 -1.282722e-04
1.350000e-01 -1.422400e-04
1.360000e-01 -1.572989e-04
1.370000e-01 -1.734675e-04
1.380000e-01 -1.907672e-04
1.390000e-01 -2.092191e-04
1.400000e-01 -2.288310e-04
1.410000e-01 -2.495890e-04
1.420000e-01 -2.714537e-04
1.430000e-01 -2.943680e-04
1.440000e-01 -3.182660e-04
1.450000e-01 -3.430733e-04
1.460000e-01 -3.686976e-04
1.470000e-01 -3.950162e-04
1.480000e-01 -4.218708e-04
1.490000e-01 -4.490716e-04
1.500000e-01 -4.764082e-04
1.510000e-01 -5.036551e-04
1.520000e-01 -5.305700e-04
1.530000e-01 -5.568817e-04
1.540000e-01 -5.822790e-04
1.550000e-01 -6.064133e-04
1.560000e-01 -6.289128e-04
1.570000e-01 -6.493958e-04
1.580000e-01 -6.674737e-04
1.590000e-01 -6.827441e-04
1.600000e-01 -6.947777e-04
1.610000e-01 -7.031255e-04
1.620000e-01 -7.073290e-04
1.630000e-01 -7.069425e-04
1.640000e-01 -7.015413e-04
1.650000e-01 -6.907244e-04
1.660000e-01 -6.741076e-04
1.670000e-01 -6.513166e-04
1.680000e-01 -6.220060e-04
1.690000e-01 -5.858756e-04
1.700000e-01 -5.426938e-04
1.710000e-01 -4.923024e-04
1.720000e-01 -4.346092e-04
1.730000e-01 -3.695805e-04
1.740000e-01 -2.972434e-04
1.750000e-01 -2.177121e-04
1.760000e-01 -1.312017e-04
1.770000e-01 -3.803953e-05
1.780000e-01 6.134465e-05
1.790000e-01 1.664358e-04
1.800000e-01 2.766425e-04
1.810000e-01 3.912882e-04
1.820000e-01 5.095988e-04
1.830000e-01 6.306918e-04
1.840000e-01 7.535940e-04
1.850000e-01 8.772614e-04
1.860000e-01 1.000611e-03
1.870000e-01 1.122527e-03
1.880000e-01 1.241859e-03
1.890000e-01 1.357416e-03
1.900000e-01 1.467981e-03
1.910000e-01 1.572336e-03
1.920000e-01 1.669301e-03
1.930000e-01 1.757756e-03
1.940000e-01 1.836648e-03
1.950000e-01 1.904982e-03
1.960000e-01 1.961834e-03
1.970000e-01 2.006366e-03
1.980000e-01 2.037863e-03
1.990000e-01 2.055761e-03
2.000000e-01 2.059652e-03
2.010000e-01 2.049270e-03
2.020000e-01 2.024482e-03
2.030000e-01 1.985289e-03
2.040000e-01 1.931853e-03
2.050000e-01 1.864512e-03
2.060000e-01 1.783784e-03
2.070000e-01 1.690340e-03
2.080000e-01 1.584979e-03
2.090000e-01 1.468606e-03
2.100000e-01 1.342238e-03
2.110000e-01 1.207014e-03
2.120000e-01 1.064195e-03
2.130000e-01 9.151307e-04
2.140000e-01 7.612228e-04
2.150000e-01 6.038827e-04
2.160000e-01 4.445211e-04
2.170000e-01 2.845573e-04
2.180000e-01 1.254177e-04
2.190000e-01 -3.147751e-05
2.200000e-01 -1.847613e-04
2.210000e-01 -3.331517e-04
2.220000e-01 -4.754762e-04
2.230000e-01 -6.106679e-04
2.240000e-01 -7.377530e-04
2.250000e-01 -8.558407e-04
2.260000e-01 -9.641518e-04
2.270000e-01 -1.062047e-03
2.280000e-01 -1.149049e-03
2.290000e-01 -1.224836e-03
2.300000e-01 -1.289212e-03
2.310000e-01 -1.342086e-03
2.320000e-01 -1.383472e-03
2.330000e-01 -1.413503e-03
2.340000e-01 -1.432450e-03
2.350000e-01 -1.440719e-03
2.360000e-01 -1.438811e-03
2.370000e-01 -1.427288e-03
2.380000e-01 -1.406757e-03
2.390000e-01 -1.377874e-03
2.400000e-01 -1.341364e-03
2.410000e-01 -1.298018e-03
2.420000e-01 -1.248667e-03
2.430000e-01 -1.194143e-03
2.440000e-01 -1.135248e-03
2.450000e-01 -1.072757e-03
2.460000e-01 -1.007434e-03
2.470000e-01 -9.400469e-04
2.480000e-01 -8.713557e-04
2.490000e-01 -8.020762e-04
2.500000e-01 -7.328512e-04
2.510000e-01 -6.642450e-04
2.520000e-01 -5.967643e-04
2.530000e-01 -5.308847e-04
2.540000e-01 -4.670582e-04
2.550000e-01 -4.056887e-04
2.560000e-01 -3.471043e-04
2.570000e-01 -2.915414e-04
2.580000e-01 -2.391657e-04
2.590000e-01 -1.901041e-04
2.600000e-01 -1.444690e-04
2.610000e-01 -1.023498e-04
2.620000e-01 -6.378600e-05
2.630000e-01 -2.874702e-05
2.640000e-01 2.856776e-06
2.650000e-01 3.114421e-05
2.660000e-01 5.622977e-05
2.670000e-01 7.821876e-05
2.680000e-01 9.723000e-05
2.690000e-01 1.134212e-04
2.700000e-01 1.269943e-04
2.710000e-01 1.381693e-04
2.720000e-01 1.471488e-04
2.730000e-01 1.541014e-04
2.740000e-01 1.591772e-04
2.750000e-01 1.625383e-04
2.760000e-01 1.643779e-04
2.770000e-01 1.649049e-04
2.780000e-01 1.643094e-04
2.790000e-01 1.627376e-04
2.800000e-01 1.602982e-04
2.810000e-01 1.570937e-04
2.820000e-01 1.532489e-04
2.830000e-01 1.489107e-04
2.840000e-01 1.442188e-04
2.850000e-01 1.392738e-04
2.860000e-01 1.341292e-04
2.870000e-01 1.288191e-04
2.880000e-01 1.233924e-04
2.890000e-01 1.179288e-04
2.900000e-01 1.125179e-04
2.910000e-01 1.072227e-04
2.920000e-01 1.020592e-04
2.930000e-01 9.701177e-05
2.940000e-01 9.207184e-05
2.950000e-01 8.726590e-05
2.960000e-01 8.264875e-05
2.970000e-01 7.826720e-05
2.980000e-01 7.412823e-05
2.990000e-01 7.019892e-05
3.000000e-01 6.643879e-05
3.010000e-01 6.283649e-05
3.020000e-01 5.941918e-05
3.030000e-01 5.622576e-05
3.040000e-01 5.326837e-05
3.050000e-01 5.051589e-05
3.060000e-01 4.791435e-05
3.070000e-01 4.542755e-05
3.080000e-01 4.306171e-05
3.090000e-01 4.085180e-05
3.100000e-01 3.882307e-05
3.110000e-01 3.696066e-05
3.120000e-01 3.521560e-05
3.130000e-01 3.354098e-05
3.140000e-01 3.192668e-05
3.150000e-01 3.040100e-05
3.160000e-01 2.899834e-05
3.170000e-01 2.772194e-05
3.180000e-01 2.653445e-05
3.190000e-01 2.538500e-05
3.200000e-01 2.424880e-05
3.210000e-01 2.314435e-05
3.220000e-01 2.211346e-05
3.230000e-01 2.118101e-05
3.240000e-01 2.033036e-05
3.250000e-01 1.951617e-05
3.260000e-01 1.870318e-05
3.270000e-01 1.789665e-05
3.280000e-01 1.713627e-05
3.290000e-01 1.645928e-05
3.300000e-01 1.586580e-05
3.310000e-01 1.531693e-05
3.320000e-01 1.476790e-05
3.330000e-01 1.420606e-05
3.340000e-01 1.366036e-05
3.350000e-01 1.317368e-05
3.360000e-01 1.276311e-05
3.370000e-01 1.240298e-05
3.380000e-01 1.204621e-05
3.390000e-01 1.166445e-05
3.400000e-01 1.127216e-05
3.410000e-01 1.091251e-05
3.420000e-01 1.061720e-05
3.430000e-01 1.037580e-05
3.440000e-01 1.014192e-05
3.450000e-01 9.871523e-06
3.460000e-01 9.559431e-06
3.470000e-01 9.241762e-06
3.480000e-01 8.962279e-06
3.490000e-01 8.732788e-06
3.500000e-01 8.522647e-06
3.510000e-01 8.286361e-06
3.520000e-01 8.004175e-06
3.530000e-01 7.699728e-06
3.540000e-01 7.419526e-06
3.550000e-01 7.192599e-06
3.560000e-01 7.005645e-06
3.570000e-01 6.815525e-06
3.580000e-01 6.587919e-06
3.590000e-01 6.327828e-06
3.600000e-01 6.074989e-06
3.610000e-01 5.868558e-06
3.620000e-01 5.712588e-06
3.630000e-01 5.573513e-06
3.640000e-01 5.411393e-06
3.650000e-01 5.216716e-06
3.660000e-01 5.019149e-06
3.670000e-01 4.860605e-06
3.680000e-01 4.757190e-06
3.690000e-01 4.684352e-06
3.700000e-01 4.598404e-06
3.710000e-01 4.474905e-06
3.720000e-01 4.329504e-06
3.730000e-01 4.202800e-06
3.740000e-01 4.122509e-06
3.750000e-01 4.077115e-06
3.760000e-01 4.024743e-06
3.770000e-01 3.930290e-06
3.780000e-01 3.797792e-06
3.790000e-01 3.668599e-06
3.800000e-01 3.585958e-06
3.810000e-01 3.556902e-06
3.820000e-01 3.545536e-06
3.830000e-01 3.504096e-06
3.840000e-01 3.414462e-06
3.850000e-01 3.303627e-06
3.860000e-01 3.219522e-06
3.870000e-01 3.188786e-06
3.880000e-01 3.193648e-06
3.890000e-01 3.187938e-06
3.900000e-01 3.137878e-06
3.910000e-01 3.051881e-06
3.920000e-01 2.973326e-06
3.930000e-01 2.942433e-06
3.940000e-01 2.960515e-06
3.950000e-01 2.987879e-06
3.960000e-01 2.977360e-06
3.970000e-01 2.914112e-06
3.980000e-01 2.826782e-06
3.990000e-01 2.760632e-06
4.000000e-01 2.736697e-06
4.010000e-01 2.733291e-06
4.020000e-01 2.705602e-06
4.030000e-01 2.625175e-06
4.040000e-01 2.504279e-06
4.050000e-01 2.384219e-06
4.060000e-01 2.298848e-06
4.070000e-01 2.245811e-06
4.080000e-01 2.190357e-06
4.090000e-01 2.097588e-06
4.100000e-01 1.964222e-06
4.110000e-01 1.821978e-06
4.120000e-01 1.709903e-06
4.130000e-01 1.640579e-06
4.140000e-01 1.590488e-06
4.150000e-01 1.523016e-06
4.160000e-01 1.423122e-06
4.170000e-01 1.312248e-06
4.180000e-01 1.229945e-06
4.190000e-01 1.199075e-06
4.200000e-01 1.205911e-06
4.210000e-01 1.212900e-06
4.220001e-01 1.192095e-06
4.230000e-01 1.149415e-06
4.240000e-01 1.118355e-06
4.250000e-01 1.129193e-06
4.260000e-01 1.181155e-06
4.270000e-01 1.242014e-06
4.280000e-01 1.275531e-06
4.290000e-01 1.272455e-06
4.300000e-01 1.257854e-06
4.310000e-01 1.267972e-06
4.320000e-01 1.317023e-06
4.330000e-01 1.383471e-06
4.340000e-01 1.427983e-06
4.350000e-01 1.427137e-06
4.360000e-01 1.392970e-06
4.370000e-01 1.361349e-06
4.380000e-01 1.360122e-06
4.390000e-01 1.385465e-06
4.400000e-01 1.406750e-06
4.410000e-01 1.394661e-06
4.420000e-01 1.347256e-06
4.430000e-01 1.291430e-06
4.440000e-01 1.259171e-06
4.450000e-01 1.259858e-06
4.460000e-01 1.272788e-06
4.470000e-01 1.266083e-06
4.480000e-01 1.225068e-06
4.490000e-01 1.164899e-06
4.500000e-01 1.116532e-06
4.510000e-01 1.098918e-06
4.520000e-01 1.102633e-06
4.530000e-01 1.099431e-06
4.540000e-01 1.068484e-06
4.550000e-01 1.015198e-06
4.560000e-01 9.658137e-07
4.570000e-01 9.432467e-07
4.580000e-01 9.461530e-07
4.590001e-01 9.497503e-07
4.600000e-01 9.271763e-07
4.610000e-01 8.723107e-07
4.620000e-01 8.042748e-07
4.630000e-01 7.501828e-07
4.640000e-01 7.216030e-07
4.650000e-01 7.054220e-07
4.660000e-01 6.769348e-07
4.670000e-01 6.232712e-07
4.680000e-01 5.558617e-07
4.690000e-01 5.006497e-07
4.700000e-01 4.748900e-07
4.710000e-01 4.717425e-07
4.720000e-01 4.666580e-07
4.730000e-01 4.396106e-07
4.740000e-01 3.931073e-07
4.750000e-01 3.500231e-07
4.760000e-01 3.336851e-07
4.770000e-01 3.480181e-07
4.780000e-01 3.749398e-07
4.790000e-01 3.907039e-07
4.800000e-01 3.867002e-07
4.810000e-01 3.767457e-07
4.820001e-01 3.846781e-07
4.830000e-01 4.230761e-07
4.840000e-01 4.815537e-07
4.850000e-01 5.348238e-07
4.860000e-01 5.634460e-07
4.870000e-01 5.691678e-07
4.880000e-01 5.715976e-07
4.890000e-01 5.898303e-07
4.900000e-01 6.256158e-07
4.910000e-01 6.626361e-07
4.920000e-01 6.814884e-07
4.930000e-01 6.764855e-07
4.940000e-01 6.597741e-07
4.950000e-01 6.501598e-07
4.960001e-01 6.570998e-07
4.970000e-01 6.734304e-07
4.980000e-01 6.823169e-07
4.990000e-01 6.718051e-07
5.000000e-01 6.444959e-07
5.010000e-01 6.144732e-07
5.020000e-01 5.948409e-07
5.030000e-01 5.871117e-07
5.040000e-01 5.815578e-07
5.050000e-01 5.675631e-07
5.060000e-01 5.439487e-07
5.070000e-01 5.199003e-07
5.080000e-01 5.063353e-07
5.090000e-01 5.062669e-07
5.100001e-01 5.127946e-07
5.110000e-01 5.156290e-07
5.120000e-01 5.095421e-07
5.130000e-01 4.973664e-07
5.140000e-01 4.858079e-07
5.150000e-01 4.786249e-07
5.160000e-01 4.732614e-07
5.170000e-01 4.634604e-07
5.180000e-01 4.451379e-07
5.190001e-01 4.201125e-07
5.200000e-01 3.943271e-07
5.210000e-01 3.722479e-07
5.220000e-01 3.527358e-07
5.230000e-01 3.303085e-07
5.240000e-01 3.004807e-07
5.250000e-01 2.638777e-07
5.260000e-01 2.252238e-07
5.270000e-01 1.886558e-07
5.280000e-01 1.542943e-07
5.290000e-01 1.193599e-07
5.300000e-01 8.221205e-08
5.310000e-01 4.511021e-08
5.320000e-01 1.314432e-08
5.330001e-01 -9.364229e-09
5.340000e-01 -2.171383e-08
5.350000e-01 -2.674770e-08
5.360000e-01 -2.818793e-08
5.370000e-01 -2.761200e-08
5.380000e-01 -2.340002e-08
5.390000e-01 -1.236006e-08
5.400000e-01 7.468259e-09
5.410000e-01 3.530680e-08
5.420001e-01 6.863731e-08
5.430000e-01 1.053987e-07
5.440000e-01 1.449429e-07
5.450000e-01 1.870310e-07
5.460000e-01 2.306142e-07
5.470001e-01 2.741832e-07
5.480000e-01 3.172323e-07
5.490000e-01 3.605537e-07
5.500000e-01 4.043623e-07
5.510000e-01 4.462361e-07
5.520000e-01 4.816213e-07
5.530000e-01 5.071496e-07
5.540000e-01 5.237917e-07
5.550000e-01 5.365627e-07
5.560001e-01 5.505225e-07
5.570000e-01 5.662541e-07
5.580000e-01 5.786778e-07
5.590000e-01 5.806257e-07
5.600000e-01 5.686508e-07
5.610000e-01 5.464005e-07
5.620000e-01 5.222919e-07
5.630000e-01 5.027492e-07
5.640000e-01 4.866997e-07
5.650001e-01 4.666579e-07
5.660000e-01 4.360935e-07
5.670000e-01 3.965332e-07
5.680000e-01 3.573772e-07
5.690000e-01 3.279939e-07
5.700001e-01 3.090966e-07
5.710000e-01 2.915536e-07
5.720000e-01 2.640135e-07
5.730000e-01 2.226906e-07
5.740000e-01 1.746510e-07
5.750000e-01 1.317299e-07
5.760000e-01 1.003908e-07
5.770000e-01 7.631665e-08
5.780000e-01 4.857409e-08
5.790001e-01 9.933842e-09
5.800000e-01 -3.572954e-08
5.810000e-01 -7.600951e-08
5.820000e-01 -1.008899e-07
5.830000e-01 -1.124123e-07
5.840001e-01 -1.237580e-07
5.850000e-01 -1.477440e-07
5.860000e-01 -1.848007e-07
5.870000e-01 -2.216754e-07
5.880000e-01 -2.424615e-07
5.890000e-01 -2.421591e-07
5.900000e-01 -2.303975e-07
5.910000e-01 -2.219173e-07
5.920000e-01 -2.223792e-07
5.930001e-01 -2.223020e-07
5.940000e-01 -2.047752e-07
5.950000e-01 -1.604368e-07
5.960000e-01 -9.663756e-08
5.970000e-01 -3.236229e-08
5.980000e-01 1.729282e-08
5.990000e-01 5.374897e-08
6.000000e-01 9.320608e-08
6.010000e-01 1.514505e-07
6.020001e-01 2.285432e-07
6.030000e-01 3.074986e-07
6.040000e-01 3.687156e-07
6.050000e-01 4.073154e-07
6.060000e-01 4.373438e-07
6.070001e-01 4.785775e-07
6.080000e-01 5.375366e-07
6.090000e-01 5.998181e-07
6.100000e-01 6.409560e-07
6.110000e-01 6.466046e-07
6.120000e-01 6.245566e-07
6.130000e-01 5.979846e-07
6.140000e-01 5.854598e-07
6.150000e-01 5.848782e-07
6.160001e-01 5.754990e-07
6.170000e-01 5.367425e-07
6.180000e-01 4.675364e-07
6.190000e-01 3.888876e-07
6.200000e-01 3.268239e-07
6.210001e-01 2.904580e-07
6.220000e-01 2.647057e-07
6.230000e-01 2.243089e-07
6.240000e-01 1.567571e-07
6.250001e-01 7.374484e-08
6.260000e-01 1.181888e-09
6.270000e-01 -4.311369e-08
6.280000e-01 -6.426733e-08
6.290000e-01 -8.489747e-08
6.300001e-01 -1.244178e-07
6.310000e-01 -1.813719e-07
6.320000e-01 -2.342436e-07
6.330000e-01 -2.600187e-07
6.340000e-01 -2.542091e-07
6.350001e-01 -2.346788e-07
6.360000e-01 -2.258666e-07
6.370000e-01 -2.375060e-07
6.380000e-01 -2.569839e-07
6.390001e-01 -2.620936e-07
6.400000e-01 -2.422727e-07
6.410000e-01 -2.086541e-07
6.420000e-01 -1.837005e-07
6.430000e-01 -1.801172e-07
6.440001e-01 -1.885964e-07
6.450000e-01 -1.857460e-07
6.460000e-01 -1.551133e-07
6.470000e-01 -1.023196e-07
6.480000e-01 -5.055323e-08
6.490000e-01 -2.019225e-08
6.500000e-01 -1.060054e-08
6.510000e-01 -5.337633e-10
6.520000e-01 3.271250e-08
6.530001e-01 9.222411e-08
6.540000e-01 1.575855e-07
6.550000e-01 2.023615e-07
6.560000e-01 2.177557e-07
6.570000e-01 2.210778e-07
6.580001e-01 2.407981e-07
6.590000e-01 2.910970e-07
6.600000e-01 3.585855e-07
6.610000e-01 4.132033e-07
6.620001e-01 4.338239e-07
6.630000e-01 4.260087e-07
6.640000e-01 4.163276e-07
6.650000e-01 4.283248e-07
6.660000e-01 4.612357e-07
6.670001e-01 4.901003e-07
6.680000e-01 4.872859e-07
6.690000e-01 4.466789e-07
6.700000e-01 3.893618e-07
6.710000e-01 3.455953e-07
6.720001e-01 3.288144e-07
6.730000e-01 3.245022e-07
6.740000e-01 3.037442e-07
6.750000e-01 2.493675e-07
6.760001e-01 1.713676e-07
6.770000e-01 9.811691e-08
6.780000e-01 5.157123e-08
6.790000e-01 2.878569e-08
6.800000e-01 5.977144e-09
6.810001e-01 -3.894646e-08
6.820000e-01 -1.057341e-07
6.830000e-01 -1.712812e-07
6.840000e-01 -2.094850e-07
6.850001e-01 -2.137478e-07
6.860000e-01 -2.022400e-07
6.870000e-01 -2.013859e-07
6.880000e-01 -2.223207e-07
6.890000e-01 -2.513345e-07
6.900001e-01 -2.628051e-07
6.910000e-01 -2.428839e-07
6.920000e-01 -2.024628e-07
6.930000e-01 -1.676416e-07
6.940000e-01 -1.563788e-07
6.950001e-01 -1.625525e-07
6.960000e-01 -1.618909e-07
6.970000e-01 -1.343963e-07
6.980000e-01 -8.305368e-08
6.990001e-01 -3.204067e-08
7.000000e-01 -5.987616e-09
7.010000e-01 -8.625790e-09
7.020000e-01 -1.968000e-08
7.030000e-01 -1.279318e-08
7.040001e-01 2.122417e-08
7.050000e-01 6.629210e-08
7.060000e-01 9.532277e-08
7.070000e-01 9.431609e-08
7.080001e-01 7.494510e-08
7.090001e-01 6.442943e-08
7.100000e-01 8.167549e-08
7.110000e-01 1.208786e-07
7.120000e-01 1.570117e-07
7.130001e-01 1.680784e-07
7.140000e-01 1.542985e-07
7.150000e-01 1.374867e-07
7.160000e-01 1.416418e-07
7.170000e-01 1.720935e-07
7.180001e-01 2.113660e-07
7.190000e-01 2.349215e-07
7.200000e-01 2.325963e-07
7.210000e-01 2.169458e-07
7.220001e-01 2.114149e-07
7.230000e-01 2.291389e-07
7.240000e-01 2.611604e-07
7.250000e-01 2.843508e-07
7.260000e-01 2.816692e-07
7.270001e-01 2.565677e-07
7.280000e-01 2.289498e-07
7.290000e-01 2.168592e-07
7.300000e-01 2.206178e-07
7.310000e-01 2.234074e-07
7.320001e-01 2.071256e-07
7.330000e-01 1.688471e-07
7.340000e-01 1.232438e-07
7.350000e-01 8.928566e-08
7.360001e-01 7.348306e-08
7.370000e-01 6.463679e-08
7.380000e-01 4.452536e-08
7.390000e-01 4.741104e-09
7.400000e-01 -4.545439e-08
7.410001e-01 -8.716867e-08
7.420000e-01 -1.083952e-07
7.430000e-01 -1.139913e-07
7.440000e-01 -1.202156e-07
7.450001e-01 -1.390950e-07
7.460001e-01 -1.671409e-07
7.470000e-01 -1.887011e-07
7.480000e-01 -1.906419e-07
7.490000e-01 -1.747252e-07
7.500001e-01 -1.563625e-07
7.510000e-01 -1.509477e-07
7.520000e-01 -1.601436e-07
7.530000e-01 -1.704081e-07
7.540000e-01 -1.651107e-07
7.550001e-01 -1.395472e-07
7.560000e-01 -1.055901e-07
7.570000e-01 -8.176079e-08
7.580000e-01 -7.734178e-08
7.590001e-01 -8.449561e-08
7.600001e-01 -8.538025e-08
7.610000e-01 -6.795875e-08
7.620000e-01 -3.648734e-08
7.630000e-01 -7.501399e-09
7.640001e-01 4.866671e-09
7.650000e-01 1.070774e-09
7.660000e-01 -4.688779e-09
7.670000e-01 2.954647e-09
7.680001e-01 2.759783e-08
7.690001e-01 5.886940e-08
7.700000e-01 8.222364e-08
7.710000e-01 9.171033e-08
7.720000e-01 9.465155e-08
7.730001e-01 1.046069e-07
7.740000e-01 1.291910e-07
7.750000e-01 1.635269e-07
7.760000e-01 1.948588e-07
7.770000e-01 2.138621e-07
7.780001e-01 2.223700e-07
7.790000e-01 2.307724e-07
7.800000e-01 2.479122e-07
7.810000e-01 2.729886e-07
7.820001e-01 2.966304e-07
7.830001e-01 3.095160e-07
7.840000e-01 3.101821e-07
7.850000e-01 3.050550e-07
7.860000e-01 3.013248e-07
7.870001e-01 2.996993e-07
7.880000e-01 2.936419e-07
7.890000e-01 2.755042e-07
7.900000e-01 2.437627e-07
7.910001e-01 2.047737e-07
7.920001e-01 1.674631e-07
7.930000e-01 1.356942e-07
7.940000e-01 1.052520e-07
7.950000e-01 6.825797e-08
7.960001e-01 2.102578e-08
7.970001e-01 -3.193200e-08
7.980000e-01 -8.150749e-08
7.990000e-01 -1.217893e-07
8.000000e-01 -1.546967e-07
8.010001e-01 -1.872379e-07
8.020000e-01 -2.241847e-07
8.030000e-01 -2.630582e-07
8.040000e-01 -2.958167e-07
8.050001e-01 -3.153926e-07
8.060001e-01 -3.211466e-07
8.070000e-01 -3.187154e-07
8.080000e-01 -3.147833e-07
8.090000e-01 -3.114835e-07
8.100001e-01 -3.051422e-07
8.110000e-01 -2.902078e-07
8.120000e-01 -2.647169e-07
8.130000e-01 -2.323746e-07
8.140000e-01 -1.994362e-07
8.150001e-01 -1.694472e-07
8.160000e-01 -1.408540e-07
8.170000e-01 -1.095730e-07
8.180000e-01 -7.365359e-08
8.190001e-01 -3.527691e-08
8.200001e-01 1.626780e-09
8.210000e-01 3.527101e-08
8.220000e-01 6.724211e-08
8.230000e-01 9.997838e-08
8.240001e-01 1.333387e-07
8.250000e-01 1.638613e-07
8.260000e-01 1.875097e-07
8.270000e-01 2.033629e-07
8.280001e-01 2.148186e-07
8.290001e-01 2.270682e-07
8.300000e-01 2.428374e-07
8.310000e-01 2.600819e-07
8.320000e-01 2.738877e-07
8.330001e-01 2.811405e-07
8.340001e-01 2.836650e-07
8.350000e-01 2.865983e-07
8.360000e-01 2.932103e-07
8.370000e-01 3.011565e-07
8.380001e-01 3.040688e-07
8.390000e-01 2.972116e-07
8.400000e-01 2.817885e-07
8.410000e-01 2.637529e-07
8.420001e-01 2.482995e-07
8.430001e-01 2.352470e-07
8.440000e-01 2.194321e-07
8.450000e-01 1.955229e-07
8.460000e-01 1.627989e-07
8.470001e-01 1.257601e-07
8.480000e-01 9.013046e-08
8.490000e-01 5.776688e-08
8.500000e-01 2.500874e-08
8.510001e-01 -1.383384e-08
8.520001e-01 -6.074147e-08
8.530000e-01 -1.112835e-07
8.540000e-01 -1.578006e-07
8.550000e-01 -1.957518e-07
8.560001e-01 -2.271677e-07
8.570001e-01 -2.577159e-07
8.580000e-01 -2.901751e-07
8.590000e-01 -3.207697e-07
8.600000e-01 -3.420141e-07
8.610001e-01 -3.493181e-07
8.620000e-01 -3.450439e-07
8.630000e-01 -3.362864e-07
8.640000e-01 -3.285303e-07
8.650001e-01 -3.209068e-07
8.660001e-01 -3.071829e-07
8.670000e-01 -2.815691e-07
8.680000e-01 -2.442816e-07
8.690000e-01 -2.018622e-07
8.700001e-01 -1.616860e-07
8.710001e-01 -1.254099e-07
8.720000e-01 -8.760360e-08
8.730000e-01 -4.141501e-08
8.740000e-01 1.366060e-08
8.750001e-01 6.946219e-08
8.760000e-01 1.150910e-07
8.770000e-01 1.459294e-07
8.780000e-01 1.673241e-07
8.790001e-01 1.893773e-07
