-1.200000e-01 0.000000e+00
-1.190000e-01 0.000000e+00
-1.180000e-01 0.000000e+00
-1.170000e-01 0.000000e+00
-1.160000e-01 0.000000e+00
-1.150000e-01 0.000000e+00
-1.140000e-01 0.000000e+00
-1.130000e-01 0.000000e+00
-1.120000e-01 0.000000e+00
-1.110000e-01 0.000000e+00
-1.100000e-01 0.000000e+00
-1.090000e-01 0.000000e+00
-1.080000e-01 0.000000e+00
-1.070000e-01 -1.121039e-44
-1.060000e-01 1.064987e-43
-1.050000e-01 -9.039776e-42
-1.040000e-01 -6.537057e-41
-1.030000e-01 -1.758013e-40
-1.020000e-01 -1.363469e-39
-1.010000e-01 -1.277632e-38
-1.000000e-01 -5.121765e-38
-9.900001e-02 -4.001184e-38
-9.800000e-02 3.558212e-37
-9.700000e-02 7.976514e-37
-9.600000e-02 -3.424201e-36
-9.500001e-02 -1.957295e-35
-9.400000e-02 -1.865094e-35
-9.300000e-02 1.350980e-34
-9.200001e-02 5.304351e-34
-9.100001e-02 3.326960e-34
-9.000000e-02 -3.122852e-33
-8.900000e-02 -1.058782e-32
-8.800000e-02 -6.757558e-33
-8.700000e-02 4.942456e-32
-8.600000e-02 1.666258e-31
-8.500001e-02 1.386200e-31
-8.400001e-02 -5.619595e-31
-8.300000e-02 -2.114222e-30
-8.200000e-02 -2.366173e-30
-8.100000e-02 4.438758e-30
-8.000000e-02 2.164646e-29
-7.900000e-02 3.168811e-29
-7.800000e-02 -1.885314e-29
-7.700001e-02 -1.768003e-28
-7.600001e-02 -3.335765e-28
-7.500000e-02 -7.091178e-29
-7.400000e-02 1.114759e-27
-7.300000e-02 2.786980e-27
-7.200000e-02 2.218993e-27
-7.100000e-02 -4.897604e-27
-7.000001e-02 -1.848070e-26
-6.900001e-02 -2.412295e-26
-6.800000e-02 8.109385e-27
-6.700000e-02 9.507338e-26
-6.600000e-02 1.791122e-25
-6.500000e-02 9.035697e-26
-6.400000e-02 -3.480657e-25
-6.300000e-02 -1.001990e-24
-6.200000e-02 -1.094047e-24
-6.100000e-02 5.673701e-25
-6.000000e-02 4.232103e-24
-5.900000e-02 7.173691e-24
-5.800000e-02 3.309585e-24
-5.700000e-02 -1.225532e-23
-5.600000e-02 -3.349926e-23
-5.500000e-02 -3.622237e-23
-5.400001e-02 1.175927e-23
-5.300000e-02 1.135024e-22
-5.200000e-02 1.970390e-22
-5.100000e-02 1.165247e-22
-5.000000e-02 -2.384757e-22
-4.900000e-02 -7.407706e-22
-4.800000e-02 -8.960485e-22
-4.700000e-02 -5.496995e-23
-4.600000e-02 1.907330e-21
-4.500000e-02 3.799079e-21
-4.400000e-02 3.118409e-21
-4.300000e-02 -2.248492e-21
-4.200000e-02 -1.093734e-20
-4.100000e-02 -1.600513e-20
-4.000000e-02 -7.460707e-21
-3.900000e-02 1.889397e-20
-3.800000e-02 5.059627e-20
-3.700000e-02 5.652466e-20
-3.600000e-02 4.636024e-21
-3.500000e-02 -1.024786e-19
-3.400000e-02 -1.983318e-19
-3.300000e-02 -1.681197e-19
-3.200000e-02 6.872847e-20
-3.100000e-02 4.419076e-19
-3.000000e-02 6.770531e-19
-2.900000e-02 4.150270e-19
-2.800000e-02 -4.836275e-19
-2.700000e-02 -1.621134e-18
-2.600000e-02 -2.049223e-18
-2.500000e-02 -8.025015e-19
-2.400000e-02 2.157151e-18
-2.300000e-02 5.230691e-18
-2.200000e-02 5.570984e-18
-2.100000e-02 9.470937e-19
-2.000000e-02 -7.722649e-18
-1.900000e-02 -1.514663e-17
-1.800000e-02 -1.374174e-17
-1.700000e-02 8.492630e-19
-1.600000e-02 2.380178e-17
-1.500000e-02 3.990863e-17
-1.400000e-02 3.101032e-17
-1.300000e-02 -9.676729e-18
-1.200000e-02 -6.522842e-17
-1.100000e-02 -9.664307e-17
-9.999998e-03 -6.446074e-17
-8.999996e-03 3.792594e-17
-8.000001e-03 1.619094e-16
-6.999999e-03 2.167217e-16
-5.999997e-03 1.240814e-16
-5.000003e-03 -1.115893e-16
-4.000001e-03 -3.684474e-16
-2.999999e-03 -4.526076e-16
-1.999997e-03 -2.218197e-16
-1.000002e-03 2.791680e-16
0.000000e+00 7.755730e-16
1.000002e-03 8.840136e-16
2.000004e-03 3.677286e-16
2.999999e-03 -6.233731e-16
4.000001e-03 -1.521441e-15
4.999995e-03 -1.619900e-15
5.999997e-03 -5.597623e-16
6.999999e-03 1.277354e-15
8.000001e-03 2.801778e-15
9.000003e-03 2.792508e-15
1.000001e-02 7.614905e-16
1.100001e-02 -2.451544e-15
1.199999e-02 -4.883229e-15
1.300000e-02 -4.543539e-15
1.400000e-02 -8.616341e-16
1.500000e-02 4.483275e-15
1.600000e-02 8.134567e-15
1.700000e-02 7.013468e-15
1.800001e-02 6.163821e-16
1.900001e-02 -7.921520e-15
2.000000e-02 -1.309928e-14
2.100000e-02 -1.036085e-14
2.200000e-02 4.056813e-16
2.300000e-02 1.364211e-14
2.400000e-02 2.062315e-14
2.500001e-02 1.484193e-14
2.600001e-02 -2.834115e-15
2.700000e-02 -2.294878e-14
2.800000e-02 -3.200265e-14
2.900000e-02 -2.094285e-14
3.000000e-02 7.429285e-15
3.100000e-02 3.758093e-14
3.200001e-02 4.904379e-14
3.300001e-02 2.945947e-14
3.400001e-02 -1.498968e-14
3.500000e-02 -5.959111e-14
3.600000e-02 -7.389709e-14
3.700000e-02 -4.132259e-14
3.800000e-02 2.644275e-14
3.900000e-02 9.123492e-14
4.000001e-02 1.086859e-13
4.100001e-02 5.703332e-14
4.200000e-02 -4.339599e-14
4.300000e-02 -1.352407e-13
4.400000e-02 -1.552959e-13
4.500000e-02 -7.595733e-14
4.600000e-02 6.913435e-14
4.700001e-02 1.957468e-13
4.800001e-02 2.158974e-13
4.900001e-02 9.621908e-14
5.000000e-02 -1.093503e-13
5.100000e-02 -2.794571e-13
5.200000e-02 -2.942157e-13
5.300000e-02 -1.157681e-13
5.400001e-02 1.715330e-13
5.500001e-02 3.956267e-13
5.600001e-02 3.961494e-13
5.700000e-02 1.335834e-13
5.800000e-02 -2.632762e-13
5.900000e-02 -5.540460e-13
6.000000e-02 -5.277129e-13
6.100000e-02 -1.480533e-13
6.200001e-02 3.927893e-13
6.300001e-02 7.637257e-13
6.400001e-02 6.914417e-13
6.500000e-02 1.512686e-13
6.600000e-02 -5.756568e-13
6.700000e-02 -1.038775e-12
6.800000e-02 -8.889912e-13
6.900001e-02 -1.262421e-13
7.000001e-02 8.439545e-13
7.100001e-02 1.412997e-12
7.200000e-02 1.138295e-12
7.300000e-02 6.193570e-14
7.400000e-02 -1.238939e-12
7.500000e-02 -1.945349e-12
7.600001e-02 -1.494499e-12
7.700001e-02 1.180317e-14
7.800001e-02 1.768912e-12
7.900001e-02 2.682395e-12
8.000000e-02 2.031376e-12
8.100000e-02 -1.117400e-14
8.200000e-02 -2.358619e-12
8.300000e-02 -3.575414e-12
8.400001e-02 -2.744143e-12
8.500001e-02 -1.183887e-13
8.600001e-02 2.886624e-12
8.700001e-02 4.446337e-12
8.800000e-02 3.434688e-12
8.900000e-02 2.213284e-13
9.000000e-02 -3.392019e-12
9.100001e-02 -5.160292e-12
9.200001e-02 -3.784478e-12
9.300001e-02 1.457437e-13
9.400001e-02 4.318515e-12
9.500000e-02 6.001904e-12
9.600000e-02 3.776679e-12
9.700000e-02 -1.370192e-12
9.800000e-02 -6.379767e-12
9.900001e-02 -7.846447e-12
1.000000e-01 -4.195510e-12
1.010000e-01 3.033560e-12
1.020000e-01 9.736763e-12
1.030000e-01 1.150922e-11
1.040000e-01 6.396715e-12
1.050000e-01 -3.546075e-12
1.060000e-01 -1.301273e-11
1.070000e-01 -1.630874e-11
1.080000e-01 -1.077054e-11
1.090000e-01 1.319139e-12
1.100000e-01 1.364599e-11
1.110000e-01 1.930225e-11
1.120000e-01 1.484874e-11
1.130000e-01 2.555045e-12
1.140000e-01 -1.069136e-11
1.150000e-01 -1.735635e-11
1.160000e-01 -1.382714e-11
1.170000e-01 -2.755845e-12
1.180000e-01 8.437815e-12
1.190000e-01 1.219512e-11
1.200000e-01 5.814243e-12
1.210000e-01 -6.400214e-12
1.220000e-01 -1.546806e-11
1.230000e-01 -1.341306e-11
1.240000e-01 1.116534e-12
1.250000e-01 2.097338e-11
1.260000e-01 3.399601e-11
1.270000e-01 3.016686e-11
1.280000e-01 8.239760e-12
1.290000e-01 -2.241586e-11
1.300000e-01 -4.634975e-11
1.310000e-01 -5.064390e-11
1.320000e-01 -3.256108e-11
1.330000e-01 -1.434601e-12
1.340000e-01 2.668087e-11
1.350000e-01 3.859039e-11
1.360000e-01 3.189462e-11
1.370000e-01 1.611856e-11
1.380000e-01 5.976743e-12
1.390000e-01 1.080924e-11
1.400000e-01 2.706035e-11
1.410000e-01 3.921625e-11
1.420000e-01 2.945726e-11
1.430000e-01 -9.533353e-12
1.440000e-01 -6.687365e-11
1.450000e-01 -1.167074e-10
1.460000e-01 -1.316270e-10
1.470000e-01 -9.885323e-11
1.480000e-01 -2.917350e-11
1.490000e-01 4.768358e-11
1.500000e-01 9.943615e-11
1.510000e-01 1.098814e-10
1.520000e-01 8.800222e-11
1.530000e-01 6.099179e-11
1.540000e-01 5.466153e-11
1.550000e-01 7.342663e-11
1.560000e-01 9.367310e-11
1.570000e-01 7.692363e-11
1.580000e-01 -3.325965e-12
1.590000e-01 -1.373494e-10
1.600000e-01 -2.745033e-10
1.610000e-01 -3.448257e-10
1.620000e-01 -2.975926e-10
1.630000e-01 -1.352820e-10
1.640000e-01 7.892276e-11
1.650000e-01 2.483155e-10
1.660000e-01 2.928373e-10
1.670000e-01 1.946236e-10
1.680000e-01 1.173323e-11
1.690000e-01 -1.513776e-10
1.700000e-01 -2.025470e-10
1.710000e-01 -1.173509e-10
1.720000e-01 4.235901e-11
1.730000e-01 1.609084e-10
1.740000e-01 1.367522e-10
1.750000e-01 -5.191825e-11
1.760000e-01 -3.239269e-10
1.770000e-01 -5.327743e-10
1.780000e-01 -5.471427e-10
1.790000e-01 -3.310001e-10
1.800000e-01 2.562167e-11
1.810000e-01 3.457263e-10
1.820000e-01 4.580865e-10
1.830000e-01 2.943175e-10
1.840000e-01 -6.640255e-11
1.850000e-01 -4.346297e-10
1.860000e-01 -6.125849e-10
1.870000e-01 -5.025904e-10
1.880000e-01 -1.645815e-10
1.890000e-01 2.133131e-10
1.900000e-01 4.202465e-10
1.910000e-01 3.472320e-10
1.920000e-01 5.426704e-11
1.930000e-01 -2.627798e-10
1.940000e-01 -3.785119e-10
1.950000e-01 -1.676164e-10
1.960000e-01 3.079710e-10
1.970000e-01 8.212894e-10
1.980000e-01 1.102293e-09
1.990000e-01 1.000222e-09
2.000000e-01 5.704255e-10
2.010000e-01 7.210571e-11
2.020000e-01 -1.680565e-10
2.030000e-01 7.465717e-11
2.040000e-01 7.891532e-10
2.050000e-01 1.706167e-09
2.060000e-01 2.450243e-09
2.070000e-01 2.716986e-09
2.080000e-01 2.395941e-09
2.090000e-01 1.648436e-09
2.100000e-01 8.861498e-10
2.110000e-01 4.936989e-10
2.120000e-01 6.495955e-10
2.130000e-01 1.247359e-09
2.140000e-01 2.015064e-09
2.150000e-01 2.591636e-09
2.160000e-01 2.727758e-09
2.170000e-01 2.344783e-09
2.180000e-01 1.569443e-09
2.190000e-01 7.329519e-10
2.200000e-01 2.142420e-10
2.210000e-01 7.112066e-11
2.220000e-01 2.070728e-10
2.230000e-01 3.075364e-10
2.240000e-01 7.317258e-11
2.250000e-01 -6.086394e-10
2.260000e-01 -1.642449e-09
2.270000e-01 -3.000500e-09
2.280000e-01 -4.158591e-09
2.290000e-01 -4.727779e-09
2.300000e-01 -4.860049e-09
2.310000e-01 -4.881805e-09
2.320000e-01 -5.127616e-09
2.330000e-01 -5.594357e-09
2.340000e-01 -6.105709e-09
2.350000e-01 -6.730554e-09
2.360000e-01 -7.676606e-09
2.370000e-01 -8.855547e-09
2.380000e-01 -9.120568e-09
2.390000e-01 -8.692928e-09
2.400000e-01 -7.840571e-09
2.410000e-01 -7.231472e-09
2.420000e-01 -7.164290e-09
2.430000e-01 -7.093647e-09
2.440000e-01 -6.841402e-09
2.450000e-01 -6.299988e-09
2.460000e-01 -5.397437e-09
2.470000e-01 -3.884542e-09
2.480000e-01 -1.660526e-09
2.490000e-01 1.039183e-09
2.500000e-01 3.019971e-09
2.510000e-01 4.248854e-09
2.520000e-01 5.061864e-09
2.530000e-01 5.795703e-09
2.540000e-01 6.811918e-09
2.550000e-01 8.266811e-09
2.560000e-01 1.022176e-08
2.570000e-01 1.292634e-08
2.580000e-01 1.587539e-08
2.590000e-01 1.839668e-08
2.600000e-01 1.920041e-08
2.610000e-01 1.816870e-08
2.620000e-01 1.648922e-08
2.630000e-01 1.548857e-08
2.640000e-01 1.554991e-08
2.650000e-01 1.609057e-08
2.660000e-01 1.664988e-08
2.670000e-01 1.692653e-08
2.680000e-01 1.638322e-08
2.690000e-01 1.465501e-08
2.700000e-01 1.147606e-08
2.710000e-01 7.648451e-09
2.720000e-01 4.385575e-09
2.730000e-01 2.285535e-09
2.740000e-01 1.009870e-09
2.750000e-01 -2.773088e-10
2.760000e-01 -2.684947e-09
2.770000e-01 -5.978820e-09
2.780000e-01 -9.272958e-09
2.790000e-01 -1.235287e-08
2.800000e-01 -1.545341e-08
2.810000e-01 -1.781840e-08
2.820000e-01 -1.830500e-08
2.830000e-01 -1.784209e-08
2.840000e-01 -1.702984e-08
2.850000e-01 -1.804286e-08
2.860000e-01 -2.061461e-08
2.870000e-01 -2.220540e-08
2.880000e-01 -2.196220e-08
2.890000e-01 -2.084745e-08
2.900000e-01 -1.969856e-08
2.910000e-01 -1.810482e-08
2.920000e-01 -1.544936e-08
2.930000e-01 -1.257917e-08
2.940000e-01 -1.045043e-08
2.950000e-01 -9.761253e-09
2.960000e-01 -8.930146e-09
2.970000e-01 -6.444876e-09
2.980000e-01 -3.142487e-09
2.990000e-01 -1.280334e-09
3.000000e-01 2.171063e-11
3.010000e-01 1.952492e-09
3.020000e-01 5.522496e-09
3.030000e-01 8.491403e-09
3.040000e-01 9.326603e-09
3.050000e-01 9.059423e-09
3.060000e-01 9.676069e-09
3.070000e-01 1.137633e-08
3.080000e-01 1.247345e-08
3.090000e-01 1.205443e-08
3.100000e-01 1.168092e-08
3.110000e-01 1.245149e-08
3.120000e-01 1.310520e-08
3.130000e-01 1.241822e-08
3.140000e-01 1.021135e-08
3.150000e-01 8.877384e-09
3.160000e-01 9.137951e-09
3.170000e-01 9.492832e-09
3.180000e-01 8.166728e-09
3.190000e-01 5.966506e-09
3.200000e-01 4.891073e-09
3.210000e-01 5.038631e-09
3.220000e-01 4.531320e-09
3.230000e-01 2.539527e-09
3.240000e-01 6.032137e-10
3.250000e-01 2.827804e-10
3.260000e-01 9.652634e-10
3.270000e-01 8.463807e-10
3.280000e-01 -3.379605e-10
3.290000e-01 -1.114379e-09
3.300000e-01 -6.545284e-10
3.310000e-01 -3.834124e-10
3.320000e-01 -1.685532e-09
3.330000e-01 -3.572153e-09
3.340000e-01 -3.872668e-09
3.350000e-01 -2.156423e-09
3.360000e-01 -6.127516e-10
3.370000e-01 -8.576055e-10
3.380000e-01 -1.971619e-09
3.390000e-01 -2.059946e-09
3.400000e-01 -1.255665e-09
3.410000e-01 -1.346066e-09
3.420000e-01 -2.682551e-09
3.430000e-01 -3.580896e-09
3.440000e-01 -2.938835e-09
3.450000e-01 -2.068385e-09
3.460000e-01 -2.618084e-09
3.470000e-01 -4.032845e-09
3.480000e-01 -4.359292e-09
3.490000e-01 -3.162312e-09
3.500000e-01 -2.210685e-09
3.510000e-01 -2.810175e-09
3.520000e-01 -3.821797e-09
3.530000e-01 -3.526816e-09
3.540000e-01 -2.167772e-09
3.550000e-01 -1.686874e-09
3.560000e-01 -2.773135e-09
3.570000e-01 -3.852778e-09
3.580000e-01 -3.419242e-09
3.590000e-01 -2.031049e-09
3.600000e-01 -1.390800e-09
3.610000e-01 -1.647909e-09
3.620000e-01 -1.352939e-09
3.630000e-01 -1.995382e-11
3.640000e-01 1.129753e-09
3.650000e-01 1.040193e-09
3.660000e-01 6.833680e-10
3.670000e-01 1.649202e-09
3.680000e-01 3.556928e-09
3.690000e-01 4.501261e-09
3.700000e-01 3.636140e-09
3.710000e-01 2.506626e-09
3.720000e-01 2.960643e-09
3.730000e-01 4.705438e-09
3.740000e-01 6.064308e-09
3.750000e-01 6.514853e-09
3.760000e-01 7.173107e-09
3.770000e-01 8.654226e-09
3.780000e-01 9.910053e-09
3.790000e-01 9.749449e-09
3.800000e-01 8.709364e-09
3.810000e-01 8.339526e-09
3.820000e-01 8.978532e-09
3.830000e-01 9.575928e-09
3.840000e-01 9.717922e-09
3.850000e-01 1.056230e-08
3.860000e-01 1.312404e-08
3.870000e-01 1.641740e-08
3.880000e-01 1.846280e-08
3.890000e-01 1.888327e-08
3.900000e-01 1.931437e-08
3.910000e-01 2.124045e-08
3.920000e-01 2.432103e-08
3.930000e-01 2.741592e-08
3.940000e-01 3.046910e-08
3.950000e-01 3.432137e-08
3.960000e-01 3.908349e-08
3.970000e-01 4.378740e-08
3.980000e-01 4.801814e-08
3.990000e-01 5.280708e-08
4.000000e-01 5.920037e-08
4.010000e-01 6.667005e-08
4.020000e-01 7.371227e-08
4.030000e-01 7.993913e-08
4.040000e-01 8.648749e-08
4.050000e-01 9.414271e-08
4.060000e-01 1.020462e-07
4.070000e-01 1.089675e-07
4.080000e-01 1.151575e-07
4.090000e-01 1.220051e-07
4.100000e-01 1.301196e-07
4.110000e-01 1.385106e-07
4.120000e-01 1.460376e-07
4.130000e-01 1.526460e-07
4.140000e-01 1.586832e-07
4.150000e-01 1.636763e-07
4.160000e-01 1.666558e-07
4.170000e-01 1.675835e-07
4.180000e-01 1.676526e-07
4.190000e-01 1.672779e-07
4.200000e-01 1.652879e-07
4.210000e-01 1.602239e-07
4.220001e-01 1.521694e-07
4.230000e-01 1.422814e-07
4.240000e-01 1.310618e-07
4.250000e-01 1.172812e-07
4.260000e-01 9.936048e-08
4.270000e-01 7.747440e-08
4.280000e-01 5.216134e-08
4.290000e-01 2.341403e-08
4.300000e-01 -9.509677e-09
4.310000e-01 -4.660978e-08
4.320000e-01 -8.700590e-08
4.330000e-01 -1.298031e-07
4.340000e-01 -1.759472e-07
4.350000e-01 -2.265879e-07
4.360000e-01 -2.812449e-07
4.370000e-01 -3.384048e-07
4.380000e-01 -3.970345e-07
4.390000e-01 -4.577159e-07
4.400000e-01 -5.206093e-07
4.410000e-01 -5.848269e-07
4.420000e-01 -6.488408e-07
4.430000e-01 -7.117633e-07
4.440000e-01 -7.736671e-07
4.450000e-01 -8.341449e-07
4.460000e-01 -8.908683e-07
4.470000e-01 -9.425421e-07
4.480000e-01 -9.885698e-07
4.490000e-01 -1.028238e-06
4.500000e-01 -1.060733e-06
4.510000e-01 -1.083637e-06
4.520000e-01 -1.096487e-06
4.530000e-01 -1.099033e-06
4.540000e-01 -1.091285e-06
4.550000e-01 -1.070817e-06
4.560000e-01 -1.036424e-06
4.570000e-01 -9.879768e-07
4.580000e-01 -9.268770e-07
4.590001e-01 -8.527422e-07
4.600000e-01 -7.640374e-07
4.610000e-01 -6.605769e-07
4.620000e-01 -5.431211e-07
4.630000e-01 -4.135218e-07
4.640000e-01 -2.725574e-07
4.650000e-01 -1.201988e-07
4.660000e-01 4.153117e-08
4.670000e-01 2.086745e-07
4.680000e-01 3.801251e-07
4.690000e-01 5.559705e-07
4.700000e-01 7.355120e-07
4.710000e-01 9.144424e-07
4.720000e-01 1.089007e-06
4.730000e-01 1.257547e-06
4.740000e-01 1.419859e-06
4.750000e-01 1.573353e-06
4.760000e-01 1.713750e-06
4.770000e-01 1.838082e-06
4.780000e-01 1.946231e-06
4.790000e-01 2.038083e-06
4.800000e-01 2.110610e-06
4.810000e-01 2.160668e-06
4.820001e-01 2.186513e-06
4.830000e-01 2.189481e-06
4.840000e-01 2.170564e-06
4.850000e-01 2.128247e-06
4.860000e-01 2.061890e-06
4.870000e-01 1.973705e-06
4.880000e-01 1.866807e-06
4.890000e-01 1.741631e-06
4.900000e-01 1.595763e-06
4.910000e-01 1.430744e-06
4.920000e-01 1.250475e-06
4.930000e-01 1.058972e-06
4.940000e-01 8.585048e-07
4.950000e-01 6.496848e-07
4.960001e-01 4.359026e-07
4.970000e-01 2.215384e-07
4.980000e-01 8.651114e-09
4.990000e-01 -2.021261e-07
5.000000e-01 -4.076292e-07
5.010000e-01 -6.026166e-07
5.020000e-01 -7.849303e-07
5.030000e-01 -9.556970e-07
5.040000e-01 -1.114880e-06
5.050000e-01 -1.258479e-06
5.060000e-01 -1.383451e-06
5.070000e-01 -1.488399e-06
5.080000e-01 -1.575856e-06
5.090000e-01 -1.645298e-06
5.100001e-01 -1.695502e-06
5.110000e-01 -1.724955e-06
5.120000e-01 -1.734297e-06
5.130000e-01 -1.725828e-06
5.140000e-01 -1.700566e-06
5.150000e-01 -1.658540e-06
5.160000e-01 -1.602486e-06
5.170000e-01 -1.534529e-06
5.180000e-01 -1.454930e-06
5.190001e-01 -1.363136e-06
5.200000e-01 -1.260516e-06
5.210000e-01 -1.151115e-06
5.220000e-01 -1.039443e-06
5.230000e-01 -9.266078e-07
5.240000e-01 -8.116476e-07
5.250000e-01 -6.932823e-07
5.260000e-01 -5.732873e-07
5.270000e-01 -4.559697e-07
5.280000e-01 -3.442692e-07
5.290000e-01 -2.383895e-07
5.300000e-01 -1.381122e-07
5.310000e-01 -4.387402e-08
5.320000e-01 4.394678e-08
5.330001e-01 1.256121e-07
5.340000e-01 2.004963e-07
5.350000e-01 2.667657e-07
5.360000e-01 3.227469e-07
5.370000e-01 3.689493e-07
5.380000e-01 4.087051e-07
5.390000e-01 4.439717e-07
5.400000e-01 4.730427e-07
5.410000e-01 4.930189e-07
5.420001e-01 5.036054e-07
5.430000e-01 5.075181e-07
5.440000e-01 5.077445e-07
5.450000e-01 5.046418e-07
5.460000e-01 4.970370e-07
5.470001e-01 4.844551e-07
5.480000e-01 4.679860e-07
5.490000e-01 4.488484e-07
5.500000e-01 4.270660e-07
5.510000e-01 4.032881e-07
5.520000e-01 3.793102e-07
5.530000e-01 3.558416e-07
5.540000e-01 3.315763e-07
5.550000e-01 3.046225e-07
5.560001e-01 2.759371e-07
5.570000e-01 2.493107e-07
5.580000e-01 2.266679e-07
5.590000e-01 2.058878e-07
5.600000e-01 1.834196e-07
5.610000e-01 1.590015e-07
5.620000e-01 1.359040e-07
5.630000e-01 1.166409e-07
5.640000e-01 1.004373e-07
5.650001e-01 8.550705e-08
5.660000e-01 7.172639e-08
5.670000e-01 5.980473e-08
5.680000e-01 4.899266e-08
5.690000e-01 3.762761e-08
5.700001e-01 2.601882e-08
5.710000e-01 1.649460e-08
5.720000e-01 1.004446e-08
5.730000e-01 4.642061e-09
5.740000e-01 -1.880835e-09
5.750000e-01 -8.396455e-09
5.760000e-01 -1.198714e-08
5.770000e-01 -1.193985e-08
5.780000e-01 -1.120679e-08
5.790001e-01 -1.288754e-08
5.800000e-01 -1.659646e-08
5.810000e-01 -1.953595e-08
5.820000e-01 -2.031993e-08
5.830000e-01 -2.044726e-08
5.840001e-01 -2.123852e-08
5.850000e-01 -2.204979e-08
5.860000e-01 -2.198249e-08
5.870000e-01 -2.186789e-08
5.880000e-01 -2.295656e-08
5.890000e-01 -2.437537e-08
5.900000e-01 -2.386696e-08
5.910000e-01 -2.127399e-08
5.920000e-01 -1.934586e-08
5.930001e-01 -2.026263e-08
5.940000e-01 -2.246543e-08
5.950000e-01 -2.273009e-08
5.960000e-01 -2.048910e-08
5.970000e-01 -1.860190e-08
5.980000e-01 -1.940680e-08
5.990000e-01 -2.160778e-08
6.000000e-01 -2.237311e-08
6.010000e-01 -2.115121e-08
6.020001e-01 -1.996568e-08
6.030000e-01 -1.986382e-08
6.040000e-01 -1.963281e-08
6.050000e-01 -1.807393e-08
6.060000e-01 -1.615308e-08
6.070001e-01 -1.533363e-08
6.080000e-01 -1.488888e-08
6.090000e-01 -1.297121e-08
6.100000e-01 -9.993983e-09
6.110000e-01 -8.845291e-09
6.120000e-01 -1.083026e-08
6.130000e-01 -1.304306e-08
6.140000e-01 -1.156468e-08
6.150000e-01 -6.587925e-09
6.160001e-01 -2.251909e-09
6.170000e-01 -1.416538e-09
6.180000e-01 -2.476099e-09
6.190000e-01 -2.213028e-09
6.200000e-01 -6.457412e-11
6.210001e-01 2.084334e-09
6.220000e-01 3.393325e-09
6.230000e-01 4.888534e-09
6.240000e-01 6.773462e-09
6.250001e-01 7.291646e-09
6.260000e-01 5.585662e-09
6.270000e-01 3.947889e-09
6.280000e-01 5.230959e-09
6.290000e-01 8.439883e-09
6.300001e-01 9.330506e-09
6.310000e-01 5.982656e-09
6.320000e-01 1.689386e-09
6.330000e-01 8.787993e-10
6.340000e-01 3.549303e-09
6.350001e-01 5.697984e-09
6.360000e-01 4.798949e-09
6.370000e-01 2.394017e-09
6.380000e-01 8.253664e-10
6.390001e-01 -3.180958e-10
6.400000e-01 -2.649358e-09
6.410000e-01 -5.563152e-09
6.420000e-01 -6.841447e-09
6.430000e-01 -6.441155e-09
6.440001e-01 -7.008566e-09
6.450000e-01 -9.688961e-09
6.460000e-01 -1.165370e-08
6.470000e-01 -9.746032e-09
6.480000e-01 -5.484139e-09
6.490000e-01 -3.774630e-09
6.500000e-01 -6.572009e-09
6.510000e-01 -1.030457e-08
6.520000e-01 -1.069293e-08
6.530001e-01 -8.168740e-09
6.540000e-01 -6.506184e-09
6.550000e-01 -7.185804e-09
6.560000e-01 -7.922495e-09
6.570000e-01 -6.817231e-09
6.580001e-01 -5.198672e-09
6.590000e-01 -4.823733e-09
6.600000e-01 -4.435378e-09
6.610000e-01 -1.632202e-09
6.620001e-01 2.594106e-09
6.630000e-01 4.269168e-09
6.640000e-01 1.970420e-09
6.650000e-01 -6.034497e-10
6.660000e-01 5.737775e-10
6.670001e-01 4.251660e-09
6.680000e-01 5.705829e-09
6.690000e-01 3.448690e-09
6.700000e-01 1.249759e-09
6.710000e-01 2.631737e-09
6.720001e-01 6.089465e-09
6.730000e-01 7.770382e-09
6.740000e-01 7.140386e-09
6.750000e-01 7.036249e-09
6.760001e-01 8.553286e-09
6.770000e-01 9.079997e-09
6.780000e-01 6.685354e-09
6.790000e-01 3.764399e-09
6.800000e-01 3.792650e-09
6.810001e-01 5.898755e-09
6.820000e-01 5.810989e-09
6.830000e-01 2.232753e-09
6.840000e-01 -8.659526e-10
6.850001e-01 1.492140e-10
6.860000e-01 3.176126e-09
6.870000e-01 3.243031e-09
6.880000e-01 -4.384901e-10
6.890000e-01 -3.575281e-09
6.900001e-01 -3.209891e-09
6.910000e-01 -1.784201e-09
6.920000e-01 -3.041521e-09
6.930000e-01 -6.253970e-09
6.940000e-01 -7.583367e-09
6.950001e-01 -6.195592e-09
6.960000e-01 -5.484935e-09
6.970000e-01 -7.480367e-09
6.980000e-01 -9.298446e-09
6.990001e-01 -7.477013e-09
7.000000e-01 -3.695845e-09
7.010000e-01 -2.790642e-09
7.020000e-01 -5.613543e-09
7.030000e-01 -7.437421e-09
7.040001e-01 -4.658290e-09
7.050000e-01 -3.331024e-11
7.060000e-01 1.302169e-09
7.070000e-01 -8.602967e-10
7.080001e-01 -1.958398e-09
7.090001e-01 2.504805e-10
7.100000e-01 2.516828e-09
7.110000e-01 1.488900e-09
7.120000e-01 -8.115251e-10
7.130001e-01 -1.250555e-12
7.140000e-01 3.808793e-09
7.150000e-01 5.917542e-09
7.160000e-01 4.019967e-09
7.170000e-01 1.614524e-09
7.180001e-01 2.516316e-09
7.190000e-01 4.852097e-09
7.200000e-01 3.853927e-09
7.210000e-01 -6.197070e-10
7.220001e-01 -3.359276e-09
7.230000e-01 -1.276447e-09
7.240000e-01 2.063473e-09
7.250000e-01 1.711527e-09
7.260000e-01 -1.446153e-09
7.270001e-01 -2.321485e-09
7.280000e-01 4.876313e-10
7.290000e-01 2.586802e-09
7.300000e-01 6.029381e-10
7.310000e-01 -2.550166e-09
7.320001e-01 -2.070664e-09
7.330000e-01 1.374190e-09
7.340000e-01 2.638757e-09
7.350000e-01 2.842171e-12
7.360001e-01 -2.069100e-09
7.370000e-01 3.131504e-10
7.380000e-01 4.445866e-09
7.390000e-01 4.913829e-09
7.400000e-01 1.590422e-09
7.410001e-01 -3.689991e-10
7.420000e-01 1.553332e-09
7.430000e-01 3.568999e-09
7.440000e-01 1.778389e-09
7.450001e-01 -1.375639e-09
7.460001e-01 -5.813092e-10
7.470000e-01 3.958348e-09
7.480000e-01 6.088641e-09
7.490000e-01 2.355094e-09
7.500001e-01 -2.919535e-09
7.510000e-01 -3.702667e-09
7.520000e-01 -5.185683e-10
7.530000e-01 1.093682e-09
7.540000e-01 -8.548966e-10
7.550001e-01 -2.308425e-09
7.560000e-01 -1.446523e-10
7.570000e-01 2.574055e-09
7.580000e-01 1.385061e-09
7.590001e-01 -2.240014e-09
7.600001e-01 -2.753367e-09
7.610000e-01 8.760423e-10
7.620000e-01 3.058176e-09
7.630000e-01 -2.766996e-10
7.640001e-01 -5.272597e-09
7.650000e-01 -5.349591e-09
7.660000e-01 -6.721450e-10
7.670000e-01 2.060588e-09
7.680001e-01 -8.250396e-10
7.690001e-01 -5.110309e-09
7.700000e-01 -5.370168e-09
7.710000e-01 -2.831371e-09
7.720000e-01 -2.775153e-09
7.730001e-01 -6.024280e-09
7.740000e-01 -7.830479e-09
7.750000e-01 -5.687610e-09
7.760000e-01 -3.605209e-09
7.770000e-01 -5.871229e-09
7.780001e-01 -9.861793e-09
7.790000e-01 -9.399628e-09
7.800000e-01 -4.067005e-09
7.810000e-01 -3.222027e-10
7.820001e-01 -2.229669e-09
7.830001e-01 -5.429101e-09
7.840000e-01 -3.469424e-09
7.850000e-01 2.718807e-09
7.860000e-01 6.226983e-09
7.870001e-01 4.247113e-09
7.880000e-01 1.899537e-09
7.890000e-01 4.410680e-09
7.900000e-01 9.611782e-09
7.910001e-01 1.175597e-08
7.920001e-01 1.029501e-08
7.930000e-01 1.005643e-08
7.940000e-01 1.299502e-08
7.950000e-01 1.479593e-08
7.960001e-01 1.190753e-08
7.970001e-01 7.940287e-09
7.980000e-01 8.849348e-09
7.990000e-01 1.360350e-08
8.000000e-01 1.473418e-08
8.010001e-01 8.799780e-09
8.020000e-01 1.640672e-09
8.030000e-01 4.440039e-10
8.040000e-01 3.951669e-09
8.050001e-01 4.792145e-09
8.060001e-01 1.241425e-10
8.070000e-01 -5.036863e-09
8.080000e-01 -5.947111e-09
8.090000e-01 -4.856759e-09
8.100001e-01 -6.466222e-09
8.110000e-01 -9.944799e-09
8.120000e-01 -1.033337e-08
8.130000e-01 -7.054943e-09
8.140000e-01 -5.755485e-09
8.150001e-01 -9.892792e-09
8.160000e-01 -1.482604e-08
8.170000e-01 -1.404863e-08
8.180000e-01 -8.829044e-09
8.190001e-01 -6.713687e-09
8.200001e-01 -1.063050e-08
8.210000e-01 -1.450941e-08
8.220000e-01 -1.198797e-08
8.230000e-01 -5.508568e-09
8.240001e-01 -2.676160e-09
8.250000e-01 -5.547193e-09
8.260000e-01 -8.498318e-09
8.270000e-01 -7.055178e-09
8.280001e-01 -3.917123e-09
8.290001e-01 -3.637354e-09
8.300000e-01 -5.067690e-09
8.310000e-01 -3.636629e-09
8.320000e-01 4.777974e-10
8.330001e-01 1.826621e-09
8.340001e-01 -1.589584e-09
8.350000e-01 -3.895551e-09
8.360000e-01 9.051035e-10
8.370000e-01 9.732247e-09
8.380001e-01 1.374460e-08
8.390000e-01 1.017952e-08
8.400000e-01 5.976418e-09
8.410000e-01 8.062202e-09
8.420001e-01 1.425043e-08
8.430001e-01 1.728270e-08
8.440000e-01 1.521884e-08
8.450000e-01 1.298918e-08
8.460000e-01 1.408227e-08
8.470001e-01 1.583918e-08
8.480000e-01 1.505598e-08
8.490000e-01 1.397644e-08
8.500000e-01 1.644113e-08
8.510001e-01 2.022415e-08
8.520001e-01 1.855468e-08
8.530000e-01 9.930226e-09
8.540000e-01 1.643780e-09
8.550000e-01 6.423058e-10
8.560001e-01 4.146663e-09
8.570001e-01 3.571060e-09
8.580000e-01 -3.631506e-09
8.590000e-01 -1.089489e-08
8.600000e-01 -1.207842e-08
8.610001e-01 -9.510018e-09
8.620000e-01 -9.542880e-09
8.630000e-01 -1.328248e-08
8.640000e-01 -1.627876e-08
8.650001e-01 -1.639752e-08
8.660001e-01 -1.685552e-08
8.670000e-01 -1.993577e-08
8.680000e-01 -2.212896e-08
8.690000e-01 -1.925501e-08
8.700001e-01 -1.388192e-08
8.710001e-01 -1.273225e-08
8.720000e-01 -1.679054e-08
8.730000e-01 -1.884617e-08
8.740000e-01 -1.311084e-08
8.750001e-01 -3.638711e-09
8.760000e-01 6.824905e-10
8.770000e-01 -2.250928e-09
8.780000e-01 -5.652709e-09
8.790001e-01 -3.530175e-09
