-1.200000e-01 0.000000e+00
-1.190000e-01 0.000000e+00
-1.180000e-01 0.000000e+00
-1.170000e-01 0.000000e+00
-1.160000e-01 0.000000e+00
-1.150000e-01 0.000000e+00
-1.140000e-01 0.000000e+00
-1.130000e-01 0.000000e+00
-1.120000e-01 0.000000e+00
-1.110000e-01 0.000000e+00
-1.100000e-01 0.000000e+00
-1.090000e-01 0.000000e+00
-1.080000e-01 0.000000e+00
-1.070000e-01 0.000000e+00
-1.060000e-01 0.000000e+00
-1.050000e-01 0.000000e+00
-1.040000e-01 0.000000e+00
-1.030000e-01 0.000000e+00
-1.020000e-01 0.000000e+00
-1.010000e-01 0.000000e+00
-1.000000e-01 0.000000e+00
-9.900001e-02 0.000000e+00
-9.800000e-02 0.000000e+00
-9.700000e-02 0.000000e+00
-9.600000e-02 0.000000e+00
-9.500001e-02 0.000000e+00
-9.400000e-02 0.000000e+00
-9.300000e-02 -1.401298e-45
-9.200001e-02 -5.605194e-45
-9.100001e-02 -2.662467e-44
-9.000000e-02 -7.987401e-44
-8.900000e-02 -3.783506e-44
-8.800000e-02 1.043967e-42
-8.700000e-02 6.301639e-42
-8.600000e-02 1.983678e-41
-8.500001e-02 2.753551e-41
-8.400001e-02 -7.025550e-41
-8.300000e-02 -5.607044e-40
-8.200000e-02 -1.774938e-39
-8.100000e-02 -2.815346e-39
-8.000000e-02 1.960429e-39
-7.900000e-02 2.676728e-38
-7.800000e-02 8.561503e-38
-7.700001e-02 1.413684e-37
-7.600001e-02 -7.828075e-39
-7.500000e-02 -8.124325e-37
-7.400000e-02 -2.650908e-36
-7.300000e-02 -4.460806e-36
-7.200000e-02 -1.216247e-36
-7.100000e-02 1.717975e-35
-7.000001e-02 5.804833e-35
-6.900001e-02 9.930459e-35
-6.800000e-02 4.802782e-35
-6.700000e-02 -2.668783e-34
-6.600000e-02 -9.553629e-34
-6.500000e-02 -1.669894e-33
-6.400000e-02 -1.074145e-33
-6.300000e-02 3.130557e-33
-6.200000e-02 1.230865e-32
-6.100000e-02 2.218401e-32
-6.000000e-02 1.728159e-32
-5.900000e-02 -2.776855e-32
-5.800000e-02 -1.276283e-31
-5.700000e-02 -2.401689e-31
-5.600000e-02 -2.172518e-31
-5.500000e-02 1.774308e-31
-5.400001e-02 1.084350e-30
-5.300000e-02 2.166156e-30
-5.200000e-02 2.226985e-30
-5.100000e-02 -6.291450e-31
-5.000000e-02 -7.616574e-30
-4.900000e-02 -1.653030e-29
-4.800000e-02 -1.910818e-29
-4.700000e-02 -2.045800e-30
-4.600000e-02 4.413182e-29
-4.500000e-02 1.078185e-28
-4.400000e-02 1.396602e-28
-4.300000e-02 5.711068e-29
-4.200000e-02 -2.062907e-28
-4.100000e-02 -6.041004e-28
-4.000000e-02 -8.800190e-28
-3.900000e-02 -5.778723e-28
-3.800000e-02 7.199919e-28
-3.700000e-02 2.904315e-27
-3.600000e-02 4.818295e-27
-3.500000e-02 4.206765e-27
-3.400000e-02 -1.278646e-27
-3.300000e-02 -1.185214e-26
-3.200000e-02 -2.301661e-26
-3.100000e-02 -2.478286e-26
-3.000000e-02 -5.331178e-27
-2.900000e-02 3.977964e-26
-2.800000e-02 9.589112e-26
-2.700000e-02 1.234133e-25
-2.600000e-02 6.903361e-26
-2.500000e-02 -9.978601e-26
-2.400000e-02 -3.459910e-25
-2.300000e-02 -5.299579e-25
-2.200000e-02 -4.360236e-25
-2.100000e-02 1.109415e-25
-2.000000e-02 1.059949e-24
-1.900000e-02 1.978323e-24
-1.800000e-02 2.084184e-24
-1.700000e-02 5.981553e-25
-1.600000e-02 -2.615042e-24
-1.500000e-02 -6.410195e-24
-1.400000e-02 -8.256173e-24
-1.300000e-02 -5.162806e-24
-1.200000e-02 4.312844e-24
-1.100000e-02 1.776655e-23
-9.999998e-03 2.795067e-23
-8.999996e-03 2.480069e-23
-8.000001e-03 1.056113e-24
-6.999999e-03 -4.033359e-23
-5.999997e-03 -8.140704e-23
-5.000003e-03 -9.230313e-23
-4.000001e-03 -4.510823e-23
-2.999999e-03 6.487323e-23
-1.999997e-03 2.011525e-22
-1.000002e-03 2.861547e-22
0.000000e+00 2.299731e-22
1.000002e-03 -1.555189e-23
2.000004e-03 -3.999618e-22
2.999999e-03 -7.511529e-22
4.000001e-03 -8.198139e-22
4.999995e-03 -3.984358e-22
5.999997e-03 5.222398e-22
6.999999e-03 1.638904e-21
8.000001e-03 2.356800e-21
9.000003e-03 2.003212e-21
1.000001e-02 2.022156e-22
1.100001e-02 -2.733073e-21
1.199999e-02 -5.618825e-21
1.300000e-02 -6.651248e-21
1.400000e-02 -4.171615e-21
1.500000e-02 2.237240e-21
1.600000e-02 1.080898e-20
1.700000e-02 1.747311e-20
1.800001e-02 1.709505e-20
1.900001e-02 6.072487e-21
2.000000e-02 -1.458085e-20
2.100000e-02 -3.734761e-20
2.200000e-02 -4.938795e-20
2.300000e-02 -3.772401e-20
2.400000e-02 2.730225e-21
2.500001e-02 6.193400e-20
2.600001e-02 1.133243e-19
2.700000e-02 1.220968e-19
2.800000e-02 6.264923e-20
2.900000e-02 -6.146545e-20
3.000000e-02 -2.064121e-19
3.100000e-02 -2.965865e-19
3.200001e-02 -2.559273e-19
3.300001e-02 -5.240149e-20
3.400001e-02 2.657426e-19
3.500000e-02 5.663780e-19
3.600000e-02 6.763522e-19
3.700000e-02 4.623838e-19
3.800000e-02 -8.247610e-20
3.900000e-02 -7.918846e-19
4.000001e-02 -1.355146e-18
4.100001e-02 -1.428735e-18
4.200000e-02 -7.978199e-19
4.300000e-02 4.760483e-19
4.400000e-02 1.993084e-18
4.500000e-02 3.091017e-18
4.600000e-02 3.066386e-18
4.700001e-02 1.493160e-18
4.800001e-02 -1.465034e-18
4.900001e-02 -4.891925e-18
5.000000e-02 -7.248330e-18
5.100000e-02 -6.872799e-18
5.200000e-02 -2.784474e-18
5.300000e-02 4.484342e-18
5.400001e-02 1.247113e-17
5.500001e-02 1.723377e-17
5.600001e-02 1.484899e-17
5.700000e-02 3.600583e-18
5.800000e-02 -1.409945e-17
5.900000e-02 -3.130863e-17
6.000000e-02 -3.857147e-17
6.100000e-02 -2.818779e-17
6.200001e-02 8.525446e-19
6.300001e-02 3.986087e-17
6.400001e-02 7.177570e-17
6.500000e-02 7.754960e-17
6.600000e-02 4.566605e-17
6.700000e-02 -1.948595e-17
6.800000e-02 -9.521938e-17
6.900001e-02 -1.469911e-16
7.000001e-02 -1.425250e-16
7.100001e-02 -6.823163e-17
7.200000e-02 5.967763e-17
7.300000e-02 1.957498e-16
7.400000e-02 2.794044e-16
7.500000e-02 2.586482e-16
7.600001e-02 1.148162e-16
7.700001e-02 -1.216584e-16
7.800001e-02 -3.722203e-16
7.900001e-02 -5.307406e-16
8.000000e-02 -5.002720e-16
8.100000e-02 -2.364728e-16
8.200000e-02 2.169431e-16
8.300000e-02 7.178010e-16
8.400001e-02 1.054308e-15
8.500001e-02 1.016524e-15
8.600001e-02 4.951033e-16
8.700001e-02 -4.293019e-16
8.800000e-02 -1.455001e-15
8.900000e-02 -2.126836e-15
9.000000e-02 -2.006753e-15
9.100001e-02 -8.975659e-16
9.200001e-02 9.781000e-16
9.300001e-02 2.953228e-15
9.400001e-02 4.110105e-15
9.500000e-02 3.660008e-15
9.600000e-02 1.368234e-15
9.700000e-02 -2.179780e-15
9.800000e-02 -5.647406e-15
9.900001e-02 -7.399467e-15
1.000000e-01 -6.205560e-15
1.010000e-01 -1.908608e-15
1.020000e-01 4.266477e-15
1.030000e-01 9.977761e-15
1.040000e-01 1.258810e-14
1.050000e-01 1.027153e-14
1.060000e-01 2.966420e-15
1.070000e-01 -7.257148e-15
1.080000e-01 -1.666085e-14
1.090000e-01 -2.107369e-14
1.100000e-01 -1.753010e-14
1.110000e-01 -5.735088e-15
1.120000e-01 1.124462e-14
1.130000e-01 2.748525e-14
1.140000e-01 3.597157e-14
1.150000e-01 3.122960e-14
1.160000e-01 1.199508e-14
1.170000e-01 -1.716520e-14
1.180000e-01 -4.625782e-14
1.190000e-01 -6.271439e-14
1.200000e-01 -5.616936e-14
1.210000e-01 -2.360848e-14
1.220000e-01 2.732934e-14
1.230000e-01 7.893743e-14
1.240000e-01 1.087405e-13
1.250000e-01 9.834887e-14
1.260000e-01 4.271076e-14
1.270000e-01 -4.441147e-14
1.280000e-01 -1.321855e-13
1.290000e-01 -1.825576e-13
1.300000e-01 -1.655184e-13
1.310000e-01 -7.402386e-14
1.320000e-01 6.820648e-14
1.330000e-01 2.108708e-13
1.340000e-01 2.936278e-13
1.350000e-01 2.699857e-13
1.360000e-01 1.294979e-13
1.370000e-01 -9.145870e-14
1.380000e-01 -3.166621e-13
1.390000e-01 -4.546254e-13
1.400000e-01 -4.333774e-13
1.410000e-01 -2.329015e-13
1.420000e-01 9.808931e-14
1.430000e-01 4.500447e-13
1.440000e-01 6.858367e-13
1.450000e-01 6.904183e-13
1.460000e-01 4.202555e-13
1.470000e-01 -6.671576e-14
1.480000e-01 -6.157109e-13
1.490000e-01 -1.018824e-12
1.500000e-01 -1.088050e-12
1.510000e-01 -7.343321e-13
1.520000e-01 -2.216890e-14
1.530000e-01 8.272038e-13
1.540000e-01 1.495807e-12
1.550000e-01 1.680264e-12
1.560000e-01 1.218772e-12
1.570000e-01 1.839577e-13
1.580000e-01 -1.103943e-12
1.590000e-01 -2.164399e-12
1.600000e-01 -2.526517e-12
1.610000e-01 -1.925133e-12
1.620000e-01 -4.452021e-13
1.630000e-01 1.454995e-12
1.640000e-01 3.071595e-12
1.650000e-01 3.704706e-12
1.660000e-01 2.944910e-12
1.670000e-01 8.838851e-13
1.680000e-01 -1.848325e-12
1.690000e-01 -4.258870e-12
1.700000e-01 -5.338299e-12
1.710000e-01 -4.460896e-12
1.720000e-01 -1.686426e-12
1.730000e-01 2.168756e-12
1.740000e-01 5.748275e-12
1.750000e-01 7.611621e-12
1.760000e-01 6.782756e-12
1.770000e-01 3.191861e-12
1.780000e-01 -2.172706e-12
1.790000e-01 -7.497774e-12
1.800000e-01 -1.072606e-11
1.810000e-01 -1.031023e-11
1.820000e-01 -5.877746e-12
1.830000e-01 1.458966e-12
1.840000e-01 9.315374e-12
1.850000e-01 1.476513e-11
1.860000e-01 1.538342e-11
1.870000e-01 1.024833e-11
1.880000e-01 5.080074e-13
1.890000e-01 -1.076924e-11
1.900000e-01 -1.950747e-11
1.910000e-01 -2.205215e-11
1.920000e-01 -1.663107e-11
1.930000e-01 -4.281370e-12
1.940000e-01 1.119060e-11
1.950000e-01 2.432612e-11
1.960000e-01 2.990641e-11
1.970000e-01 2.497647e-11
1.980000e-01 1.022822e-11
1.990000e-01 -9.865465e-12
2.000000e-01 -2.835145e-11
2.010000e-01 -3.817789e-11
2.020000e-01 -3.484843e-11
2.030000e-01 -1.835985e-11
2.040000e-01 6.379977e-12
2.050000e-01 3.094634e-11
2.060000e-01 4.623341e-11
2.070000e-01 4.578735e-11
2.080000e-01 2.843218e-11
2.090000e-01 -8.458313e-13
2.100000e-01 -3.222357e-11
2.110000e-01 -5.426520e-11
2.120000e-01 -5.801265e-11
2.130000e-01 -4.051064e-11
2.140000e-01 -6.423648e-12
2.150000e-01 3.301407e-11
2.160000e-01 6.356752e-11
2.170000e-01 7.300657e-11
2.180000e-01 5.583844e-11
2.190000e-01 1.599202e-11
2.200000e-01 -3.374097e-11
2.210000e-01 -7.562310e-11
2.220000e-01 -9.312364e-11
2.230000e-01 -7.723049e-11
2.240000e-01 -3.056952e-11
2.250000e-01 3.243777e-11
2.260000e-01 8.983213e-11
2.270000e-01 1.196146e-10
2.280000e-01 1.079664e-10
2.290000e-01 5.515818e-11
2.300000e-01 -2.328190e-11
2.310000e-01 -1.009825e-10
2.320000e-01 -1.495351e-10
2.330000e-01 -1.487473e-10
2.340000e-01 -9.465032e-11
2.350000e-01 -2.149706e-12
2.360000e-01 9.899292e-11
2.370000e-01 1.737890e-10
2.380000e-01 1.941111e-10
2.390000e-01 1.490435e-10
2.400000e-01 4.973581e-11
2.410000e-01 -7.320412e-11
2.420000e-01 -1.792384e-10
2.430000e-01 -2.313274e-10
2.440000e-01 -2.088388e-10
2.450000e-01 -1.154467e-10
2.460000e-01 2.091159e-11
2.470000e-01 1.564598e-10
2.480000e-01 2.457510e-10
2.490000e-01 2.571246e-10
2.500000e-01 1.840336e-10
2.510000e-01 4.827779e-11
2.520000e-01 -1.063135e-10
2.530000e-01 -2.281755e-10
2.540000e-01 -2.754822e-10
2.550000e-01 -2.310143e-10
2.560000e-01 -1.087579e-10
2.570000e-01 5.031655e-11
2.580000e-01 1.919268e-10
2.590000e-01 2.674779e-10
2.600000e-01 2.508332e-10
2.610000e-01 1.480328e-10
2.620000e-01 -4.392565e-12
2.630000e-01 -1.520033e-10
2.640000e-01 -2.417412e-10
2.650000e-01 -2.401730e-10
2.660000e-01 -1.473973e-10
2.670000e-01 4.151268e-12
2.680000e-01 1.585528e-10
2.690000e-01 2.587972e-10
2.700000e-01 2.666142e-10
2.710000e-01 1.757060e-10
2.720000e-01 1.907554e-11
2.730000e-01 -1.468526e-10
2.740000e-01 -2.604278e-10
2.750000e-01 -2.764182e-10
2.760000e-01 -1.849428e-10
2.770000e-01 -8.663514e-12
2.780000e-01 1.984388e-10
2.790000e-01 3.684417e-10
2.800000e-01 4.442552e-10
2.810000e-01 3.883970e-10
2.820000e-01 2.198138e-10
2.830000e-01 -1.314989e-11
2.840000e-01 -2.361807e-10
2.850000e-01 -3.835845e-10
2.860000e-01 -3.868051e-10
2.870000e-01 -2.167213e-10
2.880000e-01 6.189849e-11
2.890000e-01 3.803712e-10
2.900000e-01 6.520131e-10
2.910000e-01 7.693127e-10
2.920000e-01 6.988193e-10
2.930000e-01 4.822431e-10
2.940000e-01 1.707594e-10
2.950000e-01 -1.272673e-10
2.960000e-01 -2.613051e-10
2.970000e-01 -2.530833e-10
2.980000e-01 -4.807768e-11
2.990000e-01 2.672469e-10
3.000000e-01 5.610051e-10
3.010000e-01 7.859142e-10
3.020000e-01 8.699492e-10
3.030000e-01 8.583080e-10
3.040000e-01 7.256630e-10
3.050000e-01 5.878977e-10
3.060000e-01 4.672212e-10
3.070000e-01 3.295543e-10
3.080000e-01 4.412302e-10
3.090000e-01 5.220581e-10
3.100000e-01 7.285831e-10
3.110000e-01 8.229344e-10
3.120000e-01 7.650503e-10
3.130000e-01 6.462237e-10
3.140000e-01 5.865189e-10
3.150000e-01 5.596368e-10
3.160000e-01 8.238905e-10
3.170000e-01 1.008293e-09
3.180000e-01 9.845692e-10
3.190000e-01 7.670594e-10
3.200000e-01 5.271201e-10
3.210000e-01 6.146501e-10
3.220000e-01 9.092302e-10
3.230000e-01 1.101340e-09
3.240000e-01 8.212548e-10
3.250000e-01 5.310102e-10
3.260000e-01 1.572663e-10
3.270000e-01 1.691315e-10
3.280000e-01 -9.687673e-11
3.290000e-01 9.395140e-11
3.300000e-01 1.768325e-10
3.310000e-01 3.455015e-10
3.320000e-01 4.633397e-10
3.330000e-01 4.243605e-10
3.340000e-01 4.015820e-10
3.350000e-01 -1.422185e-10
3.360000e-01 -5.615137e-10
3.370000e-01 -9.272094e-10
3.380000e-01 -8.015929e-10
3.390000e-01 -9.811775e-10
3.400000e-01 -1.147361e-09
3.410000e-01 -1.302957e-09
3.420000e-01 -1.067480e-09
3.430000e-01 -7.410465e-10
3.440000e-01 -1.158515e-09
3.450000e-01 -1.626970e-09
3.460000e-01 -1.710624e-09
3.470000e-01 -1.857836e-09
3.480000e-01 -1.985907e-09
3.490000e-01 -2.088019e-09
3.500000e-01 -2.134197e-09
3.510000e-01 -2.059911e-09
3.520000e-01 -1.589207e-09
3.530000e-01 -1.177402e-09
3.540000e-01 -1.126439e-09
3.550000e-01 -1.452581e-09
3.560000e-01 -2.096980e-09
3.570000e-01 -2.828073e-09
3.580000e-01 -3.309033e-09
3.590000e-01 -3.351548e-09
3.600000e-01 -2.823975e-09
3.610000e-01 -2.334516e-09
3.620000e-01 -1.779810e-09
3.630000e-01 -1.557828e-09
3.640000e-01 -1.573709e-09
3.650000e-01 -1.730930e-09
3.660000e-01 -1.707054e-09
3.670000e-01 -1.553110e-09
3.680000e-01 -1.316260e-09
3.690000e-01 -8.710644e-10
3.700000e-01 -8.255436e-10
3.710000e-01 -1.016654e-09
3.720000e-01 -1.612408e-09
3.730000e-01 -1.800824e-09
3.740000e-01 -1.917475e-09
3.750000e-01 -4.214435e-10
3.760000e-01 6.356554e-10
3.770000e-01 1.616387e-09
3.780000e-01 1.473478e-09
3.790000e-01 1.128287e-09
3.800000e-01 3.068930e-10
3.810000e-01 -1.022745e-09
3.820000e-01 -1.547249e-09
3.830000e-01 -7.340785e-10
3.840000e-01 7.213852e-10
3.850000e-01 1.866092e-09
3.860000e-01 2.544650e-09
3.870000e-01 2.604675e-09
3.880000e-01 2.795738e-09
3.890000e-01 3.297860e-09
3.900000e-01 3.126530e-09
3.910000e-01 2.672963e-09
3.920000e-01 1.975422e-09
3.930000e-01 1.133463e-09
3.940000e-01 1.109987e-09
3.950000e-01 1.286815e-09
3.960000e-01 1.671323e-09
3.970000e-01 1.768600e-09
3.980000e-01 1.919360e-09
3.990000e-01 2.341239e-09
4.000000e-01 3.060341e-09
4.010000e-01 3.918658e-09
4.020000e-01 4.295079e-09
4.030000e-01 3.637644e-09
4.040000e-01 1.866634e-09
4.050000e-01 -3.198437e-10
4.060000e-01 -1.877507e-09
4.070000e-01 -2.200494e-09
4.080000e-01 -1.348317e-09
4.090000e-01 1.496014e-11
4.100000e-01 1.190063e-09
4.110000e-01 1.811671e-09
4.120000e-01 1.759395e-09
4.130000e-01 1.333714e-09
4.140000e-01 9.682495e-10
4.150000e-01 5.973153e-10
4.160000e-01 1.955892e-10
4.170000e-01 -2.087034e-10
4.180000e-01 -6.993517e-10
4.190000e-01 -7.696139e-10
4.200000e-01 -4.819520e-10
4.210000e-01 -1.417211e-10
4.220001e-01 -2.369674e-10
4.230000e-01 -7.316447e-10
4.240000e-01 -1.118446e-09
4.250000e-01 -8.293289e-10
4.260000e-01 1.503646e-10
4.270000e-01 1.162109e-09
4.280000e-01 1.306643e-09
4.290000e-01 2.610142e-10
4.300000e-01 -1.586536e-09
4.310000e-01 -3.231146e-09
4.320000e-01 -3.617232e-09
4.330000e-01 -2.184859e-09
4.340000e-01 2.933629e-10
4.350000e-01 2.438650e-09
4.360000e-01 2.979172e-09
4.370000e-01 1.885278e-09
4.380000e-01 2.448687e-10
4.390000e-01 -7.476317e-10
4.400000e-01 -6.833770e-10
4.410000e-01 -1.015649e-10
4.420000e-01 2.867400e-10
4.430000e-01 4.588444e-11
4.440000e-01 -7.649069e-10
4.450000e-01 -1.622729e-09
4.460000e-01 -1.997086e-09
4.470000e-01 -1.645406e-09
4.480000e-01 -6.435149e-10
4.490000e-01 8.084928e-10
4.500000e-01 2.355274e-09
4.510000e-01 3.567849e-09
4.520000e-01 3.964618e-09
4.530000e-01 3.107813e-09
4.540000e-01 9.712271e-10
4.550000e-01 -1.839147e-09
4.560000e-01 -3.976291e-09
4.570000e-01 -4.343108e-09
4.580000e-01 -2.674931e-09
4.590001e-01 -5.202069e-11
4.600000e-01 2.031840e-09
4.610000e-01 2.593296e-09
4.620000e-01 1.804161e-09
4.630000e-01 6.387034e-10
4.640000e-01 -4.901424e-11
4.650000e-01 -1.069574e-10
4.660000e-01 -8.141077e-11
4.670000e-01 -6.869544e-10
4.680000e-01 -2.089054e-09
4.690000e-01 -3.611903e-09
4.700000e-01 -3.982260e-09
4.710000e-01 -2.435398e-09
4.720000e-01 4.951390e-10
4.730000e-01 3.224679e-09
4.740000e-01 4.165085e-09
4.750000e-01 2.856113e-09
4.760000e-01 1.665206e-10
4.770000e-01 -2.445645e-09
4.780000e-01 -3.815538e-09
4.790000e-01 -3.617596e-09
4.800000e-01 -2.160581e-09
4.810000e-01 -9.010465e-11
4.820001e-01 1.941429e-09
4.830000e-01 3.359581e-09
4.840000e-01 3.795151e-09
4.850000e-01 3.054471e-09
4.860000e-01 1.232580e-09
4.870000e-01 -1.168514e-09
4.880000e-01 -3.184775e-09
4.890000e-01 -3.745399e-09
4.900000e-01 -2.397451e-09
4.910000e-01 2.674215e-10
4.920000e-01 2.864684e-09
4.930000e-01 4.075853e-09
4.940000e-01 3.448340e-09
4.950000e-01 1.460735e-09
4.960001e-01 -9.542040e-10
4.970000e-01 -2.927943e-09
4.980000e-01 -3.864953e-09
4.990000e-01 -3.493176e-09
5.000000e-01 -1.791955e-09
5.010000e-01 8.633937e-10
5.020000e-01 3.715830e-09
5.030000e-01 5.738679e-09
5.040000e-01 5.951933e-09
5.050000e-01 3.873973e-09
5.060000e-01 -2.401556e-11
5.070000e-01 -4.305830e-09
5.080000e-01 -7.115281e-09
5.090000e-01 -7.202920e-09
5.100001e-01 -4.646463e-09
5.110000e-01 -7.398046e-10
5.120000e-01 2.905073e-09
5.130000e-01 5.165234e-09
5.140000e-01 5.664348e-09
5.150000e-01 4.521774e-09
5.160000e-01 2.075605e-09
5.170000e-01 -1.154695e-09
5.180000e-01 -4.392355e-09
5.190001e-01 -6.665955e-09
5.200000e-01 -7.069892e-09
5.210000e-01 -5.153346e-09
5.220000e-01 -1.236669e-09
5.230000e-01 3.465460e-09
5.240000e-01 7.173164e-09
5.250000e-01 8.324943e-09
5.260000e-01 6.362063e-09
5.270000e-01 2.002795e-09
5.280000e-01 -3.135949e-09
5.290000e-01 -7.250357e-09
5.300000e-01 -8.865701e-09
5.310000e-01 -7.195992e-09
5.320000e-01 -2.457563e-09
5.330001e-01 3.882992e-09
5.340000e-01 9.413580e-09
5.350000e-01 1.169063e-08
5.360000e-01 9.495421e-09
5.370000e-01 3.522796e-09
5.380000e-01 -3.836357e-09
5.390000e-01 -9.596024e-09
5.400000e-01 -1.150275e-08
5.410000e-01 -9.013153e-09
5.420001e-01 -3.424228e-09
5.430000e-01 2.867314e-09
5.440000e-01 7.580258e-09
5.450000e-01 9.465331e-09
5.460000e-01 8.418405e-09
5.470001e-01 5.013018e-09
5.480000e-01 7.298923e-11
5.490000e-01 -5.272634e-09
5.500000e-01 -9.423639e-09
5.510000e-01 -1.065994e-08
5.520000e-01 -8.015711e-09
5.530000e-01 -2.094138e-09
5.540000e-01 4.904177e-09
5.550000e-01 1.010195e-08
5.560001e-01 1.127934e-08
5.570000e-01 7.905991e-09
5.580000e-01 1.378783e-09
5.590000e-01 -5.642093e-09
5.600000e-01 -1.048546e-08
5.610000e-01 -1.160871e-08
5.620000e-01 -8.987685e-09
5.630000e-01 -3.743069e-09
5.640000e-01 2.532528e-09
5.650001e-01 8.143823e-09
5.660000e-01 1.141493e-08
5.670000e-01 1.100472e-08
5.680000e-01 6.573139e-09
5.690000e-01 -6.702858e-10
5.700001e-01 -8.159178e-09
5.710000e-01 -1.301146e-08
5.720000e-01 -1.333200e-08
5.730000e-01 -9.016833e-09
5.740000e-01 -1.722168e-09
5.750000e-01 5.886028e-09
5.760000e-01 1.122203e-08
5.770000e-01 1.273374e-08
5.780000e-01 1.030227e-08
5.790001e-01 4.994618e-09
5.800000e-01 -1.533217e-09
5.810000e-01 -7.494759e-09
5.820000e-01 -1.120699e-08
5.830000e-01 -1.136920e-08
5.840001e-01 -7.612546e-09
5.850000e-01 -9.495582e-10
5.860000e-01 6.357368e-09
5.870000e-01 1.173706e-08
5.880000e-01 1.341838e-08
5.890000e-01 1.106211e-08
5.900000e-01 5.666975e-09
5.910000e-01 -9.345684e-10
5.920000e-01 -6.790445e-09
5.930001e-01 -1.027429e-08
5.940000e-01 -1.047947e-08
5.950000e-01 -7.414446e-09
5.960000e-01 -1.966629e-09
5.970000e-01 4.290718e-09
5.980000e-01 9.404275e-09
5.990000e-01 1.160013e-08
6.000000e-01 1.000178e-08
6.010000e-01 5.167044e-09
6.020001e-01 -9.254453e-10
6.030000e-01 -5.918142e-09
6.040000e-01 -8.142044e-09
6.050000e-01 -7.143878e-09
6.060000e-01 -3.652598e-09
6.070001e-01 1.080463e-09
6.080000e-01 5.656375e-09
6.090000e-01 8.628941e-09
6.100000e-01 8.981970e-09
6.110000e-01 6.456239e-09
6.120000e-01 1.728192e-09
6.130000e-01 -3.510590e-09
6.140000e-01 -7.372272e-09
6.150000e-01 -8.360675e-09
6.160001e-01 -6.110288e-09
6.170000e-01 -1.773182e-09
6.180000e-01 2.616717e-09
6.190000e-01 5.271791e-09
6.200000e-01 5.496395e-09
6.210001e-01 3.656268e-09
6.220000e-01 1.009976e-09
6.230000e-01 -1.605276e-09
6.240000e-01 -3.917831e-09
6.250001e-01 -5.826462e-09
6.260000e-01 -6.914761e-09
6.270000e-01 -6.507949e-09
6.280000e-01 -4.305324e-09
6.290000e-01 -8.757672e-10
6.300001e-01 2.580637e-09
6.310000e-01 4.618508e-09
6.320000e-01 4.507605e-09
6.330000e-01 2.527053e-09
6.340000e-01 -2.071142e-10
6.350001e-01 -2.461272e-09
6.360000e-01 -3.587262e-09
6.370000e-01 -3.816183e-09
6.380000e-01 -3.638890e-09
6.390001e-01 -3.171192e-09
6.400000e-01 -2.067633e-09
6.410000e-01 -1.285583e-10
6.420000e-01 2.147291e-09
6.430000e-01 3.683993e-09
6.440001e-01 3.473910e-09
6.450000e-01 1.498245e-09
6.460000e-01 -1.276867e-09
6.470000e-01 -3.523238e-09
6.480000e-01 -4.365857e-09
6.490000e-01 -3.840418e-09
6.500000e-01 -2.654895e-09
6.510000e-01 -1.531589e-09
6.520000e-01 -6.477902e-10
6.530001e-01 4.053029e-10
6.540000e-01 2.008119e-09
6.550000e-01 3.818475e-09
6.560000e-01 4.704388e-09
6.570000e-01 3.601354e-09
6.580001e-01 5.001491e-10
6.590000e-01 -3.287471e-09
6.600000e-01 -5.966512e-09
6.610000e-01 -6.372261e-09
6.620001e-01 -4.534619e-09
6.630000e-01 -1.409270e-09
6.640000e-01 1.889749e-09
6.650000e-01 4.545141e-09
6.660000e-01 6.060858e-09
6.670001e-01 6.083478e-09
6.680000e-01 4.360005e-09
6.690000e-01 9.758673e-10
6.700000e-01 -3.286913e-09
6.710000e-01 -6.887072e-09
6.720001e-01 -8.001196e-09
6.730000e-01 -5.601073e-09
6.740000e-01 -3.221327e-10
6.750000e-01 5.672602e-09
6.760001e-01 9.804378e-09
6.770000e-01 1.054513e-08
6.780000e-01 8.125091e-09
6.790000e-01 3.842406e-09
6.800000e-01 -7.873772e-10
6.810001e-01 -4.764087e-09
6.820000e-01 -7.389527e-09
6.830000e-01 -8.000280e-09
6.840000e-01 -5.990825e-09
6.850001e-01 -1.287153e-09
6.860000e-01 5.102775e-09
6.870000e-01 1.100684e-08
6.880000e-01 1.384591e-08
6.890000e-01 1.194695e-08
6.900001e-01 5.668979e-09
6.910000e-01 -2.598098e-09
6.920000e-01 -9.665404e-09
6.930000e-01 -1.320033e-08
6.940000e-01 -1.270987e-08
6.950001e-01 -9.143096e-09
6.960000e-01 -3.973375e-09
6.970000e-01 1.596811e-09
6.980000e-01 6.517050e-09
6.990001e-01 9.612464e-09
7.000000e-01 9.729355e-09
7.010000e-01 6.380855e-09
7.020000e-01 4.157285e-10
7.030000e-01 -6.019568e-09
7.040001e-01 -1.034885e-08
7.050000e-01 -1.083275e-08
7.060000e-01 -7.540224e-09
7.070000e-01 -2.214880e-09
7.080001e-01 2.851458e-09
7.090001e-01 6.147601e-09
7.100000e-01 7.541646e-09
7.110000e-01 7.673416e-09
7.120000e-01 6.905894e-09
7.130001e-01 4.862414e-09
7.140000e-01 1.118937e-09
7.150000e-01 -3.775827e-09
7.160000e-01 -8.046174e-09
7.170000e-01 -9.547275e-09
7.180001e-01 -7.217892e-09
7.190000e-01 -1.880176e-09
7.200000e-01 4.154699e-09
7.210000e-01 8.349945e-09
7.220001e-01 9.286167e-09
7.230000e-01 7.210763e-09
7.240000e-01 3.519766e-09
7.250000e-01 -3.207783e-10
7.260000e-01 -3.521285e-09
7.270001e-01 -5.955596e-09
7.280000e-01 -7.451104e-09
7.290000e-01 -7.437023e-09
7.300000e-01 -5.360450e-09
7.310000e-01 -1.495791e-09
7.320001e-01 2.755477e-09
7.330000e-01 5.569264e-09
7.340000e-01 5.801927e-09
7.350000e-01 3.613793e-09
7.360001e-01 1.508179e-10
7.370000e-01 -3.314892e-09
7.380000e-01 -6.044429e-09
7.390000e-01 -7.838176e-09
7.400000e-01 -8.560367e-09
7.410001e-01 -7.737525e-09
7.420000e-01 -4.678539e-09
7.430000e-01 7.385729e-10
7.440000e-01 7.304983e-09
7.450001e-01 1.254243e-08
7.460001e-01 1.391063e-08
7.470000e-01 1.044995e-08
7.480000e-01 3.575321e-09
7.490000e-01 -3.683837e-09
7.500001e-01 -8.444816e-09
7.510000e-01 -9.410486e-09
7.520000e-01 -7.078280e-09
7.530000e-01 -2.866602e-09
7.540000e-01 1.873695e-09
7.550001e-01 6.290360e-09
7.560000e-01 9.783353e-09
7.570000e-01 1.159989e-08
7.580000e-01 1.082884e-08
7.590001e-01 6.951898e-09
7.600001e-01 5.829093e-10
7.610000e-01 -6.308816e-09
7.620000e-01 -1.114157e-08
7.630000e-01 -1.207628e-08
7.640001e-01 -9.022265e-09
7.650000e-01 -3.565793e-09
7.660000e-01 2.114863e-09
7.670000e-01 6.342964e-09
7.680001e-01 8.352454e-09
7.690001e-01 7.954323e-09
7.700000e-01 5.191024e-09
7.710000e-01 3.750225e-10
7.720000e-01 -5.542828e-09
7.730001e-01 -1.088404e-08
7.740000e-01 -1.369581e-08
7.750000e-01 -1.266291e-08
7.760000e-01 -7.883914e-09
7.770000e-01 -1.029695e-09
7.780001e-01 5.396135e-09
7.790000e-01 9.268910e-09
7.800000e-01 9.810178e-09
7.810000e-01 7.626858e-09
7.820001e-01 3.959880e-09
7.830001e-01 -1.264230e-10
7.840000e-01 -3.932785e-09
7.850000e-01 -6.767328e-09
7.860000e-01 -7.704770e-09
7.870001e-01 -5.928585e-09
7.880000e-01 -1.486314e-09
7.890000e-01 4.333925e-09
7.900000e-01 9.402827e-09
7.910001e-01 1.176836e-08
7.920001e-01 1.064970e-08
7.930000e-01 6.765013e-09
7.940000e-01 1.845302e-09
7.950000e-01 -2.360336e-09
7.960001e-01 -4.925870e-09
7.970001e-01 -5.873978e-09
7.980000e-01 -5.640432e-09
7.990000e-01 -4.430317e-09
8.000000e-01 -2.158580e-09
8.010001e-01 1.032681e-09
8.020000e-01 4.286981e-09
8.030000e-01 6.204260e-09
8.040000e-01 5.648645e-09
8.050001e-01 2.518888e-09
8.060001e-01 -2.116414e-09
8.070000e-01 -6.587439e-09
8.080000e-01 -9.441215e-09
8.090000e-01 -9.990273e-09
8.100001e-01 -8.367109e-09
8.110000e-01 -5.210000e-09
8.120000e-01 -1.259155e-09
8.130000e-01 2.800163e-09
8.140000e-01 6.226613e-09
8.150001e-01 8.094866e-09
8.160000e-01 7.520075e-09
8.170000e-01 4.248312e-09
8.180000e-01 -8.684315e-10
8.190001e-01 -6.018119e-09
8.200001e-01 -9.250531e-09
8.210000e-01 -9.391518e-09
8.220000e-01 -6.461345e-09
8.230000e-01 -1.424798e-09
8.240001e-01 4.363945e-09
8.250000e-01 9.612196e-09
8.260000e-01 1.329086e-08
8.270000e-01 1.466650e-08
8.280001e-01 1.332837e-08
8.290001e-01 9.310668e-09
8.300000e-01 3.290140e-09
8.310000e-01 -3.307782e-09
8.320000e-01 -8.552689e-09
8.330001e-01 -1.068425e-08
8.340001e-01 -8.913613e-09
8.350000e-01 -3.859185e-09
8.360000e-01 2.698810e-09
8.370000e-01 8.544396e-09
8.380001e-01 1.179651e-08
8.390000e-01 1.141009e-08
8.400000e-01 7.387898e-09
8.410000e-01 7.657737e-10
8.420001e-01 -6.662250e-09
8.430001e-01 -1.288519e-08
8.440000e-01 -1.631821e-08
8.450000e-01 -1.627631e-08
8.460000e-01 -1.308872e-08
8.470001e-01 -7.901435e-09
8.480000e-01 -2.269644e-09
8.490000e-01 2.307397e-09
8.500000e-01 4.813270e-09
8.510001e-01 4.914937e-09
8.520001e-01 2.884272e-09
8.530000e-01 -6.094839e-10
8.540000e-01 -4.659177e-09
8.550000e-01 -8.162576e-09
8.560001e-01 -9.957569e-09
8.570001e-01 -9.174120e-09
8.580000e-01 -5.674102e-09
8.590000e-01 -2.354597e-10
8.600000e-01 5.682581e-09
8.610001e-01 1.046217e-08
8.620000e-01 1.287389e-08
8.630000e-01 1.246402e-08
8.640000e-01 9.692924e-09
8.650001e-01 5.752319e-09
8.660001e-01 2.095762e-09
8.670000e-01 -1.410585e-10
8.680000e-01 -5.155072e-10
8.690000e-01 7.295454e-10
8.700001e-01 2.955925e-09
8.710001e-01 5.448830e-09
8.720000e-01 7.624841e-09
8.730000e-01 9.096419e-09
8.740000e-01 9.621422e-09
8.750001e-01 8.978513e-09
8.760000e-01 6.902741e-09
8.770000e-01 3.230148e-09
8.780000e-01 -1.736722e-09
8.790001e-01 -6.971103e-09
