-1.199999999999999956e-01 0.000000000000000000e+00
-1.189999999999999947e-01 0.000000000000000000e+00
-1.179999999999999938e-01 0.000000000000000000e+00
-1.170000000000000068e-01 0.000000000000000000e+00
-1.160000000000000059e-01 0.000000000000000000e+00
-1.150000000000000050e-01 0.000000000000000000e+00
-1.140000000000000041e-01 0.000000000000000000e+00
-1.130000000000000032e-01 0.000000000000000000e+00
-1.120000000000000023e-01 0.000000000000000000e+00
-1.110000000000000014e-01 0.000000000000000000e+00
-1.100000000000000006e-01 0.000000000000000000e+00
-1.089999999999999997e-01 0.000000000000000000e+00
-1.079999999999999988e-01 0.000000000000000000e+00
-1.069999999999999979e-01 0.000000000000000000e+00
-1.059999999999999970e-01 0.000000000000000000e+00
-1.049999999999999961e-01 0.000000000000000000e+00
-1.039999999999999952e-01 0.000000000000000000e+00
-1.029999999999999943e-01 0.000000000000000000e+00
-1.019999999999999934e-01 0.000000000000000000e+00
-1.010000000000000064e-01 0.000000000000000000e+00
-1.000000000000000056e-01 0.000000000000000000e+00
-9.900000999999999940e-02 0.000000000000000000e+00
-9.800000000000000377e-02 0.000000000000000000e+00
-9.700000000000000289e-02 0.000000000000000000e+00
-9.600000000000000200e-02 0.000000000000000000e+00
-9.500000999999999585e-02 0.000000000000000000e+00
-9.400000000000000022e-02 0.000000000000000000e+00
-9.299999999999999933e-02 0.000000000000000000e+00
-9.200000999999999318e-02 0.000000000000000000e+00
-9.100001000000000617e-02 0.000000000000000000e+00
-8.999999999999999667e-02 0.000000000000000000e+00
-8.899999999999999578e-02 0.000000000000000000e+00
-8.799999999999999489e-02 0.000000000000000000e+00
-8.699999999999999400e-02 0.000000000000000000e+00
-8.599999999999999312e-02 0.000000000000000000e+00
-8.500001000000000084e-02 0.000000000000000000e+00
-8.400000999999999995e-02 0.000000000000000000e+00
-8.300000000000000433e-02 0.000000000000000000e+00
-8.200000000000000344e-02 0.000000000000000000e+00
-8.100000000000000255e-02 0.000000000000000000e+00
-8.000000000000000167e-02 0.000000000000000000e+00
-7.900000000000000078e-02 0.000000000000000000e+00
-7.799999999999999989e-02 0.000000000000000000e+00
-7.700000999999999374e-02 0.000000000000000000e+00
-7.600001000000000673e-02 0.000000000000000000e+00
-7.499999999999999722e-02 0.000000000000000000e+00
-7.399999999999999634e-02 0.000000000000000000e+00
-7.299999999999999545e-02 0.000000000000000000e+00
-7.199999999999999456e-02 0.000000000000000000e+00
-7.099999999999999367e-02 0.000000000000000000e+00
-7.000001000000000140e-02 0.000000000000000000e+00
-6.900001000000000051e-02 0.000000000000000000e+00
-6.800000000000000488e-02 0.000000000000000000e+00
-6.700000000000000400e-02 0.000000000000000000e+00
-6.600000000000000311e-02 0.000000000000000000e+00
-6.500000000000000222e-02 0.000000000000000000e+00
-6.400000000000000133e-02 0.000000000000000000e+00
-6.300000000000000044e-02 0.000000000000000000e+00
-6.199999999999999956e-02 0.000000000000000000e+00
-6.099999999999999867e-02 0.000000000000000000e+00
-5.999999999999999778e-02 0.000000000000000000e+00
-5.899999999999999689e-02 0.000000000000000000e+00
-5.800000000000000294e-02 0.000000000000000000e+00
-5.700000000000000205e-02 0.000000000000000000e+00
-5.600000000000000117e-02 0.000000000000000000e+00
-5.500000000000000028e-02 0.000000000000000000e+00
-5.400001000000000106e-02 0.000000000000000000e+00
-5.299999999999999850e-02 0.000000000000000000e+00
-5.199999999999999761e-02 0.000000000000000000e+00
-5.099999999999999672e-02 0.000000000000000000e+00
-5.000000000000000278e-02 0.000000000000000000e+00
-4.900000000000000189e-02 0.000000000000000000e+00
-4.800000000000000100e-02 0.000000000000000000e+00
-4.700000000000000011e-02 0.000000000000000000e+00
-4.599999999999999922e-02 0.000000000000000000e+00
-4.499999999999999833e-02 0.000000000000000000e+00
-4.399999999999999745e-02 0.000000000000000000e+00
-4.299999999999999656e-02 0.000000000000000000e+00
-4.200000000000000261e-02 0.000000000000000000e+00
-4.100000000000000172e-02 0.000000000000000000e+00
-4.000000000000000083e-02 0.000000000000000000e+00
-3.899999999999999994e-02 0.000000000000000000e+00
-3.799999999999999906e-02 0.000000000000000000e+00
-3.699999999999999817e-02 0.000000000000000000e+00
-3.599999999999999728e-02 0.000000000000000000e+00
-3.500000000000000333e-02 0.000000000000000000e+00
-3.400000000000000244e-02 0.000000000000000000e+00
-3.300000000000000155e-02 0.000000000000000000e+00
-3.200000000000000067e-02 0.000000000000000000e+00
-3.099999999999999978e-02 0.000000000000000000e+00
-2.999999999999999889e-02 0.000000000000000000e+00
-2.900000000000000147e-02 0.000000000000000000e+00
-2.800000000000000058e-02 0.000000000000000000e+00
-2.699999999999999969e-02 0.000000000000000000e+00
-2.599999999999999881e-02 0.000000000000000000e+00
-2.500000000000000139e-02 0.000000000000000000e+00
-2.400000000000000050e-02 0.000000000000000000e+00
-2.299999999999999961e-02 0.000000000000000000e+00
-2.199999999999999872e-02 0.000000000000000000e+00
-2.100000000000000130e-02 0.000000000000000000e+00
-2.000000000000000042e-02 0.000000000000000000e+00
-1.899999999999999953e-02 0.000000000000000000e+00
-1.799999999999999864e-02 0.000000000000000000e+00
-1.700000000000000122e-02 0.000000000000000000e+00
-1.600000000000000033e-02 0.000000000000000000e+00
-1.499999999999999944e-02 0.000000000000000000e+00
-1.400000000000000029e-02 0.000000000000000000e+00
-1.299999999999999940e-02 0.000000000000000000e+00
-1.200000000000000025e-02 0.000000000000000000e+00
-1.099999999999999936e-02 0.000000000000000000e+00
-9.999997999999999526e-03 0.000000000000000000e+00
-8.999995999999999691e-03 0.000000000000000000e+00
-8.000000999999999640e-03 0.000000000000000000e+00
-6.999998999999999805e-03 0.000000000000000000e+00
-5.999996999999999969e-03 0.000000000000000000e+00
-5.000003000000000260e-03 0.000000000000000000e+00
-4.000001000000000424e-03 0.000000000000000000e+00
-2.999999000000000155e-03 0.000000000000000000e+00
-1.999996999999999886e-03 0.000000000000000000e+00
-1.000002000000000052e-03 0.000000000000000000e+00
0.000000000000000000e+00 0.000000000000000000e+00
1.000002000000000052e-03 0.000000000000000000e+00
2.000004000000000105e-03 0.000000000000000000e+00
2.999999000000000155e-03 0.000000000000000000e+00
4.000001000000000424e-03 0.000000000000000000e+00
4.999995000000000134e-03 0.000000000000000000e+00
5.999996999999999969e-03 0.000000000000000000e+00
6.999998999999999805e-03 0.000000000000000000e+00
8.000000999999999640e-03 0.000000000000000000e+00
9.000002999999999476e-03 0.000000000000000000e+00
1.000001000000000015e-02 0.000000000000000000e+00
1.100000999999999930e-02 0.000000000000000000e+00
1.199999000000000031e-02 0.000000000000000000e+00
1.299999999999999940e-02 0.000000000000000000e+00
1.400000000000000029e-02 0.000000000000000000e+00
1.499999999999999944e-02 0.000000000000000000e+00
1.600000000000000033e-02 0.000000000000000000e+00
1.700000000000000122e-02 0.000000000000000000e+00
1.800001000000000032e-02 0.000000000000000000e+00
1.900001000000000120e-02 0.000000000000000000e+00
2.000000000000000042e-02 0.000000000000000000e+00
2.100000000000000130e-02 0.000000000000000000e+00
2.199999999999999872e-02 0.000000000000000000e+00
2.299999999999999961e-02 0.000000000000000000e+00
2.400000000000000050e-02 0.000000000000000000e+00
2.500000999999999959e-02 0.000000000000000000e+00
2.600001000000000048e-02 0.000000000000000000e+00
2.699999999999999969e-02 0.000000000000000000e+00
2.800000000000000058e-02 0.000000000000000000e+00
2.900000000000000147e-02 0.000000000000000000e+00
2.999999999999999889e-02 0.000000000000000000e+00
3.099999999999999978e-02 0.000000000000000000e+00
3.200001000000000234e-02 0.000000000000000000e+00
3.300001000000000323e-02 0.000000000000000000e+00
3.400000999999999718e-02 0.000000000000000000e+00
3.500000000000000333e-02 0.000000000000000000e+00
3.599999999999999728e-02 0.000000000000000000e+00
3.699999999999999817e-02 0.000000000000000000e+00
3.799999999999999906e-02 0.000000000000000000e+00
3.899999999999999994e-02 0.000000000000000000e+00
4.000001000000000251e-02 0.000000000000000000e+00
4.100001000000000340e-02 0.000000000000000000e+00
4.200000000000000261e-02 0.000000000000000000e+00
4.299999999999999656e-02 0.000000000000000000e+00
4.399999999999999745e-02 0.000000000000000000e+00
4.499999999999999833e-02 0.000000000000000000e+00
4.599999999999999922e-02 0.000000000000000000e+00
4.700001000000000179e-02 0.000000000000000000e+00
4.800001000000000267e-02 0.000000000000000000e+00
4.900000999999999662e-02 0.000000000000000000e+00
5.000000000000000278e-02 0.000000000000000000e+00
5.099999999999999672e-02 0.000000000000000000e+00
5.199999999999999761e-02 0.000000000000000000e+00
5.299999999999999850e-02 0.000000000000000000e+00
5.400001000000000106e-02 0.000000000000000000e+00
5.500001000000000195e-02 0.000000000000000000e+00
5.600001000000000284e-02 0.000000000000000000e+00
5.700000000000000205e-02 0.000000000000000000e+00
5.800000000000000294e-02 0.000000000000000000e+00
5.899999999999999689e-02 0.000000000000000000e+00
5.999999999999999778e-02 0.000000000000000000e+00
6.099999999999999867e-02 0.000000000000000000e+00
6.200001000000000123e-02 0.000000000000000000e+00
6.300000999999999518e-02 0.000000000000000000e+00
6.400000999999999607e-02 0.000000000000000000e+00
6.500000000000000222e-02 0.000000000000000000e+00
6.600000000000000311e-02 0.000000000000000000e+00
6.700000000000000400e-02 0.000000000000000000e+00
6.800000000000000488e-02 0.000000000000000000e+00
6.900001000000000051e-02 0.000000000000000000e+00
7.000001000000000140e-02 0.000000000000000000e+00
7.100001000000000229e-02 0.000000000000000000e+00
7.199999999999999456e-02 0.000000000000000000e+00
7.299999999999999545e-02 0.000000000000000000e+00
7.399999999999999634e-02 0.000000000000000000e+00
7.499999999999999722e-02 0.000000000000000000e+00
7.600001000000000673e-02 0.000000000000000000e+00
7.700000999999999374e-02 0.000000000000000000e+00
7.800000999999999463e-02 0.000000000000000000e+00
7.900000999999999551e-02 0.000000000000000000e+00
8.000000000000000167e-02 0.000000000000000000e+00
8.100000000000000255e-02 0.000000000000000000e+00
8.200000000000000344e-02 0.000000000000000000e+00
8.300000000000000433e-02 0.000000000000000000e+00
8.400000999999999995e-02 0.000000000000000000e+00
8.500001000000000084e-02 0.000000000000000000e+00
8.600001000000000173e-02 0.000000000000000000e+00
8.700001000000000262e-02 0.000000000000000000e+00
8.799999999999999489e-02 0.000000000000000000e+00
8.899999999999999578e-02 0.000000000000000000e+00
8.999999999999999667e-02 0.000000000000000000e+00
9.100001000000000617e-02 0.000000000000000000e+00
9.200000999999999318e-02 0.000000000000000000e+00
9.300000999999999407e-02 0.000000000000000000e+00
9.400000999999999496e-02 0.000000000000000000e+00
9.500000000000000111e-02 0.000000000000000000e+00
9.600000000000000200e-02 0.000000000000000000e+00
9.700000000000000289e-02 0.000000000000000000e+00
9.800000000000000377e-02 0.000000000000000000e+00
9.900000999999999940e-02 0.000000000000000000e+00
1.000000000000000056e-01 0.000000000000000000e+00
1.010000000000000064e-01 0.000000000000000000e+00
1.019999999999999934e-01 0.000000000000000000e+00
1.029999999999999943e-01 -0.000000000000000000e+00
1.039999999999999952e-01 0.000000000000000000e+00
1.049999999999999961e-01 0.000000000000000000e+00
1.059999999999999970e-01 1.961817850054743899e-44
1.069999999999999979e-01 2.690493051503648776e-43
1.079999999999999988e-01 2.361187912387316765e-42
1.089999999999999997e-01 4.926965400566056821e-42
1.100000000000000006e-01 -2.751715781410000034e-40
1.110000000000000014e-01 -6.612314070101835937e-39
1.120000000000000023e-01 -1.000991998306443790e-37
1.130000000000000032e-01 -1.198576180394239028e-36
1.140000000000000041e-01 -1.206009133801146785e-35
1.150000000000000050e-01 -1.035178781448122538e-34
1.160000000000000059e-01 -7.447889503304300185e-34
1.170000000000000068e-01 -4.130189767742326623e-33
1.179999999999999938e-01 -1.101564939705181423e-32
1.189999999999999947e-01 1.186279158842776749e-31
1.199999999999999956e-01 2.574854171634382475e-30
1.209999999999999964e-01 3.141086114075194189e-29
1.219999999999999973e-01 3.094963402099211806e-28
1.229999999999999982e-01 2.681376350259117994e-27
1.239999999999999991e-01 2.113053451858295240e-26
1.250000000000000000e-01 1.539933031151124770e-25
1.260000000000000009e-01 1.046707487663485961e-24
1.270000000000000018e-01 6.660813317549651744e-24
1.280000000000000027e-01 3.969754756629299310e-23
1.290000000000000036e-01 2.209613784346965298e-22
1.300000000000000044e-01 1.141174818786462416e-21
1.310000000000000053e-01 5.402728555302966366e-21
1.320000000000000062e-01 2.292055438838498210e-20
1.330000000000000071e-01 8.297619330520759669e-20
1.340000000000000080e-01 2.220505866816309853e-19
1.350000000000000089e-01 1.212834444604211540e-19
1.360000000000000098e-01 -3.680693163968018949e-18
1.370000000000000107e-01 -3.347149291004384111e-17
1.380000000000000115e-01 -2.035602946080233432e-16
1.390000000000000124e-01 -1.013534107816959750e-15
1.400000000000000133e-01 -4.361818608259121835e-15
1.409999999999999865e-01 -1.652102865862085934e-14
1.419999999999999873e-01 -5.521258566987784222e-14
1.429999999999999882e-01 -1.613407351512899379e-13
1.439999999999999891e-01 -4.021309110355253402e-13
1.449999999999999900e-01 -8.038590951740809398e-13
1.459999999999999909e-01 -1.043344555716474442e-12
1.469999999999999918e-01 4.048633986657862449e-13
1.479999999999999927e-01 7.865000317686110520e-12
1.489999999999999936e-01 3.005421952972930910e-11
1.499999999999999944e-01 7.863626416693136889e-11
1.509999999999999953e-01 1.584018749500870626e-10
1.519999999999999962e-01 2.468329152183201813e-10
1.529999999999999971e-01 2.761799400285980255e-10
1.539999999999999980e-01 1.533110166596074464e-10
1.549999999999999989e-01 -1.531121340825336574e-10
1.559999999999999998e-01 -5.044015205513119326e-10
1.570000000000000007e-01 -6.149566411650653208e-10
1.580000000000000016e-01 -3.151267302659022107e-10
1.590000000000000024e-01 1.554929102143276509e-10
1.600000000000000033e-01 2.980005409103370084e-10
1.610000000000000042e-01 -1.652003945966373788e-12
1.620000000000000051e-01 -1.904880836400835165e-10
1.630000000000000060e-01 1.639917229789844555e-10
1.640000000000000069e-01 5.558486448897781429e-10
1.650000000000000078e-01 3.092327505171965640e-10
1.660000000000000087e-01 -1.266077936934451031e-10
1.670000000000000095e-01 3.032385106904733618e-11
1.680000000000000104e-01 2.554363665030479069e-10
1.690000000000000113e-01 -1.896200002571291066e-10
1.700000000000000122e-01 -4.853902280110844458e-10
1.710000000000000131e-01 -3.508095203219596669e-11
1.719999999999999862e-01 8.185956079653777806e-11
1.729999999999999871e-01 -2.394275611106166934e-10
1.739999999999999880e-01 1.302518370938088310e-10
1.749999999999999889e-01 4.548352527944388157e-10
1.759999999999999898e-01 -4.029297728802561096e-11
1.769999999999999907e-01 -4.942479411851330440e-11
1.779999999999999916e-01 1.732772814122540694e-10
1.789999999999999925e-01 -3.471632425977588809e-10
1.799999999999999933e-01 -2.433271084623100933e-10
1.809999999999999942e-01 2.130655513132850842e-10
1.819999999999999951e-01 -1.088039935925877444e-10
1.829999999999999960e-01 1.527751120056208833e-10
1.839999999999999969e-01 3.501889056511942044e-10
1.849999999999999978e-01 -2.399141718623098996e-10
1.859999999999999987e-01 -7.730658127536038648e-12
1.869999999999999996e-01 -6.934616075815469571e-11
1.880000000000000004e-01 -3.217584809700468895e-10
1.890000000000000013e-01 2.903307594337434239e-10
1.900000000000000022e-01 4.216103161036599545e-11
1.910000000000000031e-01 5.748999540311494627e-11
1.920000000000000040e-01 2.102271134951649856e-10
1.930000000000000049e-01 -3.722857855326111576e-10
1.940000000000000058e-01 3.575287982338082315e-11
1.950000000000000067e-01 -8.405602602845618776e-11
1.960000000000000075e-01 -7.631760674808862888e-12
1.970000000000000084e-01 3.576075824351931942e-10
1.980000000000000093e-01 -1.805428584411572501e-10
1.990000000000000102e-01 1.223166290476029872e-10
2.000000000000000111e-01 -2.462535453329195434e-10
2.010000000000000120e-01 -9.328617045500919858e-11
2.020000000000000129e-01 1.978849167860730063e-10
2.030000000000000138e-01 -6.679141961729584409e-11
2.039999999999999869e-01 3.067697207370656542e-10
2.049999999999999878e-01 -2.710119628712703843e-10
2.059999999999999887e-01 1.295117875790841033e-12
2.069999999999999896e-01 -9.228206393485649528e-11
2.079999999999999905e-01 -2.124199427466777479e-11
2.089999999999999913e-01 3.403878567898033225e-10
2.099999999999999922e-01 -1.906334951007337963e-10
2.109999999999999931e-01 2.216752649497610861e-11
2.119999999999999940e-01 -1.909167129943156738e-10
2.129999999999999949e-01 3.872899501100590669e-10
2.139999999999999958e-01 -2.582209723822614933e-10
2.149999999999999967e-01 -3.230253564634466557e-10
2.159999999999999976e-01 -1.046109865399103001e-09
2.169999999999999984e-01 -1.205239019697046388e-09
2.179999999999999993e-01 -1.342920441516071151e-09
2.190000000000000002e-01 -1.238869007380571929e-09
2.200000000000000011e-01 -8.679756358098700275e-10
2.210000000000000020e-01 -8.849811439226584753e-10
2.220000000000000029e-01 -3.041141227733135111e-10
2.230000000000000038e-01 -8.902340670191577487e-11
2.240000000000000047e-01 1.234472080113846459e-09
2.250000000000000056e-01 2.035681179179960054e-09
2.260000000000000064e-01 3.878533050283294870e-09
2.270000000000000073e-01 5.143352410641455208e-09
2.280000000000000082e-01 7.853913963629111095e-09
2.290000000000000091e-01 1.045274622413217003e-08
2.300000000000000100e-01 1.470907662337594957e-08
2.310000000000000109e-01 1.892001577630253450e-08
2.320000000000000118e-01 2.494665629626524606e-08
2.330000000000000127e-01 3.156112171609493089e-08
2.340000000000000135e-01 4.076497006622048502e-08
2.349999999999999867e-01 5.127384028469350596e-08
2.359999999999999876e-01 6.484368242354321410e-08
2.369999999999999885e-01 8.045189048289103084e-08
2.379999999999999893e-01 1.003131728793960065e-07
2.389999999999999902e-01 1.237749103211172041e-07
2.399999999999999911e-01 1.530919178094336530e-07
2.409999999999999920e-01 1.875597774869675050e-07
2.419999999999999929e-01 2.297556278563206433e-07
2.429999999999999938e-01 2.796304841012897668e-07
2.439999999999999947e-01 3.404725248401518911e-07
2.449999999999999956e-01 4.124096051327796886e-07
2.459999999999999964e-01 4.989659032617055345e-07
2.469999999999999973e-01 6.009138928675383795e-07
2.479999999999999982e-01 7.229134553199401125e-07
2.489999999999999991e-01 8.666124244882666972e-07
2.500000000000000000e-01 1.037284505400748458e-06
2.510000000000000009e-01 1.237394940289959777e-06
2.520000000000000018e-01 1.473365728088538162e-06
2.530000000000000027e-01 1.749437274156662170e-06
2.540000000000000036e-01 2.073264340651803650e-06
2.550000000000000044e-01 2.450656893415725790e-06
2.560000000000000053e-01 2.890399400712340139e-06
2.570000000000000062e-01 3.400756668270332739e-06
2.580000000000000071e-01 3.992469828517641872e-06
2.590000000000000080e-01 4.676654498325660825e-06
2.600000000000000089e-01 5.465490175993181765e-06
2.610000000000000098e-01 6.373214091581758112e-06
2.620000000000000107e-01 7.414480023726355284e-06
2.630000000000000115e-01 8.607507879787590355e-06
2.640000000000000124e-01 9.969526217901147902e-06
2.650000000000000133e-01 1.152219647337915376e-05
2.660000000000000142e-01 1.328608323092339560e-05
2.670000000000000151e-01 1.528704342490527779e-05
2.680000000000000160e-01 1.754988079483155161e-05
2.690000000000000169e-01 2.010388379858341068e-05
2.700000000000000178e-01 2.297811806784011424e-05
2.710000000000000187e-01 2.620556006149854511e-05
2.720000000000000195e-01 2.982071055157575756e-05
2.730000000000000204e-01 3.385975651326589286e-05
2.740000000000000213e-01 3.836178802885115147e-05
2.750000000000000222e-01 4.336598431109450758e-05
2.760000000000000231e-01 4.891596108791418374e-05
2.770000000000000240e-01 5.505422814167104661e-05
2.780000000000000249e-01 6.182743527460843325e-05
2.790000000000000258e-01 6.928039510967209935e-05
2.800000000000000266e-01 7.746128540020436049e-05
2.810000000000000275e-01 8.641745807835832238e-05
2.819999999999999729e-01 9.619694174034520984e-05
2.829999999999999738e-01 1.068475103238597512e-04
2.839999999999999747e-01 1.184146094601601362e-04
2.849999999999999756e-01 1.309450744884088635e-04
2.859999999999999765e-01 1.444808294763788581e-04
2.869999999999999774e-01 1.590638712514191866e-04
2.879999999999999782e-01 1.747302594594657421e-04
2.889999999999999791e-01 1.915140310302376747e-04
2.899999999999999800e-01 2.094437513733282685e-04
2.909999999999999809e-01 2.285419905092567205e-04
2.919999999999999818e-01 2.488262834958732128e-04
2.929999999999999827e-01 2.703048230614513159e-04
2.939999999999999836e-01 2.929807815235108137e-04
2.949999999999999845e-01 3.168460098095238209e-04
2.959999999999999853e-01 3.418847918510437012e-04
2.969999999999999862e-01 3.680702357087284327e-04
2.979999999999999871e-01 3.953645937144756317e-04
2.989999999999999880e-01 4.237202811054885387e-04
2.999999999999999889e-01 4.530753649305552244e-04
3.009999999999999898e-01 4.833584825973957777e-04
3.019999999999999907e-01 5.144829046912491322e-04
3.029999999999999916e-01 5.463513662107288837e-04
3.039999999999999925e-01 5.788532434962689877e-04
3.049999999999999933e-01 6.118643213994801044e-04
3.059999999999999942e-01 6.452496745623648167e-04
3.069999999999999951e-01 6.788601167500019073e-04
3.079999999999999960e-01 7.125379052013158798e-04
3.089999999999999969e-01 7.461123168468475342e-04
3.099999999999999978e-01 7.794037228450179100e-04
3.109999999999999987e-01 8.122244616970419884e-04
3.119999999999999996e-01 8.443779079243540764e-04
3.130000000000000004e-01 8.756639435887336731e-04
3.140000000000000013e-01 9.058752330020070076e-04
3.150000000000000022e-01 9.348035091534256935e-04
3.160000000000000031e-01 9.622392826713621616e-04
3.170000000000000040e-01 9.879735298454761505e-04
3.180000000000000049e-01 1.011801301501691341e-03
3.190000000000000058e-01 1.033520326018333435e-03
3.200000000000000067e-01 1.052938168868422508e-03
3.210000000000000075e-01 1.069869729690253735e-03
3.220000000000000084e-01 1.084141433238983154e-03
3.230000000000000093e-01 1.095593441277742386e-03
3.240000000000000102e-01 1.104079419746994972e-03
3.250000000000000111e-01 1.109471893869340420e-03
3.260000000000000120e-01 1.111660385504364967e-03
3.270000000000000129e-01 1.110555022023618221e-03
3.280000000000000138e-01 1.106087584048509598e-03
3.290000000000000147e-01 1.098210806958377361e-03
3.300000000000000155e-01 1.086903386749327183e-03
3.310000000000000164e-01 1.072165090590715408e-03
3.320000000000000173e-01 1.054021646268665791e-03
3.330000000000000182e-01 1.032523694448173046e-03
3.340000000000000191e-01 1.007744343951344490e-03
3.350000000000000200e-01 9.797831298783421516e-04
3.360000000000000209e-01 9.487600182183086872e-04
3.370000000000000218e-01 9.148193057626485825e-04
3.380000000000000226e-01 8.781258948147296906e-04
3.390000000000000235e-01 8.388629648834466934e-04
3.400000000000000244e-01 7.972340681590139866e-04
3.410000000000000253e-01 7.534560281783342361e-04
3.420000000000000262e-01 7.077619084157049656e-04
3.430000000000000271e-01 6.603962974622845650e-04
3.439999999999999725e-01 6.116117001511156559e-04
3.449999999999999734e-01 5.616702837869524956e-04
3.459999999999999742e-01 5.108368932269513607e-04
3.469999999999999751e-01 4.593799530994147062e-04
3.479999999999999760e-01 4.075678007211536169e-04
3.489999999999999769e-01 3.556646988727152348e-04
3.499999999999999778e-01 3.039323200937360525e-04
3.509999999999999787e-01 2.526237221900373697e-04
3.519999999999999796e-01 2.019831299548968673e-04
3.529999999999999805e-01 1.522444217698648572e-04
3.539999999999999813e-01 1.036266112350858748e-04
3.549999999999999822e-01 5.633700129692442715e-05
3.559999999999999831e-01 1.056504788721213117e-05
3.569999999999999840e-01 -3.351680061314254999e-05
3.579999999999999849e-01 -7.575243944302201271e-05
3.589999999999999858e-01 -1.160064421128481627e-04
3.599999999999999867e-01 -1.541608653496950865e-04
3.609999999999999876e-01 -1.901178329717367887e-04
3.619999999999999885e-01 -2.237997541669756174e-04
3.629999999999999893e-01 -2.551460056565701962e-04
3.639999999999999902e-01 -2.841173554770648479e-04
3.649999999999999911e-01 -3.106915974058210850e-04
3.659999999999999920e-01 -3.348636964801698923e-04
3.669999999999999929e-01 -3.566468367353081703e-04
3.679999999999999938e-01 -3.760679392144083977e-04
3.689999999999999947e-01 -3.931699611712247133e-04
3.699999999999999956e-01 -4.080093058291822672e-04
3.709999999999999964e-01 -4.206525336485356092e-04
3.719999999999999973e-01 -4.311792436055839062e-04
3.729999999999999982e-01 -4.396771837491542101e-04
3.739999999999999991e-01 -4.462416691239923239e-04
3.750000000000000000e-01 -4.509763966780155897e-04
3.760000000000000009e-01 -4.539874789770692587e-04
3.770000000000000018e-01 -4.553875187411904335e-04
3.780000000000000027e-01 -4.552910104393959045e-04
3.790000000000000036e-01 -4.538129724096506834e-04
3.800000000000000044e-01 -4.510701692197471857e-04
3.810000000000000053e-01 -4.471776774153113365e-04
3.820000000000000062e-01 -4.422492638695985079e-04
3.830000000000000071e-01 -4.363969783298671246e-04
3.840000000000000080e-01 -4.297280102036893368e-04
3.850000000000000089e-01 -4.223470168653875589e-04
3.860000000000000098e-01 -4.143542901147156954e-04
3.870000000000000107e-01 -4.058436024934053421e-04
3.880000000000000115e-01 -3.969056124333292246e-04
3.890000000000000124e-01 -3.876236733049154282e-04
3.900000000000000133e-01 -3.780762199312448502e-04
3.910000000000000142e-01 -3.683362447191029787e-04
3.920000000000000151e-01 -3.584692603908479214e-04
3.930000000000000160e-01 -3.485364140942692757e-04
3.940000000000000169e-01 -3.385929740034043789e-04
3.950000000000000178e-01 -3.286871360614895821e-04
3.960000000000000187e-01 -3.188631962984800339e-04
3.970000000000000195e-01 -3.091593680437654257e-04
3.980000000000000204e-01 -2.996086841449141502e-04
3.990000000000000213e-01 -2.902405394706875086e-04
4.000000000000000222e-01 -2.810780424624681473e-04
4.010000000000000231e-01 -2.721414493862539530e-04
4.020000000000000240e-01 -2.634476113598793745e-04
4.030000000000000249e-01 -2.550082281231880188e-04
4.040000000000000258e-01 -2.468330785632133484e-04
4.050000000000000266e-01 -2.389288129052147269e-04
4.060000000000000275e-01 -2.312987053301185369e-04
4.069999999999999729e-01 -2.239452442154288292e-04
4.079999999999999738e-01 -2.168674254789948463e-04
4.089999999999999747e-01 -2.100627461913973093e-04
4.099999999999999756e-01 -2.035283978329971433e-04
4.109999999999999765e-01 -1.972587051568552852e-04
4.119999999999999774e-01 -1.912476145662367344e-04
4.129999999999999782e-01 -1.854886504588648677e-04
4.139999999999999791e-01 -1.799734600353986025e-04
4.149999999999999800e-01 -1.746946072671562433e-04
4.159999999999999809e-01 -1.696433755569159985e-04
4.169999999999999818e-01 -1.648102188482880592e-04
4.179999999999999827e-01 -1.601871917955577374e-04
4.189999999999999836e-01 -1.557649229653179646e-04
4.199999999999999845e-01 -1.515338371973484755e-04
4.209999999999999853e-01 -1.474857708672061563e-04
4.220000999999999891e-01 -1.436116144759580493e-04
4.229999999999999871e-01 -1.399027823936194181e-04
4.239999999999999880e-01 -1.363516203127801418e-04
4.249999999999999889e-01 -1.329489168711006641e-04
4.259999999999999898e-01 -1.296878617722541094e-04
4.269999999999999907e-01 -1.265612663701176643e-04
4.279999999999999916e-01 -1.235611271113157272e-04
4.289999999999999925e-01 -1.206813249154947698e-04
4.299999999999999933e-01 -1.179156752186827362e-04
4.309999999999999942e-01 -1.152573677245527506e-04
4.319999999999999951e-01 -1.127013601944781840e-04
4.329999999999999960e-01 -1.102418755181133747e-04
4.339999999999999969e-01 -1.078734858310781419e-04
4.349999999999999978e-01 -1.055924149113707244e-04
4.359999999999999987e-01 -1.033931403071619570e-04
4.369999999999999996e-01 -1.012712309602648020e-04
4.380000000000000004e-01 -9.922398749040439725e-05
4.390000000000000013e-01 -9.724628762342035770e-05
4.400000000000000022e-01 -9.533514821669086814e-05
4.410000000000000031e-01 -9.348752791993319988e-05
4.420000000000000040e-01 -9.169973782263696194e-05
4.430000000000000049e-01 -8.996929682325571775e-05
4.440000000000000058e-01 -8.829369471641257405e-05
4.450000000000000067e-01 -8.666951180202886462e-05
4.460000000000000075e-01 -8.509508916176855564e-05
4.470000000000000084e-01 -8.356852049473673105e-05
4.480000000000000093e-01 -8.208697545342147350e-05
4.490000000000000102e-01 -8.064831490628421307e-05
4.500000000000000111e-01 -7.925308455014601350e-05
4.510000000000000120e-01 -7.789738447172567248e-05
4.520000000000000129e-01 -7.657927199034020305e-05
4.530000000000000138e-01 -7.530421135015785694e-05
4.540000000000000147e-01 -7.406173972412943840e-05
4.550000000000000155e-01 -7.285790343303233385e-05
4.560000000000000164e-01 -7.170045864768326283e-05
4.570000000000000173e-01 -7.056765025481581688e-05
4.580000000000000182e-01 -6.948787631699815392e-05
4.590001000000000220e-01 -6.845582538517192006e-05
4.600000000000000200e-01 -6.744913844158872962e-05
4.610000000000000209e-01 -6.652319279965013266e-05
4.620000000000000218e-01 -6.563837814610451460e-05
4.630000000000000226e-01 -6.480720185209065676e-05
4.640000000000000235e-01 -6.407661567209288478e-05
4.650000000000000244e-01 -6.339431274682283401e-05
4.660000000000000253e-01 -6.281045352807268500e-05
4.670000000000000262e-01 -6.233220483409240842e-05
4.680000000000000271e-01 -6.195012974785640836e-05
4.689999999999999725e-01 -6.169389234855771065e-05
4.699999999999999734e-01 -6.157830648589879274e-05
4.709999999999999742e-01 -6.162642966955900192e-05
4.719999999999999751e-01 -6.183775985846295953e-05
4.729999999999999760e-01 -6.228403799468651414e-05