-1.200000e-01 0.000000e+00
-1.190000e-01 0.000000e+00
-1.180000e-01 0.000000e+00
-1.170000e-01 0.000000e+00
-1.160000e-01 0.000000e+00
-1.150000e-01 0.000000e+00
-1.140000e-01 0.000000e+00
-1.130000e-01 0.000000e+00
-1.120000e-01 0.000000e+00
-1.110000e-01 0.000000e+00
-1.100000e-01 0.000000e+00
-1.090000e-01 0.000000e+00
-1.080000e-01 0.000000e+00
-1.070000e-01 0.000000e+00
-1.060000e-01 0.000000e+00
-1.050000e-01 0.000000e+00
-1.040000e-01 0.000000e+00
-1.030000e-01 0.000000e+00
-1.020000e-01 0.000000e+00
-1.010000e-01 0.000000e+00
-1.000000e-01 0.000000e+00
-9.900001e-02 0.000000e+00
-9.800000e-02 0.000000e+00
-9.700000e-02 0.000000e+00
-9.600000e-02 0.000000e+00
-9.500001e-02 0.000000e+00
-9.400000e-02 0.000000e+00
-9.300000e-02 0.000000e+00
-9.200001e-02 -1.401298e-45
-9.100001e-02 -2.802597e-45
-9.000000e-02 -1.261169e-44
-8.900000e-02 -5.605194e-44
-8.800000e-02 -1.695571e-43
-8.700000e-02 -2.073922e-43
-8.600000e-02 9.332648e-43
-8.500001e-02 6.632346e-42
-8.400001e-02 2.127732e-41
-8.300000e-02 3.447054e-41
-8.200000e-02 -2.861872e-41
-8.100000e-02 -3.760244e-40
-8.000000e-02 -1.260460e-39
-7.900000e-02 -2.241310e-39
-7.800000e-02 -2.402849e-40
-7.700001e-02 1.262157e-38
-7.600001e-02 4.537826e-38
-7.500000e-02 8.550845e-38
-7.400000e-02 4.719488e-38
-7.300000e-02 -2.760910e-37
-7.200000e-02 -1.113112e-36
-7.100000e-02 -2.214840e-36
-7.000001e-02 -1.838648e-36
-6.900001e-02 4.046339e-36
-6.800000e-02 1.986803e-35
-6.700000e-02 4.209722e-35
-6.600000e-02 4.367626e-35
-6.500000e-02 -3.689797e-35
-6.400000e-02 -2.682747e-34
-6.300000e-02 -6.157632e-34
-6.200000e-02 -7.472690e-34
-6.100000e-02 9.600487e-35
-6.000000e-02 2.792368e-33
-5.900000e-02 7.146984e-33
-5.800000e-02 9.867249e-33
-5.700000e-02 3.202134e-33
-5.600000e-02 -2.230633e-32
-5.500000e-02 -6.708076e-32
-5.400001e-02 -1.044510e-31
-5.300000e-02 -6.778448e-32
-5.200000e-02 1.298121e-31
-5.100000e-02 5.135223e-31
-5.000000e-02 9.070735e-31
-4.900000e-02 8.233593e-31
-4.800000e-02 -4.253145e-31
-4.700000e-02 -3.192441e-30
-4.600000e-02 -6.549328e-30
-4.500000e-02 -7.453415e-30
-4.400000e-02 -1.184680e-30
-4.300000e-02 1.566268e-29
-4.200000e-02 3.950788e-29
-4.100000e-02 5.414605e-29
-4.000000e-02 3.136731e-29
-3.900000e-02 -5.477546e-29
-3.800000e-02 -1.979399e-28
-3.700000e-02 -3.254852e-28
-3.600000e-02 -2.904415e-28
-3.500000e-02 7.171879e-29
-3.400000e-02 8.025405e-28
-3.300000e-02 1.638051e-27
-3.200000e-02 1.912893e-27
-3.100000e-02 7.373036e-28
-3.000000e-02 -2.424219e-27
-2.900000e-02 -6.881240e-27
-2.800000e-02 -1.004338e-26
-2.700000e-02 -7.756640e-27
-2.600000e-02 3.627025e-27
-2.500000e-02 2.354960e-26
-2.400000e-02 4.355840e-26
-2.300000e-02 4.684568e-26
-2.200000e-02 1.449321e-26
-2.100000e-02 -6.061230e-26
-2.000000e-02 -1.568856e-25
-1.900000e-02 -2.156545e-25
-1.800000e-02 -1.558817e-25
-1.700000e-02 7.984152e-26
-1.600000e-02 4.587071e-25
-1.500000e-02 8.071667e-25
-1.400000e-02 8.305363e-25
-1.300000e-02 2.442261e-25
-1.200000e-02 -9.981314e-25
-1.100000e-02 -2.482662e-24
-9.999998e-03 -3.296023e-24
-8.999996e-03 -2.335104e-24
-8.000001e-03 1.015579e-24
-6.999999e-03 6.085441e-24
-5.999997e-03 1.050456e-23
-5.000003e-03 1.073461e-23
-4.000001e-03 3.777955e-24
-2.999999e-03 -1.039726e-23
-1.999997e-03 -2.696041e-23
-1.000002e-03 -3.645862e-23
0.000000e+00 -2.826841e-23
1.000002e-03 3.200749e-24
2.000004e-03 5.202691e-23
2.999999e-03 9.793494e-23
4.000001e-03 1.107321e-22
4.999995e-03 6.310851e-23
5.999997e-03 -5.140509e-23
6.999999e-03 -2.029661e-22
8.000001e-03 -3.224633e-22
9.000003e-03 -3.194623e-22
1.000001e-02 -1.227147e-22
1.100001e-02 2.664273e-22
1.199999e-02 7.304989e-22
1.300000e-02 1.034348e-21
1.400000e-02 8.942919e-22
1.500000e-02 1.228882e-22
1.600000e-02 -1.191495e-21
1.700000e-02 -2.564005e-21
1.800001e-02 -3.172325e-21
1.900001e-02 -2.176657e-21
2.000000e-02 7.449878e-22
2.100000e-02 4.873896e-21
2.200000e-02 8.305767e-21
2.300000e-02 8.510247e-21
2.400000e-02 3.622129e-21
2.500001e-02 -6.002425e-21
2.600001e-02 -1.686817e-20
2.700000e-02 -2.299614e-20
2.800000e-02 -1.848084e-20
2.900000e-02 -1.159142e-21
3.000000e-02 2.447619e-20
3.100000e-02 4.725298e-20
3.200001e-02 5.327822e-20
3.300001e-02 3.285527e-20
3.400001e-02 -1.278362e-20
3.500000e-02 -6.880157e-20
3.600000e-02 -1.105405e-19
3.700000e-02 -1.130180e-19
3.800000e-02 -6.232595e-20
3.900000e-02 3.595107e-20
4.000001e-02 1.546307e-19
4.100001e-02 2.496665e-19
4.200000e-02 2.705079e-19
4.300000e-02 1.753521e-19
4.400000e-02 -4.852996e-20
4.500000e-02 -3.616214e-19
4.600000e-02 -6.561511e-19
4.700001e-02 -7.664032e-19
4.800001e-02 -5.246429e-19
4.900001e-02 1.372163e-19
5.000000e-02 1.077811e-18
5.100000e-02 1.902745e-18
5.200000e-02 2.064275e-18
5.300000e-02 1.124283e-18
5.400001e-02 -9.076291e-19
5.500001e-02 -3.352976e-18
5.600001e-02 -4.969718e-18
5.700000e-02 -4.468220e-18
5.800000e-02 -1.279080e-18
5.900000e-02 3.821623e-18
6.000000e-02 8.681986e-18
6.100000e-02 1.056401e-17
6.200001e-02 7.525592e-18
6.300001e-02 -2.730920e-19
6.400001e-02 -1.013194e-17
6.500000e-02 -1.768201e-17
6.600000e-02 -1.880179e-17
6.700000e-02 -1.166285e-17
6.800000e-02 2.171188e-18
6.900001e-02 1.817108e-17
7.000001e-02 3.050459e-17
7.100001e-02 3.400428e-17
7.200000e-02 2.557661e-17
7.300000e-02 4.906069e-18
7.400000e-02 -2.498249e-17
7.500000e-02 -5.684154e-17
7.600001e-02 -7.865068e-17
7.700001e-02 -7.533705e-17
7.800001e-02 -3.465315e-17
7.900001e-02 4.329777e-17
8.000000e-02 1.374013e-16
8.100000e-02 2.051401e-16
8.200000e-02 1.963776e-16
8.300000e-02 8.006290e-17
8.400001e-02 -1.275047e-16
8.500001e-02 -3.509366e-16
8.600001e-02 -4.754848e-16
8.700001e-02 -3.984053e-16
8.800000e-02 -9.169092e-17
8.900000e-02 3.581251e-16
9.000000e-02 7.636181e-16
9.100001e-02 9.099894e-16
9.200001e-02 6.608413e-16
9.300001e-02 4.410972e-17
9.400001e-02 -7.317334e-16
9.500000e-02 -1.349229e-15
9.600000e-02 -1.513470e-15
9.700000e-02 -1.082677e-15
9.800000e-02 -1.369605e-16
9.900001e-02 1.041905e-15
1.000000e-01 2.061618e-15
1.010000e-01 2.536290e-15
1.020000e-01 2.190818e-15
1.030000e-01 9.430412e-16
1.040000e-01 -1.026967e-15
1.050000e-01 -3.227254e-15
1.060000e-01 -4.874749e-15
1.070000e-01 -5.064908e-15
1.080000e-01 -3.128569e-15
1.090000e-01 9.067481e-16
1.100000e-01 5.979069e-15
1.110000e-01 1.006612e-14
1.120000e-01 1.084116e-14
1.130000e-01 6.783933e-15
1.140000e-01 -1.721096e-15
1.150000e-01 -1.193887e-14
1.160000e-01 -1.946101e-14
1.170000e-01 -1.996961e-14
1.180000e-01 -1.142502e-14
1.190000e-01 4.380818e-15
1.200000e-01 2.184758e-14
1.210000e-01 3.345269e-14
1.220000e-01 3.287574e-14
1.230000e-01 1.803872e-14
1.240000e-01 -7.353920e-15
1.250000e-01 -3.459592e-14
1.260000e-01 -5.290489e-14
1.270000e-01 -5.341321e-14
1.280000e-01 -3.274898e-14
1.290000e-01 5.049580e-15
1.300000e-01 4.892782e-14
1.310000e-01 8.349628e-14
1.320000e-01 9.348551e-14
1.330000e-01 6.909355e-14
1.340000e-01 1.094016e-14
1.350000e-01 -6.711617e-14
1.360000e-01 -1.392240e-13
1.370000e-01 -1.741187e-13
1.380000e-01 -1.464733e-13
1.390000e-01 -4.979846e-14
1.400000e-01 9.460285e-14
1.410000e-01 2.384036e-13
1.420000e-01 3.197585e-13
1.430000e-01 2.871513e-13
1.440000e-01 1.252522e-13
1.450000e-01 -1.289276e-13
1.460000e-01 -3.896319e-13
1.470000e-01 -5.486734e-13
1.480000e-01 -5.173864e-13
1.490000e-01 -2.685261e-13
1.500000e-01 1.403389e-13
1.510000e-01 5.751619e-13
1.520000e-01 8.669002e-13
1.530000e-01 8.737661e-13
1.540000e-01 5.418767e-13
1.550000e-01 -5.985859e-14
1.560000e-01 -7.472318e-13
1.570000e-01 -1.272913e-12
1.580000e-01 -1.409538e-12
1.590000e-01 -1.037589e-12
1.600000e-01 -2.073712e-13
1.610000e-01 8.506447e-13
1.620000e-01 1.779115e-12
1.630000e-01 2.203105e-12
1.640000e-01 1.866879e-12
1.650000e-01 7.538915e-13
1.660000e-01 -8.584317e-13
1.670000e-01 -2.444733e-12
1.680000e-01 -3.384088e-12
1.690000e-01 -3.183343e-12
1.700000e-01 -1.698374e-12
1.710000e-01 7.369050e-13
1.720000e-01 3.347136e-12
1.730000e-01 5.138397e-12
1.740000e-01 5.254052e-12
1.750000e-01 3.342960e-12
1.760000e-01 -2.096292e-13
1.770000e-01 -4.308331e-12
1.780000e-01 -7.464210e-12
1.790000e-01 -8.319518e-12
1.800000e-01 -6.199753e-12
1.810000e-01 -1.474797e-12
1.820000e-01 4.441388e-12
1.830000e-01 9.499854e-12
1.840000e-01 1.172524e-11
1.850000e-01 9.983890e-12
1.860000e-01 4.520836e-12
1.870000e-01 -2.969514e-12
1.880000e-01 -9.823610e-12
1.890000e-01 -1.332681e-11
1.900000e-01 -1.177768e-11
1.910000e-01 -5.313444e-12
1.920000e-01 3.855239e-12
1.930000e-01 1.198720e-11
1.940000e-01 1.506040e-11
1.950000e-01 1.038104e-11
1.960000e-01 -1.995777e-12
1.970000e-01 -1.861930e-11
1.980000e-01 -3.318423e-11
1.990000e-01 -3.831090e-11
2.000000e-01 -2.815907e-11
2.010000e-01 -1.071821e-12
2.020000e-01 3.872643e-11
2.030000e-01 8.119046e-11
2.040000e-01 1.125848e-10
2.050000e-01 1.192928e-10
2.060000e-01 9.224504e-11
2.070000e-01 3.054025e-11
2.080000e-01 -5.705559e-11
2.090000e-01 -1.534345e-10
2.100000e-01 -2.370724e-10
2.110000e-01 -2.874092e-10
2.120000e-01 -2.899777e-10
2.130000e-01 -2.396133e-10
2.140000e-01 -1.407525e-10
2.150000e-01 -4.907214e-12
2.160000e-01 1.534897e-10
2.170000e-01 3.209844e-10
2.180000e-01 4.868870e-10
2.190000e-01 6.418890e-10
2.200000e-01 7.738101e-10
2.210000e-01 8.622178e-10
2.220000e-01 8.746657e-10
2.230000e-01 7.674079e-10
2.240000e-01 4.924888e-10
2.250000e-01 1.123668e-11
2.260000e-01 -6.880997e-10
2.270000e-01 -1.572842e-09
2.280000e-01 -2.553791e-09
2.290000e-01 -3.483376e-09
2.300000e-01 -4.166926e-09
2.310000e-01 -4.386822e-09
2.320000e-01 -3.936067e-09
2.330000e-01 -2.655276e-09
2.340000e-01 -4.663110e-10
2.350000e-01 2.603000e-09
2.360000e-01 6.405722e-09
2.370000e-01 1.067327e-08
2.380000e-01 1.501942e-08
2.390000e-01 1.894553e-08
2.400000e-01 2.184240e-08
2.410000e-01 2.298715e-08
2.420000e-01 2.153687e-08
2.430000e-01 1.652350e-08
2.440000e-01 6.854786e-09
2.450000e-01 -8.676138e-09
2.460000e-01 -3.137508e-08
2.470000e-01 -6.263301e-08
2.480000e-01 -1.039269e-07
2.490000e-01 -1.568497e-07
2.500000e-01 -2.231805e-07
2.510000e-01 -3.050017e-07
2.520000e-01 -4.048592e-07
2.530000e-01 -5.259546e-07
2.540000e-01 -6.723539e-07
2.550000e-01 -8.491958e-07
2.560000e-01 -1.062888e-06
2.570000e-01 -1.321288e-06
2.580000e-01 -1.633885e-06
2.590000e-01 -2.011984e-06
2.600000e-01 -2.468939e-06
2.610000e-01 -3.020434e-06
2.620000e-01 -3.684840e-06
2.630000e-01 -4.483654e-06
2.640000e-01 -5.442003e-06
2.650000e-01 -6.589209e-06
2.660000e-01 -7.959402e-06
2.670000e-01 -9.592171e-06
2.680000e-01 -1.153326e-05
2.690000e-01 -1.383530e-05
2.700000e-01 -1.655868e-05
2.710000e-01 -1.977241e-05
2.720000e-01 -2.355526e-05
2.730000e-01 -2.799687e-05
2.740000e-01 -3.319909e-05
2.750000e-01 -3.927734e-05
2.760000e-01 -4.636205e-05
2.770000e-01 -5.460013e-05
2.780000e-01 -6.415647e-05
2.790000e-01 -7.521531e-05
2.800000e-01 -8.798177e-05
2.810000e-01 -1.026832e-04
2.820000e-01 -1.195707e-04
2.830000e-01 -1.389204e-04
2.840000e-01 -1.610351e-04
2.850000e-01 -1.862457e-04
2.860000e-01 -2.149117e-04
2.870000e-01 -2.474229e-04
2.880000e-01 -2.841997e-04
2.890000e-01 -3.256932e-04
2.900000e-01 -3.723852e-04
2.910000e-01 -4.247874e-04
2.920000e-01 -4.834404e-04
2.930000e-01 -5.489119e-04
2.940000e-01 -6.217943e-04
2.950000e-01 -7.027023e-04
2.960000e-01 -7.922685e-04
2.970000e-01 -8.911397e-04
2.980000e-01 -9.999709e-04
2.990000e-01 -1.119419e-03
3.000000e-01 -1.250136e-03
3.010000e-01 -1.392758e-03
3.020000e-01 -1.547900e-03
3.030000e-01 -1.716140e-03
3.040000e-01 -1.898012e-03
3.050000e-01 -2.093991e-03
3.060000e-01 -2.304480e-03
3.070000e-01 -2.529800e-03
3.080000e-01 -2.770169e-03
3.090000e-01 -3.025694e-03
3.100000e-01 -3.296350e-03
3.110000e-01 -3.581967e-03
3.120000e-01 -3.882218e-03
3.130000e-01 -4.196596e-03
3.140000e-01 -4.524407e-03
3.150000e-01 -4.864755e-03
3.160000e-01 -5.216525e-03
3.170000e-01 -5.578378e-03
3.180000e-01 -5.948741e-03
3.190000e-01 -6.325805e-03
3.200000e-01 -6.707515e-03
3.210000e-01 -7.091573e-03
3.220000e-01 -7.475438e-03
3.230000e-01 -7.856335e-03
3.240000e-01 -8.231266e-03
3.250000e-01 -8.597020e-03
3.260000e-01 -8.950193e-03
3.270000e-01 -9.287209e-03
3.280000e-01 -9.604345e-03
3.290000e-01 -9.897763e-03
3.300000e-01 -1.016355e-02
3.310000e-01 -1.039774e-02
3.320000e-01 -1.059637e-02
3.330000e-01 -1.075554e-02
3.340000e-01 -1.087141e-02
3.350000e-01 -1.094031e-02
3.360000e-01 -1.095873e-02
3.370000e-01 -1.092342e-02
3.380000e-01 -1.083141e-02
3.390000e-01 -1.068010e-02
3.400000e-01 -1.046725e-02
3.410000e-01 -1.019108e-02
3.420000e-01 -9.850288e-03
3.430000e-01 -9.444090e-03
3.440000e-01 -8.972263e-03
3.450000e-01 -8.435170e-03
3.460000e-01 -7.833782e-03
3.470000e-01 -7.169693e-03
3.480000e-01 -6.445129e-03
3.490000e-01 -5.662945e-03
3.500000e-01 -4.826618e-03
3.510000e-01 -3.940234e-03
3.520000e-01 -3.008458e-03
3.530000e-01 -2.036505e-03
3.540000e-01 -1.030099e-03
3.550000e-01 4.585017e-06
3.560000e-01 1.060968e-03
3.570000e-01 2.132138e-03
3.580000e-01 3.210913e-03
3.590000e-01 4.289919e-03
3.600000e-01 5.361662e-03
3.610000e-01 6.418612e-03
3.620000e-01 7.453285e-03
3.630000e-01 8.458323e-03
3.640000e-01 9.426575e-03
3.650000e-01 1.035118e-02
3.660000e-01 1.122563e-02
3.670000e-01 1.204387e-02
3.680000e-01 1.280034e-02
3.690000e-01 1.349002e-02
3.700000e-01 1.410853e-02
3.710000e-01 1.465214e-02
3.720000e-01 1.511780e-02
3.730000e-01 1.550319e-02
3.740000e-01 1.580672e-02
3.750000e-01 1.602755e-02
3.760000e-01 1.616558e-02
3.770000e-01 1.622142e-02
3.780000e-01 1.619642e-02
3.790000e-01 1.609259e-02
3.800000e-01 1.591258e-02
3.810000e-01 1.565965e-02
3.820000e-01 1.533763e-02
3.830000e-01 1.495079e-02
3.840000e-01 1.450388e-02
3.850000e-01 1.400198e-02
3.860000e-01 1.345048e-02
3.870000e-01 1.285502e-02
3.880000e-01 1.222138e-02
3.890000e-01 1.155545e-02
3.900000e-01 1.086315e-02
3.910000e-01 1.015035e-02
3.920000e-01 9.422844e-03
3.930000e-01 8.686258e-03
3.940000e-01 7.946023e-03
3.950000e-01 7.207322e-03
3.960000e-01 6.475044e-03
3.970000e-01 5.753749e-03
3.980000e-01 5.047636e-03
3.990000e-01 4.360525e-03
4.000000e-01 3.695841e-03
4.010000e-01 3.056606e-03
4.020000e-01 2.445425e-03
4.030000e-01 1.864493e-03
4.040000e-01 1.315593e-03
4.050000e-01 8.001038e-04
4.060000e-01 3.190227e-04
4.070000e-01 -1.270215e-04
4.080000e-01 -5.377441e-04
4.090000e-01 -9.131824e-04
4.100000e-01 -1.253671e-03
4.110000e-01 -1.559813e-03
4.120000e-01 -1.832458e-03
4.130000e-01 -2.072665e-03
4.140000e-01 -2.281676e-03
4.150000e-01 -2.460889e-03
4.160000e-01 -2.611826e-03
4.170000e-01 -2.736110e-03
4.180000e-01 -2.835438e-03
4.190000e-01 -2.911553e-03
4.200000e-01 -2.966228e-03
4.210000e-01 -3.001241e-03
4.220001e-01 -3.018358e-03
4.230000e-01 -3.019312e-03
4.240000e-01 -3.005793e-03
4.250000e-01 -2.979432e-03
4.260000e-01 -2.941794e-03
4.270000e-01 -2.894365e-03
4.280000e-01 -2.838551e-03
4.290000e-01 -2.775668e-03
4.300000e-01 -2.706945e-03
4.310000e-01 -2.633513e-03
4.320000e-01 -2.556410e-03
4.330000e-01 -2.476578e-03
4.340000e-01 -2.394868e-03
4.350000e-01 -2.312043e-03
4.360000e-01 -2.228783e-03
4.370000e-01 -2.145683e-03
4.380000e-01 -2.063264e-03
4.390000e-01 -1.981968e-03
4.400000e-01 -1.902171e-03
4.410000e-01 -1.824185e-03
4.420000e-01 -1.748269e-03
4.430000e-01 -1.674630e-03
4.440000e-01 -1.603426e-03
4.450000e-01 -1.534777e-03
4.460000e-01 -1.468758e-03
4.470000e-01 -1.405416e-03
4.480000e-01 -1.344767e-03
4.490000e-01 -1.286805e-03
4.500000e-01 -1.231503e-03
4.510000e-01 -1.178816e-03
4.520000e-01 -1.128684e-03
4.530000e-01 -1.081033e-03
4.540000e-01 -1.035783e-03
4.550000e-01 -9.928455e-04
4.560000e-01 -9.521322e-04
4.570000e-01 -9.135502e-04
4.580000e-01 -8.770036e-04
4.590001e-01 -8.423933e-04
4.600000e-01 -8.096187e-04
4.610000e-01 -7.785804e-04
4.620000e-01 -7.491826e-04
4.630000e-01 -7.213348e-04
4.640000e-01 -6.949509e-04
4.650000e-01 -6.699480e-04
4.660000e-01 -6.462453e-04
4.670000e-01 -6.237635e-04
4.680000e-01 -6.024263e-04
4.690000e-01 -5.821609e-04
4.700000e-01 -5.628996e-04
4.710000e-01 -5.445798e-04
4.720000e-01 -5.271434e-04
4.730000e-01 -5.105365e-04
4.740000e-01 -4.947087e-04
4.750000e-01 -4.796126e-04
4.760000e-01 -4.652030e-04
4.770000e-01 -4.514373e-04
4.780000e-01 -4.382756e-04
4.790000e-01 -4.256812e-04
4.800000e-01 -4.136211e-04
4.810000e-01 -4.020651e-04
4.820001e-01 -3.909851e-04
4.830000e-01 -3.803540e-04
4.840000e-01 -3.701455e-04
4.850000e-01 -3.603347e-04
4.860000e-01 -3.508999e-04
4.870000e-01 -3.418231e-04
4.880000e-01 -3.330894e-04
4.890000e-01 -3.246848e-04
4.900000e-01 -3.165941e-04
4.910000e-01 -3.088004e-04
4.920000e-01 -3.012859e-04
4.930000e-01 -2.940346e-04
4.940000e-01 -2.870343e-04
4.950000e-01 -2.802763e-04
4.960001e-01 -2.737532e-04
4.970000e-01 -2.674568e-04
4.980000e-01 -2.613761e-04
4.990000e-01 -2.554992e-04
5.000000e-01 -2.498144e-04
5.010000e-01 -2.443127e-04
5.020000e-01 -2.389868e-04
5.030000e-01 -2.338300e-04
5.040000e-01 -2.288341e-04
5.050000e-01 -2.239891e-04
5.060000e-01 -2.192856e-04
5.070000e-01 -2.147163e-04
5.080000e-01 -2.102774e-04
5.090000e-01 -2.059677e-04
5.100001e-01 -2.017853e-04
5.110000e-01 -1.977257e-04
5.120000e-01 -1.937816e-04
5.130000e-01 -1.899444e-04
5.140000e-01 -1.862069e-04
5.150000e-01 -1.825642e-04
5.160000e-01 -1.790136e-04
5.170000e-01 -1.755534e-04
5.180000e-01 -1.721813e-04
5.190001e-01 -1.688951e-04
5.200000e-01 -1.656933e-04
5.210000e-01 -1.625764e-04
5.220000e-01 -1.595450e-04
5.230000e-01 -1.565986e-04
5.240000e-01 -1.537339e-04
5.250000e-01 -1.509449e-04
5.260000e-01 -1.482249e-04
5.270000e-01 -1.455693e-04
5.280000e-01 -1.429767e-04
5.290000e-01 -1.404486e-04
5.300000e-01 -1.379871e-04
5.310000e-01 -1.355932e-04
5.320000e-01 -1.332652e-04
5.330001e-01 -1.309997e-04
5.340000e-01 -1.287921e-04
5.350000e-01 -1.266374e-04
5.360000e-01 -1.245303e-04
5.370000e-01 -1.224650e-04
5.380000e-01 -1.204362e-04
5.390000e-01 -1.184400e-04
5.400000e-01 -1.164745e-04
5.410000e-01 -1.145389e-04
5.420001e-01 -1.126319e-04
5.430000e-01 -1.107497e-04
5.440000e-01 -1.088860e-04
5.450000e-01 -1.070333e-04
5.460000e-01 -1.051847e-04
5.470001e-01 -1.033347e-04
5.480000e-01 -1.014783e-04
5.490000e-01 -9.960868e-05
5.500000e-01 -9.771607e-05
5.510000e-01 -9.578878e-05
5.520000e-01 -9.381569e-05
5.530000e-01 -9.178837e-05
5.540000e-01 -8.970078e-05
5.550000e-01 -8.754626e-05
5.560001e-01 -8.531369e-05
5.570000e-01 -8.298562e-05
5.580000e-01 -8.053947e-05
5.590000e-01 -7.795102e-05
5.600000e-01 -7.519747e-05
5.610000e-01 -7.225794e-05
5.620000e-01 -6.911128e-05
5.630000e-01 -6.573323e-05
5.640000e-01 -6.209507e-05
5.650001e-01 -5.816469e-05
5.660000e-01 -5.390861e-05
5.670000e-01 -4.929275e-05
5.680000e-01 -4.428091e-05
5.690000e-01 -3.883203e-05
5.700001e-01 -3.289863e-05
5.710000e-01 -2.642813e-05
5.720000e-01 -1.936668e-05
5.730000e-01 -1.166286e-05
5.740000e-01 -3.268940e-06
5.750000e-01 5.861159e-06
5.760000e-01 1.577540e-05
5.770000e-01 2.652611e-05
5.780000e-01 3.816968e-05
5.790001e-01 5.076400e-05
5.800000e-01 6.436557e-05
5.810000e-01 7.902791e-05
5.820000e-01 9.480149e-05
5.830000e-01 1.117339e-04
5.840001e-01 1.298690e-04
5.850000e-01 1.492448e-04
5.860000e-01 1.698921e-04
5.870000e-01 1.918336e-04
5.880000e-01 2.150857e-04
5.890000e-01 2.396596e-04
5.900000e-01 2.655616e-04
5.910000e-01 2.927907e-04
5.920000e-01 3.213352e-04
5.930001e-01 3.511702e-04
5.940000e-01 3.822567e-04
5.950000e-01 4.145423e-04
5.960000e-01 4.479621e-04
5.970000e-01 4.824378e-04
5.980000e-01 5.178773e-04
5.990000e-01 5.541731e-04
6.000000e-01 5.912036e-04
6.010000e-01 6.288352e-04
6.020001e-01 6.669234e-04
6.030000e-01 7.053129e-04
6.040000e-01 7.438362e-04
6.050000e-01 7.823110e-04
6.060000e-01 8.205412e-04
6.070001e-01 8.583196e-04
6.080000e-01 8.954310e-04
6.090000e-01 9.316556e-04
6.100000e-01 9.667695e-04
6.110000e-01 1.000544e-03
6.120000e-01 1.032745e-03
6.130000e-01 1.063139e-03
6.140000e-01 1.091494e-03
6.150000e-01 1.117586e-03
6.160001e-01 1.141203e-03
6.170000e-01 1.162139e-03
6.180000e-01 1.180201e-03
6.190000e-01 1.195202e-03
6.200000e-01 1.206968e-03
6.210001e-01 1.215343e-03
6.220000e-01 1.220194e-03
6.230000e-01 1.221411e-03
6.240000e-01 1.218905e-03
6.250001e-01 1.212610e-03
6.260000e-01 1.202480e-03
6.270000e-01 1.188496e-03
6.280000e-01 1.170669e-03
6.290000e-01 1.149041e-03
6.300001e-01 1.123683e-03
6.310000e-01 1.094688e-03
6.320000e-01 1.062173e-03
6.330000e-01 1.026273e-03
6.340000e-01 9.871459e-04
6.350001e-01 9.449776e-04
6.360000e-01 8.999765e-04
6.370000e-01 8.523730e-04
6.380000e-01 8.024137e-04
6.390001e-01 7.503590e-04
6.400000e-01 6.964818e-04
6.410000e-01 6.410665e-04
6.420000e-01 5.844064e-04
6.430000e-01 5.267995e-04
6.440001e-01 4.685431e-04
6.450000e-01 4.099300e-04
6.460000e-01 3.512482e-04
6.470000e-01 2.927820e-04
6.480000e-01 2.348117e-04
6.490000e-01 1.776110e-04
6.500000e-01 1.214420e-04
6.510000e-01 6.655087e-05
6.520000e-01 1.316579e-05
6.530001e-01 -3.850303e-05
6.540000e-01 -8.826248e-05
6.550000e-01 -1.359378e-04
6.560000e-01 -1.813757e-04
6.570000e-01 -2.244477e-04
6.580001e-01 -2.650504e-04
6.590000e-01 -3.031028e-04
6.600000e-01 -3.385413e-04
6.610000e-01 -3.713170e-04
6.620001e-01 -4.013971e-04
6.630000e-01 -4.287681e-04
6.640000e-01 -4.534397e-04
6.650000e-01 -4.754444e-04
6.660000e-01 -4.948332e-04
6.670001e-01 -5.116703e-04
6.680000e-01 -5.260297e-04
6.690000e-01 -5.379957e-04
6.700000e-01 -5.476642e-04
6.710000e-01 -5.551435e-04
6.720001e-01 -5.605510e-04
6.730000e-01 -5.640080e-04
6.740000e-01 -5.656359e-04
6.750000e-01 -5.655548e-04
6.760001e-01 -5.638869e-04
6.770000e-01 -5.607592e-04
6.780000e-01 -5.563037e-04
6.790000e-01 -5.506538e-04
6.800000e-01 -5.439389e-04
6.810001e-01 -5.362807e-04
6.820000e-01 -5.277933e-04
6.830000e-01 -5.185861e-04
6.840000e-01 -5.087655e-04
6.850001e-01 -4.984345e-04
6.860000e-01 -4.876898e-04
6.870000e-01 -4.766186e-04
6.880000e-01 -4.652992e-04
6.890000e-01 -4.538031e-04
6.900001e-01 -4.421990e-04
6.910000e-01 -4.305539e-04
6.920000e-01 -4.189303e-04
6.930000e-01 -4.073831e-04
6.940000e-01 -3.959575e-04
6.950001e-01 -3.846895e-04
6.960000e-01 -3.736097e-04
6.970000e-01 -3.627461e-04
6.980000e-01 -3.521249e-04
6.990001e-01 -3.417684e-04
7.000000e-01 -3.316931e-04
7.010000e-01 -3.219094e-04
7.020000e-01 -3.124245e-04
7.030000e-01 -3.032450e-04
7.040001e-01 -2.943783e-04
7.050000e-01 -2.858311e-04
7.060000e-01 -2.776065e-04
7.070000e-01 -2.697021e-04
7.080001e-01 -2.621110e-04
7.090001e-01 -2.548242e-04
7.100000e-01 -2.478333e-04
7.110000e-01 -2.411306e-04
7.120000e-01 -2.347084e-04
7.130001e-01 -2.285569e-04
7.140000e-01 -2.226645e-04
7.150000e-01 -2.170198e-04
7.160000e-01 -2.116136e-04
7.170000e-01 -2.064395e-04
7.180001e-01 -2.014919e-04
7.190000e-01 -1.967634e-04
7.200000e-01 -1.922427e-04
7.210000e-01 -1.879159e-04
7.220001e-01 -1.837679e-04
7.230000e-01 -1.797856e-04
7.240000e-01 -1.759580e-04
7.250000e-01 -1.722756e-04
7.260000e-01 -1.687295e-04
7.270001e-01 -1.653111e-04
7.280000e-01 -1.620132e-04
7.290000e-01 -1.588303e-04
7.300000e-01 -1.557587e-04
7.310000e-01 -1.527938e-04
7.320001e-01 -1.499289e-04
7.330000e-01 -1.471541e-04
7.340000e-01 -1.444589e-04
7.350000e-01 -1.418344e-04
7.360001e-01 -1.392749e-04
7.370000e-01 -1.367774e-04
7.380000e-01 -1.343401e-04
7.390000e-01 -1.319608e-04
7.400000e-01 -1.296369e-04
7.410001e-01 -1.273674e-04
7.420000e-01 -1.251535e-04
7.430000e-01 -1.229983e-04
7.440000e-01 -1.209044e-04
7.450001e-01 -1.188717e-04
7.460001e-01 -1.168964e-04
7.470000e-01 -1.149732e-04
7.480000e-01 -1.130978e-04
7.490000e-01 -1.112690e-04
7.500001e-01 -1.094892e-04
7.510000e-01 -1.077618e-04
7.520000e-01 -1.060902e-04
7.530000e-01 -1.044765e-04
7.540000e-01 -1.029217e-04
7.550001e-01 -1.014270e-04
7.560000e-01 -9.999264e-05
7.570000e-01 -9.861754e-05
7.580000e-01 -9.729794e-05
7.590001e-01 -9.602784e-05
7.600001e-01 -9.480080e-05
7.610000e-01 -9.361201e-05
7.620000e-01 -9.245930e-05
7.630000e-01 -9.134243e-05
7.640001e-01 -9.026124e-05
7.650000e-01 -8.921423e-05
7.660000e-01 -8.819831e-05
7.670000e-01 -8.720972e-05
7.680001e-01 -8.624476e-05
7.690001e-01 -8.529977e-05
7.700000e-01 -8.437024e-05
7.710000e-01 -8.345042e-05
7.720000e-01 -8.253400e-05
7.730001e-01 -8.161595e-05
7.740000e-01 -8.069407e-05
7.750000e-01 -7.976915e-05
7.760000e-01 -7.884348e-05
7.770000e-01 -7.791902e-05
7.780001e-01 -7.699630e-05
7.790000e-01 -7.607528e-05
7.800000e-01 -7.515683e-05
7.810000e-01 -7.424368e-05
7.820001e-01 -7.333971e-05
7.830001e-01 -7.244796e-05
7.840000e-01 -7.156915e-05
7.850000e-01 -7.070199e-05
7.860000e-01 -6.984533e-05
7.870001e-01 -6.900074e-05
7.880000e-01 -6.817344e-05
7.890000e-01 -6.737081e-05
7.900000e-01 -6.659948e-05
7.910001e-01 -6.586286e-05
7.920001e-01 -6.516064e-05
7.930000e-01 -6.449041e-05
7.940000e-01 -6.384980e-05
7.950000e-01 -6.323765e-05
7.960001e-01 -6.265333e-05
7.970001e-01 -6.209526e-05
7.980000e-01 -6.155972e-05
7.990000e-01 -6.104130e-05
8.000000e-01 -6.053452e-05
8.010001e-01 -6.003560e-05
8.020000e-01 -5.954314e-05
8.030000e-01 -5.905719e-05
8.040000e-01 -5.857751e-05
8.050001e-01 -5.810197e-05
8.060001e-01 -5.762609e-05
8.070000e-01 -5.714373e-05
8.080000e-01 -5.664866e-05
8.090000e-01 -5.613598e-05
8.100001e-01 -5.560314e-05
8.110000e-01 -5.505004e-05
8.120000e-01 -5.447853e-05
8.130000e-01 -5.389147e-05
8.140000e-01 -5.329184e-05
8.150001e-01 -5.268225e-05
8.160000e-01 -5.206505e-05
8.170000e-01 -5.144288e-05
8.180000e-01 -5.081909e-05
8.190001e-01 -5.019774e-05
8.200001e-01 -4.958305e-05
8.210000e-01 -4.897860e-05
8.220000e-01 -4.838725e-05
8.230000e-01 -4.781167e-05
8.240001e-01 -4.725550e-05
8.250000e-01 -4.672401e-05
8.260000e-01 -4.622378e-05
8.270000e-01 -4.576110e-05
8.280001e-01 -4.534010e-05
8.290001e-01 -4.496162e-05
8.300000e-01 -4.462353e-05
8.310000e-01 -4.432219e-05
8.320000e-01 -4.405409e-05
8.330001e-01 -4.381666e-05
8.340001e-01 -4.360791e-05
8.350000e-01 -4.342537e-05
8.360000e-01 -4.326536e-05
8.370000e-01 -4.312299e-05
8.380001e-01 -4.299304e-05
8.390000e-01 -4.287084e-05
8.400000e-01 -4.275258e-05
8.410000e-01 -4.263489e-05
8.420001e-01 -4.251377e-05
8.430001e-01 -4.238387e-05
8.440000e-01 -4.223848e-05
8.450000e-01 -4.207041e-05
8.460000e-01 -4.187340e-05
8.470001e-01 -4.164357e-05
8.480000e-01 -4.138014e-05
8.490000e-01 -4.108522e-05
8.500000e-01 -4.076276e-05
8.510001e-01 -4.041714e-05
8.520001e-01 -4.005212e-05
8.530000e-01 -3.967073e-05
8.540000e-01 -3.927630e-05
8.550000e-01 -3.887386e-05
8.560001e-01 -3.847130e-05
8.570001e-01 -3.807926e-05
8.580000e-01 -3.771010e-05
8.590000e-01 -3.737652e-05
8.600000e-01 -3.709093e-05
8.610001e-01 -3.686621e-05
8.620000e-01 -3.671731e-05
8.630000e-01 -3.666269e-05
8.640000e-01 -3.672464e-05
8.650001e-01 -3.692817e-05
8.660001e-01 -3.729939e-05
8.670000e-01 -3.786449e-05
8.680000e-01 -3.865033e-05
8.690000e-01 -3.968613e-05
8.700001e-01 -4.100575e-05
8.710001e-01 -4.264915e-05
8.720000e-01 -4.466281e-05
8.730000e-01 -4.709954e-05
8.740000e-01 -5.001847e-05
8.750001e-01 -5.348583e-05
8.760000e-01 -5.757646e-05
8.770000e-01 -6.237559e-05
8.780000e-01 -6.798009e-05
8.790001e-01 -7.449911e-05
