-1.200000e-01 0.000000e+00
-1.190000e-01 0.000000e+00
-1.180000e-01 0.000000e+00
-1.170000e-01 0.000000e+00
-1.160000e-01 0.000000e+00
-1.150000e-01 0.000000e+00
-1.140000e-01 0.000000e+00
-1.130000e-01 0.000000e+00
-1.120000e-01 0.000000e+00
-1.110000e-01 0.000000e+00
-1.100000e-01 0.000000e+00
-1.090000e-01 0.000000e+00
-1.080000e-01 0.000000e+00
-1.070000e-01 0.000000e+00
-1.060000e-01 0.000000e+00
-1.050000e-01 0.000000e+00
-1.040000e-01 0.000000e+00
-1.030000e-01 0.000000e+00
-1.020000e-01 0.000000e+00
-1.010000e-01 -1.289195e-43
-1.000000e-01 -1.059382e-42
-9.900001e-02 6.417947e-42
-9.800000e-02 1.403400e-40
-9.700000e-02 8.993562e-40
-9.600000e-02 2.290136e-39
-9.500001e-02 -5.345749e-39
-9.400000e-02 -6.800207e-38
-9.300000e-02 -2.555243e-37
-9.200001e-02 -2.999440e-37
-9.100001e-02 1.632009e-36
-9.000000e-02 9.968193e-36
-8.900000e-02 2.482225e-35
-8.800000e-02 1.069555e-35
-8.700000e-02 -1.555489e-34
-8.600000e-02 -6.389040e-34
-8.500001e-02 -1.177890e-33
-8.400001e-02 5.367473e-35
-8.300000e-02 7.183522e-33
-8.200000e-02 2.276499e-32
-8.100000e-02 3.320136e-32
-8.000000e-02 -1.296239e-32
-7.900000e-02 -1.975191e-31
-7.800000e-02 -5.184381e-31
-7.700001e-02 -6.240161e-31
-7.600001e-02 4.109315e-31
-7.500000e-02 3.626048e-30
-7.400000e-02 8.211562e-30
-7.300000e-02 8.369950e-30
-7.200000e-02 -7.420567e-30
-7.100000e-02 -4.766456e-29
-7.000001e-02 -9.518184e-29
-6.900001e-02 -8.270522e-29
-6.800000e-02 9.309432e-29
-6.700000e-02 4.684567e-28
-6.600000e-02 8.277989e-28
-6.500000e-02 5.953054e-28
-6.400000e-02 -8.911569e-28
-6.300000e-02 -3.522187e-27
-6.200000e-02 -5.371506e-27
-6.100000e-02 -2.768761e-27
-6.000000e-02 6.952883e-27
-5.900000e-02 2.027219e-26
-5.800000e-02 2.414187e-26
-5.700000e-02 2.038477e-27
-5.600000e-02 -4.676910e-26
-5.500000e-02 -8.570087e-26
-5.400001e-02 -4.669807e-26
-5.300000e-02 1.078061e-25
-5.200000e-02 2.839929e-25
-5.100000e-02 2.177121e-25
-5.000000e-02 -3.548182e-25
-4.900000e-02 -1.279057e-24
-4.800000e-02 -1.595740e-24
-4.700000e-02 1.973429e-25
-4.600000e-02 4.715104e-24
-4.500000e-02 9.522486e-24
-4.400000e-02 8.260505e-24
-4.300000e-02 -6.075362e-24
-4.200000e-02 -3.276920e-23
-4.100000e-02 -5.446405e-23
-4.000000e-02 -3.829902e-23
-3.900000e-02 4.259560e-23
-3.800000e-02 1.703271e-22
-3.700000e-02 2.534197e-22
-3.600000e-02 1.522394e-22
-3.500000e-02 -2.146339e-22
-3.400000e-02 -7.226520e-22
-3.300000e-02 -9.772448e-22
-3.200000e-02 -4.834894e-22
-3.100000e-02 9.209838e-22
-3.000000e-02 2.603159e-21
-2.900000e-02 3.113808e-21
-2.800000e-02 1.009130e-21
-2.700000e-02 -3.653841e-21
-2.600000e-02 -8.180346e-21
-2.500000e-02 -7.952920e-21
-2.400000e-02 2.791840e-22
-2.300000e-02 1.397855e-20
-2.200000e-02 2.304902e-20
-2.100000e-02 1.464407e-20
-2.000000e-02 -1.543514e-20
-1.900000e-02 -5.169250e-20
-1.800000e-02 -6.012514e-20
-1.700000e-02 -9.738691e-21
-1.600000e-02 9.262506e-20
-1.500000e-02 1.802363e-19
-1.400000e-02 1.494850e-19
-1.300000e-02 -6.216778e-20
-1.200000e-02 -3.820258e-19
-1.100000e-02 -5.745808e-19
-9.999998e-03 -3.553168e-19
-8.999996e-03 3.671827e-19
-8.000001e-03 1.268597e-18
-6.999999e-03 1.633668e-18
-5.999997e-03 7.680771e-19
-5.000003e-03 -1.342682e-18
-4.000001e-03 -3.590528e-18
-2.999999e-03 -4.065353e-18
-1.999997e-03 -1.305334e-18
-1.000002e-03 4.122169e-18
0.000000e+00 8.966298e-18
1.000002e-03 8.694026e-18
2.000004e-03 8.304786e-19
2.999999e-03 -1.171759e-17
4.000001e-03 -2.037420e-17
4.999995e-03 -1.554301e-17
5.999997e-03 5.364106e-18
6.999999e-03 3.196310e-17
8.000001e-03 4.344375e-17
9.000003e-03 2.176484e-17
1.000001e-02 -3.082361e-17
1.100001e-02 -8.336202e-17
1.199999e-02 -8.897808e-17
1.300000e-02 -1.822565e-17
1.400000e-02 1.062278e-16
1.500000e-02 2.033680e-16
1.600000e-02 1.753563e-16
1.700000e-02 -1.632324e-17
1.800001e-02 -2.894821e-16
1.900001e-02 -4.542263e-16
2.000000e-02 -3.233702e-16
2.100000e-02 1.295786e-16
2.200000e-02 6.772679e-16
2.300000e-02 9.167190e-16
2.400000e-02 5.266933e-16
2.500001e-02 -4.351060e-16
2.600001e-02 -1.425358e-15
2.700000e-02 -1.664461e-15
2.800000e-02 -6.780012e-16
2.900000e-02 1.200843e-15
3.000000e-02 2.795742e-15
3.100000e-02 2.725646e-15
3.200001e-02 4.482551e-16
3.300001e-02 -2.993529e-15
3.400001e-02 -5.240288e-15
3.500000e-02 -4.050368e-15
3.600000e-02 8.463197e-16
3.700000e-02 6.828796e-15
3.800000e-02 9.473183e-15
3.900000e-02 5.471170e-15
4.000001e-02 -4.337008e-15
4.100001e-02 -1.420730e-14
4.200000e-02 -1.638404e-14
4.300000e-02 -6.548479e-15
4.400000e-02 1.165948e-14
4.500000e-02 2.691526e-14
4.600000e-02 2.658184e-14
4.700001e-02 6.084338e-15
4.800001e-02 -2.511426e-14
4.900001e-02 -4.660491e-14
5.000000e-02 -3.946362e-14
5.100000e-02 -1.109322e-15
5.200000e-02 4.818008e-14
5.300000e-02 7.442869e-14
5.400001e-02 5.205908e-14
5.500001e-02 -1.452289e-14
5.600001e-02 -8.649638e-14
5.700000e-02 -1.112004e-13
5.800000e-02 -5.845426e-14
5.900000e-02 5.103119e-14
6.000000e-02 1.487142e-13
6.100000e-02 1.581947e-13
6.200001e-02 5.082323e-14
6.300001e-02 -1.213022e-13
6.400001e-02 -2.451784e-13
6.500000e-02 -2.170098e-13
6.600000e-02 -2.161327e-14
6.700000e-02 2.361183e-13
6.800000e-02 3.818072e-13
6.900001e-02 2.846178e-13
7.000001e-02 -3.754446e-14
7.100001e-02 -3.999210e-13
7.200000e-02 -5.511351e-13
7.300000e-02 -3.421339e-13
7.400000e-02 1.461397e-13
7.500000e-02 6.174295e-13
7.600001e-02 7.334516e-13
7.700001e-02 3.494194e-13
7.800001e-02 -3.474097e-13
7.900001e-02 -9.135090e-13
8.000000e-02 -9.220255e-13
8.100000e-02 -2.705272e-13
8.200000e-02 6.911585e-13
8.300000e-02 1.334011e-12
8.400001e-02 1.149080e-12
8.500001e-02 1.252404e-13
8.600001e-02 -1.165012e-12
8.700001e-02 -1.875956e-12
8.800000e-02 -1.435101e-12
8.900000e-02 2.307616e-14
9.000000e-02 1.653936e-12
9.100001e-02 2.389449e-12
9.200001e-02 1.640722e-12
9.300001e-02 -2.425952e-13
9.400001e-02 -2.102946e-12
9.500000e-02 -2.676156e-12
9.600000e-02 -1.447801e-12
9.700000e-02 9.062313e-13
9.800000e-02 2.846028e-12
9.900001e-02 2.926784e-12
1.000000e-01 8.097234e-13
1.010000e-01 -2.356769e-12
1.020000e-01 -4.517726e-12
1.030000e-01 -3.976313e-12
1.040000e-01 -5.786222e-13
1.050000e-01 3.973446e-12
1.060000e-01 6.981794e-12
1.070000e-01 6.350431e-12
1.080000e-01 1.969616e-12
1.090000e-01 -4.016054e-12
1.100000e-01 -8.323406e-12
1.110000e-01 -8.441610e-12
1.120000e-01 -4.200437e-12
1.130000e-01 2.011571e-12
1.140000e-01 6.608367e-12
1.150000e-01 6.994396e-12
1.160000e-01 3.245706e-12
1.170000e-01 -1.830341e-12
1.180000e-01 -4.424484e-12
1.190000e-01 -2.273523e-12
1.200000e-01 3.569457e-12
1.210000e-01 9.003927e-12
1.220000e-01 9.268408e-12
1.230000e-01 2.152722e-12
1.240000e-01 -9.961604e-12
1.250000e-01 -2.074068e-11
1.260000e-01 -2.320453e-11
1.270000e-01 -1.397670e-11
1.280000e-01 4.078585e-12
1.290000e-01 2.269712e-11
1.300000e-01 3.243420e-11
1.310000e-01 2.802450e-11
1.320000e-01 1.168020e-11
1.330000e-01 -7.902259e-12
1.340000e-01 -2.055127e-11
1.350000e-01 -2.077893e-11
1.360000e-01 -1.122491e-11
1.370000e-01 -9.402010e-13
1.380000e-01 7.653034e-13
1.390000e-01 -8.830109e-12
1.400000e-01 -2.291400e-11
1.410000e-01 -2.858119e-11
1.420000e-01 -1.515254e-11
1.430000e-01 1.757974e-11
1.440000e-01 5.668880e-11
1.450000e-01 8.155120e-11
1.460000e-01 7.497106e-11
1.470000e-01 3.371304e-11
1.480000e-01 -2.804160e-11
1.490000e-01 -8.493376e-11
1.500000e-01 -1.132075e-10
1.510000e-01 -1.027486e-10
1.520000e-01 -6.131291e-11
1.530000e-01 -8.521350e-12
1.540000e-01 3.647582e-11
1.550000e-01 6.572139e-11
1.560000e-01 8.455174e-11
1.570000e-01 1.036185e-10
1.580000e-01 1.261933e-10
1.590000e-01 1.398468e-10
1.600000e-01 1.195865e-10
1.610000e-01 4.261096e-11
1.620000e-01 -9.299677e-11
1.630000e-01 -2.571890e-10
1.640000e-01 -3.931448e-10
1.650000e-01 -4.388425e-10
1.660000e-01 -3.555551e-10
1.670000e-01 -1.488127e-10
1.680000e-01 1.297507e-10
1.690000e-01 4.016362e-10
1.700000e-01 5.925480e-10
1.710000e-01 6.596050e-10
1.720000e-01 6.013022e-10
1.730000e-01 4.468163e-10
1.740000e-01 2.332348e-10
1.750000e-01 -1.394374e-11
1.760000e-01 -2.845554e-10
1.770000e-01 -5.703912e-10
1.780000e-01 -8.459435e-10
1.790000e-01 -1.060329e-09
1.800000e-01 -1.151795e-09
1.810000e-01 -1.081563e-09
1.820000e-01 -8.687929e-10
1.830000e-01 -6.031727e-10
1.840000e-01 -4.208834e-10
1.850000e-01 -4.495042e-10
1.860000e-01 -7.466003e-10
1.870000e-01 -1.263178e-09
1.880000e-01 -1.851908e-09
1.890000e-01 -2.316443e-09
1.900000e-01 -2.475747e-09
1.910000e-01 -2.210000e-09
1.920000e-01 -1.466702e-09
1.930000e-01 -2.303321e-10
1.940000e-01 1.519461e-09
1.950000e-01 3.831110e-09
1.960000e-01 6.771207e-09
1.970000e-01 1.039293e-08
1.980000e-01 1.471399e-08
1.990000e-01 1.973487e-08
2.000000e-01 2.550598e-08
2.010000e-01 3.222111e-08
2.020000e-01 4.029295e-08
2.030000e-01 5.036967e-08
2.040000e-01 6.327913e-08
2.050000e-01 7.992445e-08
2.060000e-01 1.011829e-07
2.070000e-01 1.278596e-07
2.080000e-01 1.607225e-07
2.090000e-01 2.006055e-07
2.100000e-01 2.485365e-07
2.110000e-01 3.058436e-07
2.120000e-01 3.742157e-07
2.130000e-01 4.557249e-07
2.140000e-01 5.528477e-07
2.150000e-01 6.685176e-07
2.160000e-01 8.062196e-07
2.170000e-01 9.700965e-07
2.180000e-01 1.165023e-06
2.190000e-01 1.396612e-06
2.200000e-01 1.671147e-06
2.210000e-01 1.995497e-06
2.220000e-01 2.377099e-06
2.230000e-01 2.824062e-06
2.240000e-01 3.345412e-06
2.250000e-01 3.951429e-06
2.260000e-01 4.653974e-06
2.270000e-01 5.466722e-06
2.280000e-01 6.405267e-06
2.290000e-01 7.487100e-06
2.300000e-01 8.731582e-06
2.310000e-01 1.015995e-05
2.320000e-01 1.179543e-05
2.330000e-01 1.366333e-05
2.340000e-01 1.579120e-05
2.350000e-01 1.820883e-05
2.360000e-01 2.094824e-05
2.370000e-01 2.404359e-05
2.380000e-01 2.753130e-05
2.390000e-01 3.145014e-05
2.400000e-01 3.584162e-05
2.410000e-01 4.075008e-05
2.420000e-01 4.622286e-05
2.430000e-01 5.231007e-05
2.440000e-01 5.906418e-05
2.450000e-01 6.653949e-05
2.460000e-01 7.479163e-05
2.470000e-01 8.387705e-05
2.480000e-01 9.385274e-05
2.490000e-01 1.047759e-04
2.500000e-01 1.167035e-04
2.510000e-01 1.296918e-04
2.520000e-01 1.437958e-04
2.530000e-01 1.590684e-04
2.540000e-01 1.755599e-04
2.550000e-01 1.933171e-04
2.560000e-01 2.123826e-04
2.570000e-01 2.327943e-04
2.580000e-01 2.545843e-04
2.590000e-01 2.777779e-04
2.600000e-01 3.023919e-04
2.610000e-01 3.284339e-04
2.620000e-01 3.559009e-04
2.630000e-01 3.847784e-04
2.640000e-01 4.150397e-04
2.650000e-01 4.466454e-04
2.660000e-01 4.795433e-04
2.670000e-01 5.136674e-04
2.680000e-01 5.489375e-04
2.690000e-01 5.852585e-04
2.700000e-01 6.225202e-04
2.710000e-01 6.605968e-04
2.720000e-01 6.993478e-04
2.730000e-01 7.386178e-04
2.740000e-01 7.782371e-04
2.750000e-01 8.180220e-04
2.760000e-01 8.577755e-04
2.770000e-01 8.972880e-04
2.780000e-01 9.363386e-04
2.790000e-01 9.746969e-04
2.800000e-01 1.012125e-03
2.810000e-01 1.048379e-03
2.820000e-01 1.083212e-03
2.830000e-01 1.116376e-03
2.840000e-01 1.147622e-03
2.850000e-01 1.176706e-03
2.860000e-01 1.203387e-03
2.870000e-01 1.227433e-03
2.880000e-01 1.248619e-03
2.890000e-01 1.266735e-03
2.900000e-01 1.281587e-03
2.910000e-01 1.292996e-03
2.920000e-01 1.300803e-03
2.930000e-01 1.304872e-03
2.940000e-01 1.305089e-03
2.950000e-01 1.301363e-03
2.960000e-01 1.293633e-03
2.970000e-01 1.281863e-03
2.980000e-01 1.266048e-03
2.990000e-01 1.246210e-03
3.000000e-01 1.222400e-03
3.010000e-01 1.194698e-03
3.020000e-01 1.163212e-03
3.030000e-01 1.128075e-03
3.040000e-01 1.089449e-03
3.050000e-01 1.047522e-03
3.060000e-01 1.002505e-03
3.070000e-01 9.546320e-04
3.080000e-01 9.041557e-04
3.090000e-01 8.513458e-04
3.100000e-01 7.964864e-04
3.110000e-01 7.398742e-04
3.120000e-01 6.818148e-04
3.130000e-01 6.226201e-04
3.140000e-01 5.626050e-04
3.150000e-01 5.020842e-04
3.160000e-01 4.413698e-04
3.170000e-01 3.807684e-04
3.180000e-01 3.205791e-04
3.190000e-01 2.610906e-04
3.200000e-01 2.025798e-04
3.210000e-01 1.453089e-04
3.220000e-01 8.952404e-05
3.230000e-01 3.545324e-05
3.240000e-01 -1.669496e-05
3.250000e-01 -6.673303e-05
3.260000e-01 -1.144956e-04
3.270000e-01 -1.598401e-04
3.280000e-01 -2.026471e-04
3.290000e-01 -2.428200e-04
3.300000e-01 -2.802845e-04
3.310000e-01 -3.149882e-04
3.320000e-01 -3.469002e-04
3.330000e-01 -3.760106e-04
3.340000e-01 -4.023296e-04
3.350000e-01 -4.258861e-04
3.360000e-01 -4.467260e-04
3.370000e-01 -4.649104e-04
3.380000e-01 -4.805141e-04
3.390000e-01 -4.936244e-04
3.400000e-01 -5.043400e-04
3.410000e-01 -5.127700e-04
3.420000e-01 -5.190318e-04
3.430000e-01 -5.232500e-04
3.440000e-01 -5.255535e-04
3.450000e-01 -5.260745e-04
3.460000e-01 -5.249467e-04
3.470000e-01 -5.223046e-04
3.480000e-01 -5.182826e-04
3.490000e-01 -5.130137e-04
3.500000e-01 -5.066287e-04
3.510000e-01 -4.992543e-04
3.520000e-01 -4.910128e-04
3.530000e-01 -4.820210e-04
3.540000e-01 -4.723900e-04
3.550000e-01 -4.622253e-04
3.560000e-01 -4.516261e-04
3.570000e-01 -4.406854e-04
3.580000e-01 -4.294892e-04
3.590000e-01 -4.181167e-04
3.600000e-01 -4.066404e-04
3.610000e-01 -3.951261e-04
3.620000e-01 -3.836329e-04
3.630000e-01 -3.722140e-04
3.640000e-01 -3.609161e-04
3.650000e-01 -3.497801e-04
3.660000e-01 -3.388415e-04
3.670000e-01 -3.281307e-04
3.680000e-01 -3.176733e-04
3.690000e-01 -3.074899e-04
3.700000e-01 -2.975965e-04
3.710000e-01 -2.880050e-04
3.720000e-01 -2.787236e-04
3.730000e-01 -2.697578e-04
3.740000e-01 -2.611110e-04
3.750000e-01 -2.527847e-04
3.760000e-01 -2.447781e-04
3.770000e-01 -2.370882e-04
3.780000e-01 -2.297095e-04
3.790000e-01 -2.226348e-04
3.800000e-01 -2.158559e-04
3.810000e-01 -2.093637e-04
3.820000e-01 -2.031492e-04
3.830000e-01 -1.972026e-04
3.840000e-01 -1.915138e-04
3.850000e-01 -1.860721e-04
3.860000e-01 -1.808670e-04
3.870000e-01 -1.758881e-04
3.880000e-01 -1.711254e-04
3.890000e-01 -1.665693e-04
3.900000e-01 -1.622100e-04
3.910000e-01 -1.580374e-04
3.920000e-01 -1.540419e-04
3.930000e-01 -1.502140e-04
3.940000e-01 -1.465454e-04
3.950000e-01 -1.430283e-04
3.960000e-01 -1.396555e-04
3.970000e-01 -1.364200e-04
3.980000e-01 -1.333152e-04
3.990000e-01 -1.303352e-04
4.000000e-01 -1.274750e-04
4.010000e-01 -1.247309e-04
4.020000e-01 -1.221002e-04
4.030000e-01 -1.195812e-04
4.040000e-01 -1.171729e-04
4.050000e-01 -1.148751e-04
4.060000e-01 -1.126888e-04
4.070000e-01 -1.106166e-04
4.080000e-01 -1.086625e-04
4.090000e-01 -1.068321e-04
4.100000e-01 -1.051327e-04
4.110000e-01 -1.035736e-04
4.120000e-01 -1.021667e-04
4.130000e-01 -1.009278e-04
4.140000e-01 -9.987677e-05
4.150000e-01 -9.903833e-05
4.160000e-01 -9.844224e-05
4.170000e-01 -9.812366e-05
4.180000e-01 -9.812386e-05
4.190000e-01 -9.849135e-05
4.200000e-01 -9.928319e-05
4.210000e-01 -1.005664e-04
4.220001e-01 -1.024194e-04
4.230000e-01 -1.049339e-04
4.240000e-01 -1.082162e-04
4.250000e-01 -1.123899e-04
4.260000e-01 -1.175976e-04
4.270000e-01 -1.240025e-04
4.280000e-01 -1.317914e-04
4.290000e-01 -1.411763e-04
4.300000e-01 -1.523985e-04
4.310000e-01 -1.657324e-04
4.320000e-01 -1.814893e-04
4.330000e-01 -2.000220e-04
4.340000e-01 -2.217273e-04
4.350000e-01 -2.470488e-04
4.360000e-01 -2.764806e-04
4.370000e-01 -3.105708e-04
4.380000e-01 -3.499261e-04
4.390000e-01 -3.952168e-04
4.400000e-01 -4.471805e-04
4.410000e-01 -5.066255e-04
4.420000e-01 -5.744323e-04
4.430000e-01 -6.515564e-04
4.440000e-01 -7.390302e-04
4.450000e-01 -8.379646e-04
4.460000e-01 -9.495495e-04
4.470000e-01 -1.075053e-03
4.480000e-01 -1.215816e-03
4.490000e-01 -1.373248e-03
4.500000e-01 -1.548823e-03
4.510000e-01 -1.744069e-03
4.520000e-01 -1.960563e-03
4.530000e-01 -2.199922e-03
4.540000e-01 -2.463782e-03
4.550000e-01 -2.753787e-03
4.560000e-01 -3.071568e-03
4.570000e-01 -3.418717e-03
4.580000e-01 -3.796768e-03
4.590001e-01 -4.207172e-03
4.600000e-01 -4.651269e-03
4.610000e-01 -5.130253e-03
4.620000e-01 -5.645141e-03
4.630000e-01 -6.196739e-03
4.640000e-01 -6.785600e-03
4.650000e-01 -7.411990e-03
4.660000e-01 -8.075853e-03
4.670000e-01 -8.776766e-03
4.680000e-01 -9.513907e-03
4.690000e-01 -1.028601e-02
4.700000e-01 -1.109134e-02
4.710000e-01 -1.192765e-02
4.720000e-01 -1.279217e-02
4.730000e-01 -1.368157e-02
4.740000e-01 -1.459194e-02
4.750000e-01 -1.551875e-02
4.760000e-01 -1.645691e-02
4.770000e-01 -1.740070e-02
4.780000e-01 -1.834381e-02
4.790000e-01 -1.927935e-02
4.800000e-01 -2.019989e-02
4.810000e-01 -2.109746e-02
4.820001e-01 -2.196366e-02
4.830000e-01 -2.278962e-02
4.840000e-01 -2.356617e-02
4.850000e-01 -2.428383e-02
4.860000e-01 -2.493294e-02
4.870000e-01 -2.550376e-02
4.880000e-01 -2.598652e-02
4.890000e-01 -2.637159e-02
4.900000e-01 -2.664957e-02
4.910000e-01 -2.681139e-02
4.920000e-01 -2.684847e-02
4.930000e-01 -2.675282e-02
4.940000e-01 -2.651719e-02
4.950000e-01 -2.613517e-02
4.960001e-01 -2.560131e-02
4.970000e-01 -2.491124e-02
4.980000e-01 -2.406177e-02
4.990000e-01 -2.305102e-02
5.000000e-01 -2.187843e-02
5.010000e-01 -2.054492e-02
5.020000e-01 -1.905287e-02
5.030000e-01 -1.740620e-02
5.040000e-01 -1.561039e-02
5.050000e-01 -1.367245e-02
5.060000e-01 -1.160092e-02
5.070000e-01 -9.405857e-03
5.080000e-01 -7.098718e-03
5.090000e-01 -4.692325e-03
5.100001e-01 -2.200749e-03
5.110000e-01 3.608123e-04
5.120000e-01 2.976160e-03
5.130000e-01 5.628252e-03
5.140000e-01 8.299368e-03
5.150000e-01 1.097129e-02
5.160000e-01 1.362549e-02
5.170000e-01 1.624335e-02
5.180000e-01 1.880632e-02
5.190001e-01 2.129616e-02
5.200000e-01 2.369511e-02
5.210000e-01 2.598609e-02
5.220000e-01 2.815290e-02
5.230000e-01 3.018040e-02
5.240000e-01 3.205469e-02
5.250000e-01 3.376322e-02
5.260000e-01 3.529496e-02
5.270000e-01 3.664051e-02
5.280000e-01 3.779215e-02
5.290000e-01 3.874399e-02
5.300000e-01 3.949193e-02
5.310000e-01 4.003376e-02
5.320000e-01 4.036911e-02
5.330001e-01 4.049945e-02
5.340000e-01 4.042801e-02
5.350000e-01 4.015975e-02
5.360000e-01 3.970125e-02
5.370000e-01 3.906063e-02
5.380000e-01 3.824738e-02
5.390000e-01 3.727227e-02
5.400000e-01 3.614713e-02
5.410000e-01 3.488473e-02
5.420001e-01 3.349862e-02
5.430000e-01 3.200295e-02
5.440000e-01 3.041227e-02
5.450000e-01 2.874141e-02
5.460000e-01 2.700525e-02
5.470001e-01 2.521858e-02
5.480000e-01 2.339595e-02
5.490000e-01 2.155152e-02
5.500000e-01 1.969893e-02
5.510000e-01 1.785119e-02
5.520000e-01 1.602054e-02
5.530000e-01 1.421839e-02
5.540000e-01 1.245523e-02
5.550000e-01 1.074056e-02
5.560001e-01 9.082883e-03
5.570000e-01 7.489658e-03
5.580000e-01 5.967299e-03
5.590000e-01 4.521161e-03
5.600000e-01 3.155559e-03
5.610000e-01 1.873787e-03
5.620000e-01 6.781709e-04
5.630000e-01 -4.298728e-04
5.640000e-01 -1.449781e-03
5.650001e-01 -2.381788e-03
5.660000e-01 -3.226865e-03
5.670000e-01 -3.986652e-03
5.680000e-01 -4.663386e-03
5.690000e-01 -5.259805e-03
5.700001e-01 -5.779078e-03
5.710000e-01 -6.224725e-03
5.720000e-01 -6.600564e-03
5.730000e-01 -6.910649e-03
5.740000e-01 -7.159205e-03
5.750000e-01 -7.350560e-03
5.760000e-01 -7.489079e-03
5.770000e-01 -7.579110e-03
5.780000e-01 -7.624953e-03
5.790001e-01 -7.630830e-03
5.800000e-01 -7.600864e-03
5.810000e-01 -7.539041e-03
5.820000e-01 -7.449179e-03
5.830000e-01 -7.334895e-03
5.840001e-01 -7.199592e-03
5.850000e-01 -7.046460e-03
5.860000e-01 -6.878482e-03
5.870000e-01 -6.698435e-03
5.880000e-01 -6.508878e-03
5.890000e-01 -6.312141e-03
5.900000e-01 -6.110326e-03
5.910000e-01 -5.905312e-03
5.920000e-01 -5.698783e-03
5.930001e-01 -5.492237e-03
5.940000e-01 -5.287000e-03
5.950000e-01 -5.084214e-03
5.960000e-01 -4.884842e-03
5.970000e-01 -4.689679e-03
5.980000e-01 -4.499371e-03
5.990000e-01 -4.314446e-03
6.000000e-01 -4.135327e-03
6.010000e-01 -3.962336e-03
6.020001e-01 -3.795692e-03
6.030000e-01 -3.635508e-03
6.040000e-01 -3.481814e-03
6.050000e-01 -3.334573e-03
6.060000e-01 -3.193709e-03
6.070001e-01 -3.059116e-03
6.080000e-01 -2.930648e-03
6.090000e-01 -2.808123e-03
6.100000e-01 -2.691321e-03
6.110000e-01 -2.580004e-03
6.120000e-01 -2.473940e-03
6.130000e-01 -2.372912e-03
6.140000e-01 -2.276719e-03
6.150000e-01 -2.185157e-03
6.160001e-01 -2.098013e-03
6.170000e-01 -2.015072e-03
6.180000e-01 -1.936129e-03
6.190000e-01 -1.861010e-03
6.200000e-01 -1.789572e-03
6.210001e-01 -1.721689e-03
6.220000e-01 -1.657237e-03
6.230000e-01 -1.596083e-03
6.240000e-01 -1.538085e-03
6.250001e-01 -1.483117e-03
6.260000e-01 -1.431072e-03
6.270000e-01 -1.381860e-03
6.280000e-01 -1.335396e-03
6.290000e-01 -1.291581e-03
6.300001e-01 -1.250296e-03
6.310000e-01 -1.211412e-03
6.320000e-01 -1.174806e-03
6.330000e-01 -1.140366e-03
6.340000e-01 -1.107988e-03
6.350001e-01 -1.077562e-03
6.360000e-01 -1.048956e-03
6.370000e-01 -1.022027e-03
6.380000e-01 -9.966287e-04
6.390001e-01 -9.726270e-04
6.400000e-01 -9.499066e-04
6.410000e-01 -9.283622e-04
6.420000e-01 -9.078872e-04
6.430000e-01 -8.883680e-04
6.440001e-01 -8.696892e-04
6.450000e-01 -8.517461e-04
6.460000e-01 -8.344535e-04
6.470000e-01 -8.177451e-04
6.480000e-01 -8.015640e-04
6.490000e-01 -7.858536e-04
6.500000e-01 -7.705562e-04
6.510000e-01 -7.556190e-04
6.520000e-01 -7.410027e-04
6.530001e-01 -7.266831e-04
6.540000e-01 -7.126446e-04
6.550000e-01 -6.988706e-04
6.560000e-01 -6.853372e-04
6.570000e-01 -6.720165e-04
6.580001e-01 -6.588835e-04
6.590000e-01 -6.459230e-04
6.600000e-01 -6.331269e-04
6.610000e-01 -6.204862e-04
6.620001e-01 -6.079827e-04
6.630000e-01 -5.955879e-04
6.640000e-01 -5.832703e-04
6.650000e-01 -5.710047e-04
6.660000e-01 -5.587777e-04
6.670001e-01 -5.465838e-04
6.680000e-01 -5.344179e-04
6.690000e-01 -5.222694e-04
6.700000e-01 -5.101239e-04
6.710000e-01 -4.979720e-04
6.720001e-01 -4.858175e-04
6.730000e-01 -4.736808e-04
6.740000e-01 -4.615938e-04
6.750000e-01 -4.495910e-04
6.760001e-01 -4.377049e-04
6.770000e-01 -4.259671e-04
6.780000e-01 -4.144150e-04
6.790000e-01 -4.030977e-04
6.800000e-01 -3.920756e-04
6.810001e-01 -3.814136e-04
6.820000e-01 -3.711727e-04
6.830000e-01 -3.614035e-04
6.840000e-01 -3.521475e-04
6.850001e-01 -3.434418e-04
6.860000e-01 -3.353235e-04
6.870000e-01 -3.278303e-04
6.880000e-01 -3.209951e-04
6.890000e-01 -3.148382e-04
6.900001e-01 -3.093632e-04
6.910000e-01 -3.045570e-04
6.920000e-01 -3.003958e-04
6.930000e-01 -2.968505e-04
6.940000e-01 -2.938896e-04
6.950001e-01 -2.914765e-04
6.960000e-01 -2.895645e-04
6.970000e-01 -2.880928e-04
6.980000e-01 -2.869884e-04
6.990001e-01 -2.861722e-04
7.000000e-01 -2.855684e-04
7.010000e-01 -2.851098e-04
7.020000e-01 -2.847381e-04
7.030000e-01 -2.843984e-04
7.040001e-01 -2.840330e-04
7.050000e-01 -2.835806e-04
7.060000e-01 -2.829806e-04
7.070000e-01 -2.821817e-04
7.080001e-01 -2.811473e-04
7.090001e-01 -2.798559e-04
7.100000e-01 -2.782944e-04
7.110000e-01 -2.764507e-04
7.120000e-01 -2.743109e-04
7.130001e-01 -2.718630e-04
7.140000e-01 -2.691038e-04
7.150000e-01 -2.660435e-04
7.160000e-01 -2.627035e-04
7.170000e-01 -2.591078e-04
7.180001e-01 -2.552751e-04
7.190000e-01 -2.512166e-04
7.200000e-01 -2.469408e-04
7.210000e-01 -2.424612e-04
7.220001e-01 -2.378002e-04
7.230000e-01 -2.329861e-04
7.240000e-01 -2.280450e-04
7.250000e-01 -2.229936e-04
7.260000e-01 -2.178403e-04
7.270001e-01 -2.125912e-04
7.280000e-01 -2.072593e-04
7.290000e-01 -2.018665e-04
7.300000e-01 -1.964407e-04
7.310000e-01 -1.910081e-04
7.320001e-01 -1.855890e-04
7.330000e-01 -1.802005e-04
7.340000e-01 -1.748633e-04
7.350000e-01 -1.696070e-04
7.360001e-01 -1.644691e-04
7.370000e-01 -1.594882e-04
7.380000e-01 -1.546970e-04
7.390000e-01 -1.501215e-04
7.400000e-01 -1.457862e-04
7.410001e-01 -1.417211e-04
7.420000e-01 -1.379646e-04
7.430000e-01 -1.345569e-04
7.440000e-01 -1.315315e-04
7.450001e-01 -1.289085e-04
7.460001e-01 -1.266962e-04
7.470000e-01 -1.248986e-04
7.480000e-01 -1.235225e-04
7.490000e-01 -1.225767e-04
7.500001e-01 -1.220643e-04
7.510000e-01 -1.219732e-04
7.520000e-01 -1.222740e-04
7.530000e-01 -1.229261e-04
7.540000e-01 -1.238891e-04
7.550001e-01 -1.251290e-04
7.560000e-01 -1.266151e-04
7.570000e-01 -1.283099e-04
7.580000e-01 -1.301613e-04
7.590001e-01 -1.321035e-04
7.600001e-01 -1.340686e-04
7.610000e-01 -1.360000e-04
7.620000e-01 -1.378585e-04
7.630000e-01 -1.396155e-04
7.640001e-01 -1.412404e-04
7.650000e-01 -1.426911e-04
7.660000e-01 -1.439174e-04
7.670000e-01 -1.448729e-04
7.680001e-01 -1.455291e-04
7.690001e-01 -1.458787e-04
7.700000e-01 -1.459271e-04
7.710000e-01 -1.456783e-04
7.720000e-01 -1.451265e-04
7.730001e-01 -1.442598e-04
7.740000e-01 -1.430726e-04
7.750000e-01 -1.415764e-04
7.760000e-01 -1.397997e-04
7.770000e-01 -1.377768e-04
7.780001e-01 -1.355328e-04
7.790000e-01 -1.330777e-04
7.800000e-01 -1.304124e-04
7.810000e-01 -1.275423e-04
7.820001e-01 -1.244868e-04
7.830001e-01 -1.212781e-04
7.840000e-01 -1.179496e-04
7.850000e-01 -1.145235e-04
7.860000e-01 -1.110072e-04
7.870001e-01 -1.074021e-04
7.880000e-01 -1.037161e-04
7.890000e-01 -9.997239e-05
7.900000e-01 -9.620519e-05
7.910001e-01 -9.244886e-05
7.920001e-01 -8.872756e-05
7.930000e-01 -8.505448e-05
7.940000e-01 -8.144080e-05
7.950000e-01 -7.790683e-05
7.960001e-01 -7.448634e-05
7.970001e-01 -7.122099e-05
7.980000e-01 -6.814947e-05
7.990000e-01 -6.530039e-05
8.000000e-01 -6.269429e-05
8.010001e-01 -6.035238e-05
8.020000e-01 -5.830418e-05
8.030000e-01 -5.658692e-05
8.040000e-01 -5.523664e-05
8.050001e-01 -5.427761e-05
8.060001e-01 -5.371813e-05
8.070000e-01 -5.355534e-05
8.080000e-01 -5.378452e-05
8.090000e-01 -5.440455e-05
8.100001e-01 -5.541505e-05
8.110000e-01 -5.680730e-05
8.120000e-01 -5.855677e-05
8.130000e-01 -6.062345e-05
8.140000e-01 -6.295982e-05
8.150001e-01 -6.552009e-05
8.160000e-01 -6.826332e-05
8.170000e-01 -7.114871e-05
8.180000e-01 -7.412770e-05
8.190001e-01 -7.714070e-05
8.200001e-01 -8.012199e-05
8.210000e-01 -8.300975e-05
8.220000e-01 -8.575345e-05
8.230000e-01 -8.831316e-05
8.240001e-01 -9.065201e-05
8.250000e-01 -9.272892e-05
8.260000e-01 -9.449838e-05
8.270000e-01 -9.591826e-05
8.280001e-01 -9.695982e-05
8.290001e-01 -9.761188e-05
8.300000e-01 -9.787606e-05
8.310000e-01 -9.775711e-05
8.320000e-01 -9.725634e-05
8.330001e-01 -9.637343e-05
8.340001e-01 -9.511472e-05
8.350000e-01 -9.350017e-05
8.360000e-01 -9.156267e-05
8.370000e-01 -8.933931e-05
8.380001e-01 -8.686130e-05
8.390000e-01 -8.415050e-05
8.400000e-01 -8.122507e-05
8.410000e-01 -7.810924e-05
8.420001e-01 -7.483890e-05
8.430001e-01 -7.145797e-05
8.440000e-01 -6.800835e-05
8.450000e-01 -6.452147e-05
8.460000e-01 -6.101787e-05
8.470001e-01 -5.751505e-05
8.480000e-01 -5.403655e-05
8.490000e-01 -5.061485e-05
8.500000e-01 -4.728592e-05
8.510001e-01 -4.408017e-05
8.520001e-01 -4.101773e-05
8.530000e-01 -3.811173e-05
8.540000e-01 -3.537707e-05
8.550000e-01 -3.283711e-05
8.560001e-01 -3.052296e-05
8.570001e-01 -2.846624e-05
8.580000e-01 -2.669117e-05
8.590000e-01 -2.521235e-05
8.600000e-01 -2.403923e-05
8.610001e-01 -2.318284e-05
8.620000e-01 -2.265871e-05
8.630000e-01 -2.248379e-05
8.640000e-01 -2.267007e-05
8.650001e-01 -2.322032e-05
8.660001e-01 -2.412869e-05
8.670000e-01 -2.538452e-05
8.680000e-01 -2.697494e-05
8.690000e-01 -2.888379e-05
8.700001e-01 -3.108817e-05
8.710001e-01 -3.355672e-05
8.720000e-01 -3.625181e-05
8.730000e-01 -3.913410e-05
8.740000e-01 -4.216492e-05
8.750001e-01 -4.530404e-05
8.760000e-01 -4.850469e-05
8.770000e-01 -5.171105e-05
8.780000e-01 -5.486203e-05
8.790001e-01 -5.789960e-05
