-1.200000e-01 0.000000e+00
-1.190000e-01 0.000000e+00
-1.180000e-01 0.000000e+00
-1.170000e-01 0.000000e+00
-1.160000e-01 0.000000e+00
-1.150000e-01 0.000000e+00
-1.140000e-01 0.000000e+00
-1.130000e-01 0.000000e+00
-1.120000e-01 0.000000e+00
-1.110000e-01 0.000000e+00
-1.100000e-01 0.000000e+00
-1.090000e-01 0.000000e+00
-1.080000e-01 0.000000e+00
-1.070000e-01 0.000000e+00
-1.060000e-01 0.000000e+00
-1.050000e-01 0.000000e+00
-1.040000e-01 0.000000e+00
-1.030000e-01 0.000000e+00
-1.020000e-01 0.000000e+00
-1.010000e-01 0.000000e+00
-1.000000e-01 0.000000e+00
-9.900001e-02 0.000000e+00
-9.800000e-02 0.000000e+00
-9.700000e-02 0.000000e+00
-9.600000e-02 0.000000e+00
-9.500001e-02 0.000000e+00
-9.400000e-02 4.203895e-45
-9.300000e-02 -1.401298e-44
-9.200001e-02 -1.667545e-43
-9.100001e-02 -3.194960e-43
-9.000000e-02 1.200913e-42
-8.900000e-02 7.188661e-42
-8.800000e-02 7.735168e-42
-8.700000e-02 -4.827753e-41
-8.600000e-02 -2.023643e-40
-8.500001e-02 -1.390494e-40
-8.400001e-02 1.251107e-39
-8.300000e-02 4.427003e-39
-8.200000e-02 2.832166e-39
-8.100000e-02 -2.279160e-38
-8.000000e-02 -7.861074e-38
-7.900000e-02 -6.374867e-38
-7.800000e-02 3.035267e-37
-7.700001e-02 1.147472e-36
-7.600001e-02 1.264296e-36
-7.500000e-02 -2.874130e-36
-7.400000e-02 -1.370447e-35
-7.300000e-02 -2.005279e-35
-7.200000e-02 1.577568e-35
-7.100000e-02 1.317429e-34
-7.000001e-02 2.511723e-34
-6.900001e-02 3.459572e-35
-6.800000e-02 -9.826918e-34
-6.700000e-02 -2.495252e-33
-6.600000e-02 -1.977277e-33
-6.500000e-02 5.124621e-33
-6.400000e-02 1.960142e-32
-6.300000e-02 2.652678e-32
-6.200000e-02 -1.024657e-32
-6.100000e-02 -1.185498e-31
-6.000000e-02 -2.355110e-31
-5.900000e-02 -1.290964e-31
-5.800000e-02 5.003103e-31
-5.700000e-02 1.551964e-30
-5.600000e-02 1.853012e-30
-5.500000e-02 -8.104872e-31
-5.400001e-02 -7.583536e-30
-5.300000e-02 -1.421711e-29
-5.200000e-02 -8.264256e-30
-5.100000e-02 2.420231e-29
-5.000000e-02 7.668173e-29
-4.900000e-02 9.597861e-29
-4.800000e-02 -1.100415e-29
-4.700000e-02 -2.915763e-28
-4.600000e-02 -5.908645e-28
-4.500000e-02 -4.619195e-28
-4.400000e-02 6.059490e-28
-4.300000e-02 2.493780e-27
-4.200000e-02 3.642799e-27
-4.100000e-02 1.181973e-27
-4.000000e-02 -6.796623e-27
-3.900000e-02 -1.702384e-26
-3.800000e-02 -1.823594e-26
-3.700000e-02 4.251153e-27
-3.600000e-02 5.281976e-26
-3.500000e-02 9.742851e-26
-3.400000e-02 7.280899e-26
-3.300000e-02 -8.065722e-26
-3.200000e-02 -3.309777e-25
-3.100000e-02 -4.799321e-25
-3.000000e-02 -2.106306e-25
-2.900000e-02 6.557990e-25
-2.800000e-02 1.770552e-24
-2.700000e-02 2.066176e-24
-2.600000e-02 2.278546e-25
-2.500000e-02 -4.001730e-24
-2.400000e-02 -8.334041e-24
-2.300000e-02 -7.836357e-24
-2.200000e-02 2.175166e-24
-2.100000e-02 2.047837e-23
-2.000000e-02 3.518594e-23
-1.900000e-02 2.621698e-23
-1.800000e-02 -2.057483e-23
-1.700000e-02 -9.194255e-23
-1.600000e-02 -1.350716e-22
-1.500000e-02 -7.678454e-23
-1.400000e-02 1.174051e-22
-1.300000e-02 3.711034e-22
-1.200000e-02 4.763993e-22
-1.100000e-02 1.920968e-22
-9.999998e-03 -5.378043e-22
-8.999996e-03 -1.367443e-21
-8.000001e-03 -1.556862e-21
-6.999999e-03 -3.821764e-22
-5.999997e-03 2.135232e-21
-5.000003e-03 4.649228e-21
-4.000001e-03 4.747437e-21
-2.999999e-03 4.441730e-22
-1.999997e-03 -7.597205e-21
-1.000002e-03 -1.469875e-20
0.000000e+00 -1.358901e-20
1.000002e-03 7.144110e-22
2.000004e-03 2.466908e-20
2.999999e-03 4.346367e-20
4.000001e-03 3.669407e-20
4.999995e-03 -7.039669e-21
5.999997e-03 -7.393456e-20
6.999999e-03 -1.207260e-19
8.000001e-03 -9.383877e-20
9.000003e-03 3.028505e-20
1.000001e-02 2.060891e-19
1.100001e-02 3.159963e-19
1.199999e-02 2.278745e-19
1.300000e-02 -1.012239e-19
1.400000e-02 -5.372569e-19
1.500000e-02 -7.811541e-19
1.600000e-02 -5.260344e-19
1.700000e-02 2.930086e-19
1.800001e-02 1.315565e-18
1.900001e-02 1.826441e-18
2.000000e-02 1.153495e-18
2.100000e-02 -7.672718e-19
2.200000e-02 -3.037270e-18
2.300000e-02 -4.042955e-18
2.400000e-02 -2.395799e-18
2.500001e-02 1.863346e-18
2.600001e-02 6.636173e-18
2.700000e-02 8.478500e-18
2.800000e-02 4.688126e-18
2.900000e-02 -4.272743e-18
3.000000e-02 -1.377965e-17
3.100000e-02 -1.685894e-17
3.200001e-02 -8.571190e-18
3.300001e-02 9.385951e-18
3.400001e-02 2.733050e-17
3.500000e-02 3.183364e-17
3.600000e-02 1.445872e-17
3.700000e-02 -1.997419e-17
3.800000e-02 -5.209622e-17
3.900000e-02 -5.724220e-17
4.000001e-02 -2.206359e-17
4.100001e-02 4.145323e-17
4.200000e-02 9.609237e-17
4.300000e-02 9.849464e-17
4.400000e-02 2.938719e-17
4.500000e-02 -8.397882e-17
4.600000e-02 -1.726276e-16
4.700001e-02 -1.633248e-16
4.800001e-02 -3.141534e-17
4.900001e-02 1.653717e-16
5.000000e-02 3.033564e-16
5.100000e-02 2.632281e-16
5.200000e-02 1.901073e-17
5.300000e-02 -3.142479e-16
5.400001e-02 -5.217101e-16
5.500001e-02 -4.153332e-16
5.600001e-02 2.156811e-17
5.700000e-02 5.720603e-16
5.800000e-02 8.747333e-16
5.900000e-02 6.426908e-16
6.000000e-02 -1.096233e-16
6.100000e-02 -9.933246e-16
6.200001e-02 -1.420366e-15
6.300001e-02 -9.682906e-16
6.400001e-02 2.763984e-16
6.500000e-02 1.647154e-15
6.600000e-02 2.219518e-15
6.700000e-02 1.397422e-15
6.800000e-02 -5.862652e-16
6.900001e-02 -2.630899e-15
7.000001e-02 -3.331263e-15
7.100001e-02 -1.890202e-15
7.200000e-02 1.180060e-15
7.300000e-02 4.112362e-15
7.400000e-02 4.833254e-15
7.500000e-02 2.345440e-15
7.600001e-02 -2.328587e-15
7.700001e-02 -6.405257e-15
7.800001e-02 -6.892422e-15
7.900001e-02 -2.638516e-15
8.000000e-02 4.446338e-15
8.100000e-02 1.003732e-14
8.200000e-02 9.873429e-15
8.300000e-02 2.743157e-15
8.400001e-02 -7.990563e-15
8.500001e-02 -1.570546e-14
8.600001e-02 -1.437938e-14
8.700001e-02 -2.872328e-15
8.800000e-02 1.323224e-14
8.900000e-02 2.400743e-14
9.000000e-02 2.103007e-14
9.100001e-02 3.407642e-15
9.200001e-02 -2.008994e-14
9.300001e-02 -3.501962e-14
9.400001e-02 -2.986609e-14
9.500000e-02 -4.314574e-15
9.600000e-02 2.846357e-14
9.700000e-02 4.817187e-14
9.800000e-02 3.968611e-14
9.900001e-02 4.058789e-15
1.000000e-01 -3.942863e-14
1.010000e-01 -6.312882e-14
1.020000e-01 -4.821844e-14
1.030000e-01 1.149454e-15
1.040000e-01 5.684648e-14
1.050000e-01 8.186836e-14
1.060000e-01 5.404759e-14
1.070000e-01 -1.626658e-14
1.080000e-01 -8.765157e-14
1.090000e-01 -1.105352e-13
1.100000e-01 -5.974915e-14
1.110000e-01 4.376301e-14
1.120000e-01 1.387784e-13
1.130000e-01 1.580943e-13
1.140000e-01 7.309921e-14
1.150000e-01 -7.970039e-14
1.160000e-01 -2.112505e-13
1.170000e-01 -2.299961e-13
1.180000e-01 -1.023646e-13
1.190000e-01 1.148911e-13
1.200000e-01 2.966986e-13
1.210000e-01 3.203554e-13
1.220000e-01 1.460050e-13
1.230000e-01 -1.446291e-13
1.240000e-01 -3.831733e-13
1.250000e-01 -4.113292e-13
1.260000e-01 -1.849567e-13
1.270000e-01 1.818046e-13
1.280000e-01 4.699112e-13
1.290000e-01 4.848315e-13
1.300000e-01 1.872175e-13
1.310000e-01 -2.613640e-13
1.320000e-01 -5.796884e-13
1.330000e-01 -5.387360e-13
1.340000e-01 -1.222969e-13
1.350000e-01 4.326558e-13
1.360000e-01 7.602907e-13
1.370000e-01 5.958069e-13
1.380000e-01 -2.773492e-14
1.390000e-01 -7.531556e-13
1.400000e-01 -1.088099e-12
1.410000e-01 -7.170761e-13
1.420000e-01 2.519712e-13
1.430000e-01 1.281704e-12
1.440000e-01 1.684073e-12
1.450000e-01 1.047696e-12
1.460000e-01 -4.406159e-13
1.470000e-01 -2.005788e-12
1.480000e-01 -2.672531e-12
1.490000e-01 -1.843569e-12
1.500000e-01 2.674948e-13
1.510000e-01 2.639239e-12
1.520000e-01 3.938305e-12
1.530000e-01 3.267057e-12
1.540000e-01 7.393595e-13
1.550000e-01 -2.479495e-12
1.560000e-01 -4.742718e-12
1.570000e-01 -4.813501e-12
1.580000e-01 -2.573554e-12
1.590000e-01 8.793062e-13
1.600000e-01 3.828046e-12
1.610000e-01 4.894291e-12
1.620000e-01 3.790256e-12
1.630000e-01 1.406676e-12
1.640000e-01 -8.182040e-13
1.650000e-01 -1.846547e-12
1.660000e-01 -1.685070e-12
1.670000e-01 -1.282707e-12
1.680000e-01 -1.724056e-12
1.690000e-01 -3.253237e-12
1.700000e-01 -4.832721e-12
1.710000e-01 -4.644440e-12
1.720000e-01 -1.329525e-12
1.730000e-01 4.783503e-12
1.740000e-01 1.132060e-11
1.750000e-01 1.478145e-11
1.760000e-01 1.236844e-11
1.770000e-01 3.730723e-12
1.780000e-01 -8.431072e-12
1.790000e-01 -1.935893e-11
1.800000e-01 -2.437069e-11
1.810000e-01 -2.099323e-11
1.820000e-01 -9.959702e-12
1.830000e-01 5.360449e-12
1.840000e-01 2.057018e-11
1.850000e-01 3.179291e-11
1.860000e-01 3.628324e-11
1.870000e-01 3.210287e-11
1.880000e-01 1.775911e-11
1.890000e-01 -7.119135e-12
1.900000e-01 -3.982719e-11
1.910000e-01 -7.250706e-11
1.920000e-01 -9.205809e-11
1.930000e-01 -8.373063e-11
1.940000e-01 -3.814603e-11
1.950000e-01 4.108517e-11
1.960000e-01 1.335608e-10
1.970000e-01 2.057460e-10
1.980000e-01 2.224680e-10
1.990000e-01 1.622640e-10
2.000000e-01 2.957903e-11
2.010000e-01 -1.428239e-10
2.020000e-01 -3.037245e-10
2.030000e-01 -4.019635e-10
2.040000e-01 -4.052073e-10
2.050000e-01 -3.099737e-10
2.060000e-01 -1.383627e-10
2.070000e-01 7.574461e-11
2.080000e-01 3.021272e-10
2.090000e-01 5.213003e-10
2.100000e-01 7.183343e-10
2.110000e-01 8.674167e-10
2.120000e-01 9.187591e-10
2.130000e-01 8.007849e-10
2.140000e-01 4.437720e-10
2.150000e-01 -1.809882e-10
2.160000e-01 -1.023574e-09
2.170000e-01 -1.939942e-09
2.180000e-01 -2.711960e-09
2.190000e-01 -3.100949e-09
2.200000e-01 -2.916514e-09
2.210000e-01 -2.073800e-09
2.220000e-01 -6.164392e-10
2.230000e-01 1.302087e-09
2.240000e-01 3.466522e-09
2.250000e-01 5.651649e-09
2.260000e-01 7.651558e-09
2.270000e-01 9.272736e-09
2.280000e-01 1.029680e-08
2.290000e-01 1.043465e-08
2.300000e-01 9.297903e-09
2.310000e-01 6.403485e-09
2.320000e-01 1.208664e-09
2.330000e-01 -6.843487e-09
2.340000e-01 -1.829513e-08
2.350000e-01 -3.368089e-08
2.360000e-01 -5.357342e-08
2.370000e-01 -7.865178e-08
2.380000e-01 -1.097673e-07
2.390000e-01 -1.479877e-07
2.400000e-01 -1.946155e-07
2.410000e-01 -2.511997e-07
2.420000e-01 -3.195696e-07
2.430000e-01 -4.019195e-07
2.440000e-01 -5.009547e-07
2.450000e-01 -6.200838e-07
2.460000e-01 -7.636187e-07
2.470000e-01 -9.369368e-07
2.480000e-01 -1.146571e-06
2.490000e-01 -1.400228e-06
2.500000e-01 -1.706763e-06
2.510000e-01 -2.076181e-06
2.520000e-01 -2.519746e-06
2.530000e-01 -3.050233e-06
2.540000e-01 -3.682346e-06
2.550000e-01 -4.433256e-06
2.560000e-01 -5.323165e-06
2.570000e-01 -6.375805e-06
2.580000e-01 -7.618821e-06
2.590000e-01 -9.084023e-06
2.600000e-01 -1.080759e-05
2.610000e-01 -1.283034e-05
2.620000e-01 -1.519814e-05
2.630000e-01 -1.796253e-05
2.640000e-01 -2.118151e-05
2.650000e-01 -2.492039e-05
2.660000e-01 -2.925249e-05
2.670000e-01 -3.425976e-05
2.680000e-01 -4.003324e-05
2.690000e-01 -4.667338e-05
2.700000e-01 -5.429060e-05
2.710000e-01 -6.300590e-05
2.720000e-01 -7.295181e-05
2.730000e-01 -8.427324e-05
2.740000e-01 -9.712823e-05
2.750000e-01 -1.116883e-04
2.760000e-01 -1.281381e-04
2.770000e-01 -1.466753e-04
2.780000e-01 -1.675094e-04
2.790000e-01 -1.908610e-04
2.800000e-01 -2.169617e-04
2.810000e-01 -2.460532e-04
2.820000e-01 -2.783871e-04
2.830000e-01 -3.142238e-04
2.840000e-01 -3.538312e-04
2.850000e-01 -3.974820e-04
2.860000e-01 -4.454508e-04
2.870000e-01 -4.980111e-04
2.880000e-01 -5.554308e-04
2.890000e-01 -6.179694e-04
2.900000e-01 -6.858734e-04
2.910000e-01 -7.593724e-04
2.920000e-01 -8.386738e-04
2.930000e-01 -9.239567e-04
2.940000e-01 -1.015366e-03
2.950000e-01 -1.113004e-03
2.960000e-01 -1.216928e-03
2.970000e-01 -1.327139e-03
2.980000e-01 -1.443582e-03
2.990000e-01 -1.566135e-03
3.000000e-01 -1.694606e-03
3.010000e-01 -1.828725e-03
3.020000e-01 -1.968141e-03
3.030000e-01 -2.112411e-03
3.040000e-01 -2.260996e-03
3.050000e-01 -2.413257e-03
3.060000e-01 -2.568452e-03
3.070000e-01 -2.725735e-03
3.080000e-01 -2.884153e-03
3.090000e-01 -3.042655e-03
3.100000e-01 -3.200088e-03
3.110000e-01 -3.355200e-03
3.120000e-01 -3.506650e-03
3.130000e-01 -3.653007e-03
3.140000e-01 -3.792764e-03
3.150000e-01 -3.924347e-03
3.160000e-01 -4.046127e-03
3.170000e-01 -4.156437e-03
3.180000e-01 -4.253585e-03
3.190000e-01 -4.335876e-03
3.200000e-01 -4.401621e-03
3.210000e-01 -4.449169e-03
3.220000e-01 -4.476916e-03
3.230000e-01 -4.483333e-03
3.240000e-01 -4.466988e-03
3.250000e-01 -4.426569e-03
3.260000e-01 -4.360903e-03
3.270000e-01 -4.268982e-03
3.280000e-01 -4.149983e-03
3.290000e-01 -4.003286e-03
3.300000e-01 -3.828494e-03
3.310000e-01 -3.625443e-03
3.320000e-01 -3.394222e-03
3.330000e-01 -3.135177e-03
3.340000e-01 -2.848923e-03
3.350000e-01 -2.536351e-03
3.360000e-01 -2.198628e-03
3.370000e-01 -1.837197e-03
3.380000e-01 -1.453766e-03
3.390000e-01 -1.050303e-03
3.400000e-01 -6.290160e-04
3.410000e-01 -1.923412e-04
3.420000e-01 2.570775e-04
3.430000e-01 7.164102e-04
3.440000e-01 1.182669e-03
3.450000e-01 1.652737e-03
3.460000e-01 2.123402e-03
3.470000e-01 2.591389e-03
3.480000e-01 3.053396e-03
3.490000e-01 3.506129e-03
3.500000e-01 3.946336e-03
3.510000e-01 4.370846e-03
3.520000e-01 4.776601e-03
3.530000e-01 5.160692e-03
3.540000e-01 5.520389e-03
3.550000e-01 5.853175e-03
3.560000e-01 6.156767e-03
3.570000e-01 6.429148e-03
3.580000e-01 6.668586e-03
3.590000e-01 6.873651e-03
3.600000e-01 7.043231e-03
3.610000e-01 7.176538e-03
3.620000e-01 7.273107e-03
3.630000e-01 7.332806e-03
3.640000e-01 7.355827e-03
3.650000e-01 7.342681e-03
3.660000e-01 7.294184e-03
3.670000e-01 7.211447e-03
3.680000e-01 7.095850e-03
3.690000e-01 6.949028e-03
3.700000e-01 6.772840e-03
3.710000e-01 6.569351e-03
3.720000e-01 6.340796e-03
3.730000e-01 6.089558e-03
3.740000e-01 5.818133e-03
3.750000e-01 5.529100e-03
3.760000e-01 5.225091e-03
3.770000e-01 4.908762e-03
3.780000e-01 4.582761e-03
3.790000e-01 4.249706e-03
3.800000e-01 3.912153e-03
3.810000e-01 3.572573e-03
3.820000e-01 3.233331e-03
3.830000e-01 2.896666e-03
3.840000e-01 2.564677e-03
3.850000e-01 2.239306e-03
3.860000e-01 1.922332e-03
3.870000e-01 1.615355e-03
3.880000e-01 1.319791e-03
3.890000e-01 1.036872e-03
3.900000e-01 7.676424e-04
3.910000e-01 5.129613e-04
3.920000e-01 2.735076e-04
3.930000e-01 4.978276e-05
3.940000e-01 -1.578821e-04
3.950000e-01 -3.493178e-04
3.960000e-01 -5.245047e-04
3.970000e-01 -6.835604e-04
3.980000e-01 -8.267263e-04
3.990000e-01 -9.543559e-04
4.000000e-01 -1.066904e-03
4.010000e-01 -1.164913e-03
4.020000e-01 -1.249006e-03
4.030000e-01 -1.319864e-03
4.040000e-01 -1.378223e-03
4.050000e-01 -1.424853e-03
4.060000e-01 -1.460549e-03
4.070000e-01 -1.486123e-03
4.080000e-01 -1.502395e-03
4.090000e-01 -1.510178e-03
4.100000e-01 -1.510278e-03
4.110000e-01 -1.503478e-03
4.120000e-01 -1.490543e-03
4.130000e-01 -1.472204e-03
4.140000e-01 -1.449161e-03
4.150000e-01 -1.422076e-03
4.160000e-01 -1.391572e-03
4.170000e-01 -1.358230e-03
4.180000e-01 -1.322587e-03
4.190000e-01 -1.285140e-03
4.200000e-01 -1.246341e-03
4.210000e-01 -1.206600e-03
4.220001e-01 -1.166288e-03
4.230000e-01 -1.125731e-03
4.240000e-01 -1.085220e-03
4.250000e-01 -1.045006e-03
4.260000e-01 -1.005307e-03
4.270000e-01 -9.663102e-04
4.280000e-01 -9.281700e-04
4.290000e-01 -8.910139e-04
4.300000e-01 -8.549435e-04
4.310000e-01 -8.200384e-04
4.320000e-01 -7.863588e-04
4.330000e-01 -7.539475e-04
4.340000e-01 -7.228305e-04
4.350000e-01 -6.930185e-04
4.360000e-01 -6.645076e-04
4.370000e-01 -6.372826e-04
4.380000e-01 -6.113194e-04
4.390000e-01 -5.865879e-04
4.400000e-01 -5.630529e-04
4.410000e-01 -5.406756e-04
4.420000e-01 -5.194135e-04
4.430000e-01 -4.992217e-04
4.440000e-01 -4.800540e-04
4.450000e-01 -4.618638e-04
4.460000e-01 -4.446043e-04
4.470000e-01 -4.282286e-04
4.480000e-01 -4.126893e-04
4.490000e-01 -3.979386e-04
4.500000e-01 -3.839300e-04
4.510000e-01 -3.706196e-04
4.520000e-01 -3.579667e-04
4.530000e-01 -3.459341e-04
4.540000e-01 -3.344877e-04
4.550000e-01 -3.235952e-04
4.560000e-01 -3.132262e-04
4.570000e-01 -3.033521e-04
4.580000e-01 -2.939458e-04
4.590001e-01 -2.849817e-04
4.600000e-01 -2.764346e-04
4.610000e-01 -2.682802e-04
4.620000e-01 -2.604949e-04
4.630000e-01 -2.530571e-04
4.640000e-01 -2.459474e-04
4.650000e-01 -2.391494e-04
4.660000e-01 -2.326483e-04
4.670000e-01 -2.264302e-04
4.680000e-01 -2.204810e-04
4.690000e-01 -2.147864e-04
4.700000e-01 -2.093328e-04
4.710000e-01 -2.041071e-04
4.720000e-01 -1.990975e-04
4.730000e-01 -1.942924e-04
4.740000e-01 -1.896801e-04
4.750000e-01 -1.852486e-04
4.760000e-01 -1.809857e-04
4.770000e-01 -1.768800e-04
4.780000e-01 -1.729213e-04
4.790000e-01 -1.691005e-04
4.800000e-01 -1.654094e-04
4.810000e-01 -1.618409e-04
4.820001e-01 -1.583887e-04
4.830000e-01 -1.550474e-04
4.840000e-01 -1.518117e-04
4.850000e-01 -1.486762e-04
4.860000e-01 -1.456344e-04
4.870000e-01 -1.426788e-04
4.880000e-01 -1.398017e-04
4.890000e-01 -1.369963e-04
4.900000e-01 -1.342583e-04
4.910000e-01 -1.315860e-04
4.920000e-01 -1.289801e-04
4.930000e-01 -1.264422e-04
4.940000e-01 -1.239747e-04
4.950000e-01 -1.215793e-04
4.960001e-01 -1.192578e-04
4.970000e-01 -1.170121e-04
4.980000e-01 -1.148437e-04
4.990000e-01 -1.127547e-04
5.000000e-01 -1.107473e-04
5.010000e-01 -1.088248e-04
5.020000e-01 -1.069924e-04
5.030000e-01 -1.052580e-04
5.040000e-01 -1.036330e-04
5.050000e-01 -1.021312e-04
5.060000e-01 -1.007685e-04
5.070000e-01 -9.956245e-05
5.080000e-01 -9.853201e-05
5.090000e-01 -9.769839e-05
5.100001e-01 -9.708626e-05
5.110000e-01 -9.672489e-05
5.120000e-01 -9.664895e-05
5.130000e-01 -9.689909e-05
5.140000e-01 -9.752258e-05
5.150000e-01 -9.857417e-05
5.160000e-01 -1.001175e-04
5.170000e-01 -1.022266e-04
5.180000e-01 -1.049879e-04
5.190001e-01 -1.085010e-04
5.200000e-01 -1.128797e-04
5.210000e-01 -1.182534e-04
5.220000e-01 -1.247680e-04
5.230000e-01 -1.325876e-04
5.240000e-01 -1.418974e-04
5.250000e-01 -1.529055e-04
5.260000e-01 -1.658450e-04
5.270000e-01 -1.809763e-04
5.280000e-01 -1.985881e-04
5.290000e-01 -2.190000e-04
5.300000e-01 -2.425646e-04
5.310000e-01 -2.696708e-04
5.320000e-01 -3.007449e-04
5.330001e-01 -3.362523e-04
5.340000e-01 -3.766969e-04
5.350000e-01 -4.226204e-04
5.360000e-01 -4.746024e-04
5.370000e-01 -5.332604e-04
5.380000e-01 -5.992500e-04
5.390000e-01 -6.732648e-04
5.400000e-01 -7.560352e-04
5.410000e-01 -8.483249e-04
5.420001e-01 -9.509263e-04
5.430000e-01 -1.064655e-03
5.440000e-01 -1.190346e-03
5.450000e-01 -1.328841e-03
5.460000e-01 -1.480984e-03
5.470001e-01 -1.647613e-03
5.480000e-01 -1.829543e-03
5.490000e-01 -2.027559e-03
5.500000e-01 -2.242400e-03
5.510000e-01 -2.474749e-03
5.520000e-01 -2.725210e-03
5.530000e-01 -2.994295e-03
5.540000e-01 -3.282406e-03
5.550000e-01 -3.589810e-03
5.560001e-01 -3.916625e-03
5.570000e-01 -4.262798e-03
5.580000e-01 -4.628084e-03
5.590000e-01 -5.012028e-03
5.600000e-01 -5.413947e-03
5.610000e-01 -5.832905e-03
5.620000e-01 -6.267698e-03
5.630000e-01 -6.716840e-03
5.640000e-01 -7.178545e-03
5.650001e-01 -7.650720e-03
5.660000e-01 -8.130959e-03
5.670000e-01 -8.616531e-03
5.680000e-01 -9.104385e-03
5.690000e-01 -9.591150e-03
5.700001e-01 -1.007315e-02
5.710000e-01 -1.054642e-02
5.720000e-01 -1.100671e-02
5.730000e-01 -1.144955e-02
5.740000e-01 -1.187021e-02
5.750000e-01 -1.226380e-02
5.760000e-01 -1.262526e-02
5.770000e-01 -1.294944e-02
5.780000e-01 -1.323117e-02
5.790001e-01 -1.346527e-02
5.800000e-01 -1.364662e-02
5.810000e-01 -1.377027e-02
5.820000e-01 -1.383143e-02
5.830000e-01 -1.382561e-02
5.840001e-01 -1.374864e-02
5.850000e-01 -1.359675e-02
5.860000e-01 -1.336666e-02
5.870000e-01 -1.305561e-02
5.880000e-01 -1.266144e-02
5.890000e-01 -1.218264e-02
5.900000e-01 -1.161840e-02
5.910000e-01 -1.096868e-02
5.920000e-01 -1.023419e-02
5.930001e-01 -9.416482e-03
5.940000e-01 -8.517910e-03
5.950000e-01 -7.541671e-03
5.960000e-01 -6.491792e-03
5.970000e-01 -5.373114e-03
5.980000e-01 -4.191267e-03
5.990000e-01 -2.952634e-03
6.000000e-01 -1.664298e-03
6.010000e-01 -3.339874e-04
6.020001e-01 1.029999e-03
6.030000e-01 2.418863e-03
6.040000e-01 3.823393e-03
6.050000e-01 5.234062e-03
6.060000e-01 6.641124e-03
6.070001e-01 8.034721e-03
6.080000e-01 9.404985e-03
6.090000e-01 1.074215e-02
6.100000e-01 1.203663e-02
6.110000e-01 1.327919e-02
6.120000e-01 1.446099e-02
6.130000e-01 1.557370e-02
6.140000e-01 1.660960e-02
6.150000e-01 1.756166e-02
6.160001e-01 1.842361e-02
6.170000e-01 1.918999e-02
6.180000e-01 1.985623e-02
6.190000e-01 2.041869e-02
6.200000e-01 2.087466e-02
6.210001e-01 2.122241e-02
6.220000e-01 2.146117e-02
6.230000e-01 2.159116e-02
6.240000e-01 2.161352e-02
6.250001e-01 2.153032e-02
6.260000e-01 2.134448e-02
6.270000e-01 2.105979e-02
6.280000e-01 2.068076e-02
6.290000e-01 2.021261e-02
6.300001e-01 1.966119e-02
6.310000e-01 1.903284e-02
6.320000e-01 1.833440e-02
6.330000e-01 1.757306e-02
6.340000e-01 1.675627e-02
6.350001e-01 1.589171e-02
6.360000e-01 1.498712e-02
6.370000e-01 1.405026e-02
6.380000e-01 1.308883e-02
6.390001e-01 1.211039e-02
6.400000e-01 1.112227e-02
6.410000e-01 1.013155e-02
6.420000e-01 9.144942e-03
6.430000e-01 8.168768e-03
6.440001e-01 7.208914e-03
6.450000e-01 6.270797e-03
6.460000e-01 5.359333e-03
6.470000e-01 4.478919e-03
6.480000e-01 3.633413e-03
6.490000e-01 2.826124e-03
6.500000e-01 2.059817e-03
6.510000e-01 1.336729e-03
6.520000e-01 6.585838e-04
6.530001e-01 2.661126e-05
6.540000e-01 -5.584382e-04
6.550000e-01 -1.096270e-03
6.560000e-01 -1.587014e-03
6.570000e-01 -2.031187e-03
6.580001e-01 -2.429649e-03
6.590000e-01 -2.783566e-03
6.600000e-01 -3.094377e-03
6.610000e-01 -3.363758e-03
6.620001e-01 -3.593599e-03
6.630000e-01 -3.785954e-03
6.640000e-01 -3.943003e-03
6.650000e-01 -4.067014e-03
6.660000e-01 -4.160310e-03
6.670001e-01 -4.225244e-03
6.680000e-01 -4.264186e-03
6.690000e-01 -4.279490e-03
6.700000e-01 -4.273477e-03
6.710000e-01 -4.248400e-03
6.720001e-01 -4.206430e-03
6.730000e-01 -4.149643e-03
6.740000e-01 -4.080016e-03
6.750000e-01 -3.999420e-03
6.760001e-01 -3.909618e-03
6.770000e-01 -3.812247e-03
6.780000e-01 -3.708819e-03
6.790000e-01 -3.600712e-03
6.800000e-01 -3.489181e-03
6.810001e-01 -3.375359e-03
6.820000e-01 -3.260265e-03
6.830000e-01 -3.144802e-03
6.840000e-01 -3.029761e-03
6.850001e-01 -2.915825e-03
6.860000e-01 -2.803578e-03
6.870000e-01 -2.693516e-03
6.880000e-01 -2.586055e-03
6.890000e-01 -2.481536e-03
6.900001e-01 -2.380227e-03
6.910000e-01 -2.282326e-03
6.920000e-01 -2.187974e-03
6.930000e-01 -2.097260e-03
6.940000e-01 -2.010237e-03
6.950001e-01 -1.926923e-03
6.960000e-01 -1.847298e-03
6.970000e-01 -1.771312e-03
6.980000e-01 -1.698883e-03
6.990001e-01 -1.629913e-03
7.000000e-01 -1.564292e-03
7.010000e-01 -1.501910e-03
7.020000e-01 -1.442646e-03
7.030000e-01 -1.386370e-03
7.040001e-01 -1.332944e-03
7.050000e-01 -1.282222e-03
7.060000e-01 -1.234064e-03
7.070000e-01 -1.188335e-03
7.080001e-01 -1.144915e-03
7.090001e-01 -1.103681e-03
7.100000e-01 -1.064513e-03
7.110000e-01 -1.027284e-03
7.120000e-01 -9.918747e-04
7.130001e-01 -9.581770e-04
7.140000e-01 -9.260970e-04
7.150000e-01 -8.955515e-04
7.160000e-01 -8.664596e-04
7.170000e-01 -8.387385e-04
7.180001e-01 -8.123048e-04
7.190000e-01 -7.870815e-04
7.200000e-01 -7.630035e-04
7.210000e-01 -7.400176e-04
7.220001e-01 -7.180755e-04
7.230000e-01 -6.971276e-04
7.240000e-01 -6.771199e-04
7.250000e-01 -6.579980e-04
7.260000e-01 -6.397133e-04
7.270001e-01 -6.222266e-04
7.280000e-01 -6.055061e-04
7.290000e-01 -5.895211e-04
7.300000e-01 -5.742371e-04
7.310000e-01 -5.596160e-04
7.320001e-01 -5.456205e-04
7.330000e-01 -5.322189e-04
7.340000e-01 -5.193853e-04
7.350000e-01 -5.070961e-04
7.360001e-01 -4.953239e-04
7.370000e-01 -4.840364e-04
7.380000e-01 -4.731991e-04
7.390000e-01 -4.627808e-04
7.400000e-01 -4.527569e-04
7.410001e-01 -4.431075e-04
7.420000e-01 -4.338130e-04
7.430000e-01 -4.248496e-04
7.440000e-01 -4.161900e-04
7.450001e-01 -4.078071e-04
7.460001e-01 -3.996789e-04
7.470000e-01 -3.917892e-04
7.480000e-01 -3.841248e-04
7.490000e-01 -3.766708e-04
7.500001e-01 -3.694086e-04
7.510000e-01 -3.623181e-04
7.520000e-01 -3.553820e-04
7.530000e-01 -3.485888e-04
7.540000e-01 -3.419320e-04
7.550001e-01 -3.354066e-04
7.560000e-01 -3.290056e-04
7.570000e-01 -3.227198e-04
7.580000e-01 -3.165412e-04
7.590001e-01 -3.104657e-04
7.600001e-01 -3.044948e-04
7.610000e-01 -2.986331e-04
7.620000e-01 -2.928844e-04
7.630000e-01 -2.872496e-04
7.640001e-01 -2.817277e-04
7.650000e-01 -2.763187e-04
7.660000e-01 -2.710257e-04
7.670000e-01 -2.658548e-04
7.680001e-01 -2.608124e-04
7.690001e-01 -2.559029e-04
7.700000e-01 -2.511284e-04
7.710000e-01 -2.464903e-04
7.720000e-01 -2.419914e-04
7.730001e-01 -2.376361e-04
7.740000e-01 -2.334287e-04
7.750000e-01 -2.293700e-04
7.760000e-01 -2.254572e-04
7.770000e-01 -2.216847e-04
7.780001e-01 -2.180474e-04
7.790000e-01 -2.145423e-04
7.800000e-01 -2.111685e-04
7.810000e-01 -2.079241e-04
7.820001e-01 -2.048040e-04
7.830001e-01 -2.017995e-04
7.840000e-01 -1.988995e-04
7.850000e-01 -1.960942e-04
7.860000e-01 -1.933763e-04
7.870001e-01 -1.907406e-04
7.880000e-01 -1.881827e-04
7.890000e-01 -1.856964e-04
7.900000e-01 -1.832739e-04
7.910001e-01 -1.809067e-04
7.920001e-01 -1.785874e-04
7.930000e-01 -1.763107e-04
7.940000e-01 -1.740724e-04
7.950000e-01 -1.718690e-04
7.960001e-01 -1.696963e-04
7.970001e-01 -1.675494e-04
7.980000e-01 -1.654237e-04
7.990000e-01 -1.633157e-04
8.000000e-01 -1.612240e-04
8.010001e-01 -1.591488e-04
8.020000e-01 -1.570917e-04
8.030000e-01 -1.550539e-04
8.040000e-01 -1.530353e-04
8.050001e-01 -1.510343e-04
8.060001e-01 -1.490479e-04
8.070000e-01 -1.470733e-04
8.080000e-01 -1.451094e-04
8.090000e-01 -1.431578e-04
8.100001e-01 -1.412217e-04
8.110000e-01 -1.393046e-04
8.120000e-01 -1.374081e-04
8.130000e-01 -1.355319e-04
8.140000e-01 -1.336745e-04
8.150001e-01 -1.318356e-04
8.160000e-01 -1.300171e-04
8.170000e-01 -1.282227e-04
8.180000e-01 -1.264558e-04
8.190001e-01 -1.247174e-04
8.200001e-01 -1.230057e-04
8.210000e-01 -1.213183e-04
8.220000e-01 -1.196547e-04
8.230000e-01 -1.180175e-04
8.240001e-01 -1.164119e-04
8.250000e-01 -1.148419e-04
8.260000e-01 -1.133086e-04
8.270000e-01 -1.118098e-04
8.280001e-01 -1.103423e-04
8.290001e-01 -1.089050e-04
8.300000e-01 -1.074995e-04
8.310000e-01 -1.061294e-04
8.320000e-01 -1.047967e-04
8.330001e-01 -1.034999e-04
8.340001e-01 -1.022355e-04
8.350000e-01 -1.010005e-04
8.360000e-01 -9.979517e-05
8.370000e-01 -9.862287e-05
8.380001e-01 -9.748754e-05
8.390000e-01 -9.639057e-05
8.400000e-01 -9.532970e-05
8.410000e-01 -9.430102e-05
8.420001e-01 -9.330230e-05
8.430001e-01 -9.233484e-05
8.440000e-01 -9.140236e-05
8.450000e-01 -9.050775e-05
8.460000e-01 -8.965065e-05
8.470001e-01 -8.882805e-05
8.480000e-01 -8.803738e-05
8.490000e-01 -8.727951e-05
8.500000e-01 -8.655855e-05
8.510001e-01 -8.587828e-05
8.520001e-01 -8.523776e-05
8.530000e-01 -8.462991e-05
8.540000e-01 -8.404455e-05
8.550000e-01 -8.347380e-05
8.560001e-01 -8.291558e-05
8.570001e-01 -8.237224e-05
8.580000e-01 -8.184520e-05
8.590000e-01 -8.132990e-05
8.600000e-01 -8.081522e-05
8.610001e-01 -8.028813e-05
8.620000e-01 -7.974013e-05
8.630000e-01 -7.917003e-05
8.640000e-01 -7.858092e-05
8.650001e-01 -7.797343e-05
8.660001e-01 -7.734095e-05
8.670000e-01 -7.667079e-05
8.680000e-01 -7.595104e-05
8.690000e-01 -7.517765e-05
8.700001e-01 -7.435642e-05
8.710001e-01 -7.349821e-05
8.720000e-01 -7.261104e-05
8.730000e-01 -7.169550e-05
8.740000e-01 -7.074682e-05
8.750001e-01 -6.976185e-05
8.760000e-01 -6.874502e-05
8.770000e-01 -6.770834e-05
8.780000e-01 -6.666552e-05
8.790001e-01 -6.562487e-05
