 -0.12000000000000000          0.0000000000000000
 -0.11889999999999999          0.0000000000000000
 -0.11780000000000000         -2.8803398555155013E-010
 -0.11670000000000000         -3.7413219744486526E-010
 -0.11559999999999999          3.5014199872840379E-010
 -0.11449999999999999          9.4073016043694224E-010
 -0.11340000000000000          9.4344115852962318E-011
 -0.11230000000000000         -1.0913596693029604E-009
 -0.11119999999999999         -5.3994986259908728E-010
 -0.11009999999999999          4.0800493539272509E-010
 -0.10900000000000000         -1.7057470991233004E-009
 -0.10790000000000000         -5.1608428641713999E-009
 -0.10679999999999999         -2.5409692128164352E-009
 -0.10569999999999999          7.8289570382139573E-009
 -0.10460000000000000          1.4875282339232854E-008
 -0.10349999999999999          7.4609003419823239E-009
 -0.10239999999999999         -7.8669248892992982E-009
 -0.10130000000000000         -1.2319265607629859E-008
 -0.10020000000000000         -5.1220550023600708E-010
  -9.9099999999999994E-002     1.0257106275446404E-008
  -9.7999999999999990E-002     3.9317074040923217E-009
  -9.6899999999999986E-002    -1.0295767793877530E-008
  -9.5799999999999996E-002    -1.0654859217140711E-008
  -9.4699999999999993E-002     4.9943840174648813E-009
  -9.3599999999999989E-002     1.5762308791522628E-008
  -9.2499999999999999E-002     8.8267295694777204E-009
  -9.1399999999999995E-002    -2.6693793842014202E-009
  -9.0299999999999991E-002    -2.5358370958628029E-009
  -8.9200000000000002E-002     1.5048964296937584E-009
  -8.8099999999999984E-002    -9.5547330047907053E-009
  -8.6999999999999994E-002    -3.3973734048231563E-008
  -8.5899999999999990E-002    -5.0857028810469274E-008
  -8.4799999999999986E-002    -5.4565401086392740E-008
  -8.3699999999999997E-002    -6.5483426681112178E-008
  -8.2599999999999993E-002    -9.6673907989952568E-008
  -8.1499999999999989E-002    -1.2998593490465282E-007
  -8.0399999999999999E-002    -1.4490673549971689E-007
  -7.9299999999999995E-002    -1.5748329929010652E-007
  -7.8199999999999992E-002    -2.0287106394789589E-007
  -7.7100000000000002E-002    -2.8165894150333770E-007
  -7.5999999999999984E-002    -3.5502839068612957E-007
  -7.4899999999999994E-002    -4.0535437051403278E-007
  -7.3799999999999991E-002    -4.7338815534203604E-007
  -7.2699999999999987E-002    -6.0896365994267398E-007
  -7.1599999999999997E-002    -8.0216415199174662E-007
  -7.0499999999999993E-002    -9.9893975402665092E-007
  -6.9399999999999989E-002    -1.1834146107503329E-006
  -6.8300000000000000E-002    -1.4076381376071367E-006
  -6.7199999999999996E-002    -1.7256301134693786E-006
  -6.6099999999999992E-002    -2.1305777408997528E-006
  -6.5000000000000002E-002    -2.5860899768304080E-006
  -6.3899999999999985E-002    -3.0978669656178681E-006
  -6.2799999999999995E-002    -3.7148813589737983E-006
  -6.1699999999999991E-002    -4.4658031583821867E-006
  -6.0599999999999994E-002    -5.3392168410937302E-006
  -5.9499999999999990E-002    -6.3407492234546226E-006
  -5.8399999999999994E-002    -7.5280295277480036E-006
  -5.7299999999999990E-002    -8.9556378952693194E-006
  -5.6199999999999986E-002    -1.0613653103064280E-005
  -5.5099999999999996E-002    -1.2469113244151231E-005
  -5.3999999999999992E-002    -1.4561912394128740E-005
  -5.2899999999999989E-002    -1.7006786947604269E-005
  -5.1799999999999985E-002    -1.9883862478309311E-005
  -5.0699999999999995E-002    -2.3173888621386141E-005
  -4.9599999999999991E-002    -2.6839263227884658E-005
  -4.8499999999999988E-002    -3.0936844268580899E-005
  -4.7399999999999998E-002    -3.5597324313130230E-005
  -4.6299999999999994E-002    -4.0901817556004971E-005
  -4.5199999999999990E-002    -4.6839446440571919E-005
  -4.4099999999999986E-002    -5.3402603953145444E-005
  -4.2999999999999997E-002    -6.0669695812975988E-005
  -4.1899999999999993E-002    -6.8749170168302953E-005
  -4.0799999999999989E-002    -7.7678771049249917E-005
  -3.9699999999999985E-002    -8.7438995251432061E-005
  -3.8599999999999995E-002    -9.8054748377762735E-005
  -3.7499999999999992E-002    -1.0961816587951034E-004
  -3.6399999999999988E-002    -1.2218939082231373E-004
  -3.5299999999999984E-002    -1.3572994794230908E-004
  -3.4199999999999994E-002    -1.5017815167084336E-004
  -3.3099999999999991E-002    -1.6554999456275254E-004
  -3.1999999999999987E-002    -1.8190126866102219E-004
  -3.0899999999999997E-002    -1.9920030899811536E-004
  -2.9799999999999993E-002    -2.1730408479925245E-004
  -2.8699999999999989E-002    -2.3608269111718982E-004
  -2.7599999999999986E-002    -2.5549551355652511E-004
  -2.6499999999999996E-002    -2.7550020604394376E-004
  -2.5399999999999992E-002    -2.9592114151455462E-004
  -2.4299999999999988E-002    -3.1648436561226845E-004
  -2.3199999999999985E-002    -3.3696260652504861E-004
  -2.2099999999999995E-002    -3.5721409949474037E-004
  -2.0999999999999991E-002    -3.7705575232394040E-004
  -1.9899999999999987E-002    -3.9616279536858201E-004
  -1.8799999999999983E-002    -4.1414322913624346E-004
  -1.7699999999999994E-002    -4.3067467049695551E-004
  -1.6599999999999990E-002    -4.4549602898769081E-004
  -1.5499999999999986E-002    -4.5828209840692580E-004
  -1.4399999999999996E-002    -4.6860115253366530E-004
  -1.3299999999999992E-002    -4.7602527774870396E-004
  -1.2199999999999989E-002    -4.8021960537880659E-004
  -1.1099999999999985E-002    -4.8088069888763130E-004
  -9.9999999999999950E-003    -4.7762310714460909E-004
  -8.8999999999999913E-003    -4.7001699567772448E-004
  -7.7999999999999875E-003    -4.5772257726639509E-004
  -6.6999999999999837E-003    -4.4053606688976288E-004
  -5.5999999999999939E-003    -4.1826991946436465E-004
  -4.4999999999999901E-003    -3.9066310273483396E-004
  -3.3999999999999864E-003    -3.5747786751016974E-004
  -2.2999999999999826E-003    -3.1863368349149823E-004
  -1.1999999999999927E-003    -2.7419894468039274E-004
  -9.9999999999988987E-005    -2.2426793293561786E-004
   1.0000000000000148E-003    -1.6890652477741241E-004
   2.1000000000000185E-003    -1.0826219659065828E-004
   3.2000000000000084E-003    -4.2665316868806258E-005
   4.3000000000000121E-003     2.7421894628787413E-005
   5.4000000000000159E-003     1.0153164475923404E-004
   6.5000000000000058E-003     1.7919547099154443E-004
   7.6000000000000234E-003     2.5981813087128103E-004
   8.7000000000000133E-003     3.4262947156094015E-004
   9.8000000000000032E-003     4.2678759200498462E-004
   1.0900000000000021E-002     5.1148945931345224E-004
   1.2000000000000011E-002     5.9593759942799807E-004
   1.3100000000000001E-002     6.7922694142907858E-004
   1.4200000000000018E-002     7.6034193625673652E-004
   1.5300000000000008E-002     8.3828670904040337E-004
   1.6400000000000026E-002     9.1215193970128894E-004
   1.7500000000000016E-002     9.8105543293058872E-004
   1.8600000000000005E-002     1.0440737241879106E-003
   1.9700000000000023E-002     1.1002949904650450E-003
   2.0800000000000013E-002     1.1489298194646835E-003
   2.1900000000000003E-002     1.1893283808603883E-003
   2.3000000000000020E-002     1.2208907864987850E-003
   2.4100000000000010E-002     1.2430382193997502E-003
   2.5200000000000000E-002     1.2553032720461488E-003
   2.6300000000000018E-002     1.2574228458106518E-003
   2.7400000000000008E-002     1.2493046233430505E-003
   2.8500000000000025E-002     1.2309360317885876E-003
   2.9600000000000015E-002     1.2023713206872344E-003
   3.0700000000000005E-002     1.1637994321063161E-003
   3.1800000000000023E-002     1.1156109394505620E-003
   3.2900000000000013E-002     1.0583404218778014E-003
   3.4000000000000002E-002     9.9259999115020037E-004
   3.5100000000000020E-002     9.1908115427941084E-004
   3.6200000000000010E-002     8.3860615268349648E-004
   3.7300000000000028E-002     7.5210700742900372E-004
   3.8400000000000017E-002     6.6056707873940468E-004
   3.9500000000000007E-002     5.6498171761631966E-004
   4.0600000000000025E-002     4.6639278298243880E-004
   4.1700000000000015E-002     3.6591224488802254E-004
   4.2800000000000005E-002     2.6468318537808955E-004
   4.3900000000000022E-002     1.6379801672883332E-004
   4.5000000000000012E-002     6.4272542658727616E-005
   4.6100000000000002E-002    -3.2908443245105445E-005
   4.7200000000000020E-002    -1.2678666098508984E-004
   4.8300000000000010E-002    -2.1645400556735694E-004
   4.9400000000000027E-002    -3.0110037187114358E-004
   5.0500000000000017E-002    -3.8002035580575466E-004
   5.1600000000000007E-002    -4.5260752085596323E-004
   5.2700000000000025E-002    -5.1836582133546472E-004
   5.3800000000000014E-002    -5.7690846733748913E-004
   5.4900000000000004E-002    -6.2795239500701427E-004
   5.6000000000000022E-002    -6.7130953539162874E-004
   5.7100000000000012E-002    -7.0689735002815723E-004
   5.8200000000000002E-002    -7.3474971577525139E-004
   5.9300000000000019E-002    -7.5500132516026497E-004
   6.0400000000000009E-002    -7.6787424040958285E-004
   6.1500000000000027E-002    -7.7367498306557536E-004
   6.2600000000000017E-002    -7.7278615208342671E-004
   6.3700000000000007E-002    -7.6564750634133816E-004
   6.4800000000000024E-002    -7.5273110996931791E-004
   6.5900000000000014E-002    -7.3454243829473853E-004
   6.7000000000000004E-002    -7.1164232213050127E-004
   6.8100000000000022E-002    -6.8464170908555388E-004
   6.9200000000000012E-002    -6.5415457356721163E-004
   7.0300000000000029E-002    -6.2075437745079398E-004
   7.1400000000000019E-002    -5.8498821454122663E-004
   7.2500000000000009E-002    -5.4741982603445649E-004
   7.3600000000000027E-002    -5.0862238276749849E-004
   7.4700000000000016E-002    -4.6912048128433526E-004
   7.5800000000000006E-002    -4.2936269892379642E-004
   7.6900000000000024E-002    -3.8976431824266911E-004
   7.8000000000000014E-002    -3.5074879997409880E-004
   7.9100000000000004E-002    -3.1270631006918848E-004
   8.0200000000000021E-002    -2.7592745027504861E-004
   8.1300000000000011E-002    -2.4061587464530021E-004
   8.2400000000000029E-002    -2.0697194850072265E-004
   8.3500000000000019E-002    -1.7522742564324290E-004
   8.4600000000000009E-002    -1.4556240057572722E-004
   8.5700000000000026E-002    -1.1803575034718961E-004
   8.6800000000000016E-002    -9.2634058091789484E-005
   8.7900000000000006E-002    -6.9374691520351917E-005
   8.9000000000000024E-002    -4.8314828745787963E-005
   9.0100000000000013E-002    -2.9446631742757745E-005
   9.1200000000000003E-002    -1.2660145330301020E-005
   9.2300000000000021E-002     2.1710188775614370E-006
   9.3400000000000011E-002     1.5100438758963719E-005
   9.4500000000000028E-002     2.6164290829910897E-005
   9.5600000000000018E-002     3.5492019378580153E-005
   9.6700000000000008E-002     4.3293839553371072E-005
   9.7800000000000026E-002     4.9725636927178130E-005
   9.8900000000000016E-002     5.4832064051879570E-005
  0.10000000000000001          5.8663074014475569E-005
  0.10110000000000002          6.1387261666823179E-005
  0.10220000000000001          6.3227249484043568E-005
  0.10330000000000003          6.4308842411264777E-005
  0.10440000000000002          6.4648193074390292E-005
  0.10550000000000001          6.4296487835235894E-005
  0.10660000000000003          6.3418214267585427E-005
  0.10770000000000002          6.2178849475458264E-005
  0.10880000000000001          6.0619302530540153E-005
  0.10990000000000003          5.8715409977594391E-005
  0.11100000000000002          5.6533837778260931E-005
  0.11210000000000001          5.4236497817328200E-005
  0.11320000000000002          5.1919683755841106E-005
  0.11430000000000001          4.9535843572812155E-005
  0.11540000000000003          4.7028526751091704E-005
  0.11650000000000002          4.4476277253124863E-005
  0.11760000000000001          4.2026498704217374E-005
  0.11870000000000003          3.9713864680379629E-005
  0.11980000000000002          3.7441179301822558E-005
  0.12090000000000001          3.5153614589944482E-005
  0.12200000000000003          3.2940421078819782E-005
  0.12310000000000001          3.0909392080502585E-005
  0.12420000000000003          2.9029830329818651E-005
  0.12530000000000002          2.7188478270545602E-005
  0.12640000000000001          2.5372704840265214E-005
  0.12750000000000003          2.3695503841736354E-005
  0.12860000000000002          2.2219508537091315E-005
  0.12970000000000001          2.0853243768215179E-005
  0.13080000000000003          1.9483748474158347E-005
  0.13190000000000002          1.8145958165405318E-005
  0.13300000000000001          1.6965974282356910E-005
  0.13410000000000000          1.5963236364768818E-005
  0.13520000000000004          1.5013628399174195E-005
  0.13630000000000003          1.4031909813638777E-005
  0.13740000000000002          1.3092221706756391E-005
  0.13850000000000001          1.2304421034059487E-005
  0.13960000000000000          1.1638107025646605E-005
  0.14070000000000005          1.0965394722006749E-005
  0.14180000000000004          1.0254783774144016E-005
  0.14290000000000003          9.6144813142018393E-006
  0.14400000000000002          9.1177753347437829E-006
  0.14510000000000001          8.6817890405654907E-006
  0.14620000000000000          8.1888474596780725E-006
  0.14730000000000004          7.6638689279207028E-006
  0.14840000000000003          7.2328348323935643E-006
  0.14950000000000002          6.9258130679372698E-006
  0.15060000000000001          6.6264301494811662E-006
  0.15170000000000000          6.2465896917274222E-006
  0.15280000000000005          5.8574341892381199E-006
  0.15390000000000004          5.5764530770829879E-006
  0.15500000000000003          5.3855746955377981E-006
  0.15610000000000002          5.1589317990874406E-006
  0.15720000000000001          4.8547144615440629E-006
  0.15830000000000000          4.5750216486339923E-006
  0.15940000000000004          4.4046610128134489E-006
  0.16050000000000003          4.2792726162588224E-006
  0.16160000000000002          4.0850381992640905E-006
  0.16270000000000001          3.8327498259604909E-006
  0.16380000000000000          3.6379190078150714E-006
  0.16490000000000005          3.5407190352998441E-006
  0.16600000000000004          3.4447766665834934E-006
  0.16710000000000003          3.2669984193489654E-006
  0.16820000000000002          3.0645053357147845E-006
  0.16930000000000001          2.9440482194331707E-006
  0.17040000000000000          2.8960362215002533E-006
  0.17150000000000004          2.8095987545384560E-006
  0.17260000000000003          2.6426325803186046E-006
  0.17370000000000002          2.4847736312949564E-006
  0.17480000000000001          2.4182681954698637E-006
  0.17590000000000000          2.3926870653667720E-006
  0.17700000000000005          2.3042839529807679E-006
  0.17810000000000004          2.1540445231948979E-006
  0.17920000000000003          2.0428874449862633E-006
  0.18030000000000002          2.0154047888354398E-006
  0.18140000000000001          1.9941285245295148E-006
  0.18250000000000000          1.9005600506716291E-006
  0.18360000000000004          1.7739514532877365E-006
  0.18470000000000003          1.7072242144422489E-006
  0.18580000000000002          1.7038274791048025E-006
  0.18690000000000001          1.6754776197558385E-006
  0.18800000000000000          1.5789771623531124E-006
  0.18910000000000005          1.4792566389587591E-006
  0.19020000000000004          1.4461954833677737E-006
  0.19130000000000003          1.4485101473837858E-006
  0.19240000000000002          1.4058622355150874E-006
  0.19350000000000001          1.3133003449183889E-006
  0.19460000000000005          1.2457074944904889E-006
  0.19570000000000004          1.2398776334521244E-006
  0.19680000000000003          1.2390199799483526E-006
  0.19790000000000002          1.1825070487248013E-006
  0.19900000000000001          1.0988608210027451E-006
  0.20010000000000000          1.0600364248603000E-006
  0.20120000000000005          1.0708477020671126E-006
  0.20230000000000004          1.0629511280058068E-006
  0.20340000000000003          9.9926899110869272E-007
  0.20450000000000002          9.2769954562754720E-007
  0.20560000000000000          9.0663604623841820E-007
  0.20670000000000005          9.1923504896840313E-007
  0.20780000000000004          9.0407581865292741E-007
  0.20890000000000003          8.4839058445140836E-007
