 -0.12000000000000000          0.0000000000000000
 -0.11889999999999999          0.0000000000000000
 -0.11780000000000000          0.0000000000000000
 -0.11670000000000000          0.0000000000000000
 -0.11559999999999999          0.0000000000000000
 -0.11449999999999999          0.0000000000000000
 -0.11340000000000000          0.0000000000000000
 -0.11230000000000000          4.5173334915543855E-021
 -0.11119999999999999         -2.1335217507987356E-021
 -0.11009999999999999         -5.0255093159369238E-020
 -0.10900000000000000          6.3247356507830386E-021
 -0.10790000000000000          3.2296866351523760E-019
 -0.10679999999999999          1.0674545438911759E-019
 -0.10569999999999999         -1.4623046727246917E-018
 -0.10460000000000000         -1.2596291892296786E-018
 -0.10349999999999999          4.7662452952132099E-018
 -0.10239999999999999          7.2483702952041428E-018
 -0.10130000000000000         -1.0592413357572268E-017
 -0.10020000000000000         -2.7792534045397783E-017
  -9.9099999999999994E-002     1.2570429676855009E-017
  -9.7999999999999990E-002     7.9820454186974412E-017
  -9.6899999999999986E-002     1.2145893289532581E-017
  -9.5799999999999996E-002    -1.8955652388419461E-016
  -9.4699999999999993E-002    -1.2844021153382026E-016
  -9.3599999999999989E-002     3.9215269647489555E-016
  -9.2499999999999999E-002     5.3948957778724880E-016
  -9.1399999999999995E-002    -6.0574322437205929E-016
  -9.0299999999999991E-002    -1.6980234441964096E-015
  -8.9200000000000002E-002     1.2997053537171276E-016
  -8.8099999999999984E-002     3.8443733805615214E-015
  -8.6999999999999994E-002     2.7951615038523817E-015
  -8.5899999999999990E-002    -5.4412934898660000E-015
  -8.4799999999999986E-002    -9.5917477316320200E-015
  -8.3699999999999997E-002     2.5227923421903675E-015
  -8.2599999999999993E-002     1.8417181367751286E-014
  -8.1499999999999989E-002     8.2132532789854287E-015
  -8.0399999999999999E-002    -2.5318133277819205E-014
  -7.9299999999999995E-002    -2.8646847399652411E-014
  -7.8199999999999992E-002     2.6885403422321520E-014
  -7.7100000000000002E-002     6.7104504732854592E-014
  -7.5999999999999984E-002    -4.8577093885479421E-015
  -7.4899999999999994E-002    -1.2584730349832207E-013
  -7.3799999999999991E-002    -8.8558866728587204E-014
  -7.2699999999999987E-002     1.4607451804139054E-013
  -7.1599999999999997E-002     2.6607240174135460E-013
  -7.0499999999999993E-002    -1.4646061937567158E-014
  -6.9399999999999989E-002    -4.1285182737771375E-013
  -6.8300000000000000E-002    -2.8991471224572296E-013
  -6.7199999999999996E-002     3.7689420811712337E-013
  -6.6099999999999992E-002     6.6022832817189125E-013
  -6.5000000000000002E-002    -1.0487629238361065E-013
  -6.3899999999999985E-002    -1.0222468488016445E-012
  -6.2799999999999995E-002    -5.2546741914280548E-013
  -6.1699999999999991E-002     1.1612622755757807E-012
  -6.0599999999999994E-002     1.6429044539731374E-012
  -5.9499999999999990E-002    -4.3080418247500030E-013
  -5.8399999999999994E-002    -2.6582672695008025E-012
  -5.7299999999999990E-002    -1.4798652754610675E-012
  -5.6199999999999986E-002     2.3741798457765917E-012
  -5.5099999999999996E-002     3.6569909427075498E-012
  -5.3999999999999992E-002    -3.4669578948161306E-013
  -5.2899999999999989E-002    -4.7691733374988221E-012
  -5.1799999999999985E-002    -2.8353883910897659E-012
  -5.0699999999999995E-002     3.9462586844118963E-012
  -4.9599999999999991E-002     6.1617841905226012E-012
  -4.8499999999999988E-002    -6.3211735108412159E-013
  -4.7399999999999998E-002    -7.9608515959894710E-012
  -4.6299999999999994E-002    -4.8449391200355851E-012
  -4.5199999999999990E-002     5.9952849976174782E-012
  -4.4099999999999986E-002     1.0003430375715716E-011
  -4.2999999999999997E-002     7.0884736882298460E-013
  -4.1899999999999993E-002    -9.9523488408803651E-012
  -4.0799999999999989E-002    -7.5309827818337283E-012
  -3.9699999999999985E-002     4.1719969492981512E-012
  -3.8599999999999995E-002     8.2179263394266400E-012
  -3.7499999999999992E-002    -6.3618684972843731E-013
  -3.6399999999999988E-002    -8.0510433389524572E-012
  -3.5299999999999984E-002    -1.8640540500047820E-012
  -3.4199999999999994E-002     9.1509144012347221E-012
  -3.3099999999999991E-002     8.9054917953856894E-012
  -3.1999999999999987E-002    -8.5697226225034395E-013
  -3.0899999999999997E-002    -4.3739066188375197E-012
  -2.9799999999999993E-002     6.2586822660234964E-013
  -2.8699999999999989E-002    -1.9755590392744882E-012
  -2.7599999999999986E-002    -1.6762572233042228E-011
  -2.6499999999999996E-002    -2.0915059614767806E-011
  -2.5399999999999992E-002     2.9936372391431432E-012
  -2.4299999999999988E-002     3.0773061182598482E-011
  -2.3199999999999985E-002     2.1650204198864209E-011
  -2.2099999999999995E-002    -1.9671904730178547E-011
  -2.0999999999999991E-002    -3.8418952047480914E-011
  -1.9899999999999987E-002    -5.0696547654327517E-012
  -1.8799999999999983E-002     3.2673162786434062E-011
  -1.7699999999999994E-002     9.1698966128705983E-012
  -1.6599999999999990E-002    -5.9848806466256121E-011
  -1.5499999999999986E-002    -8.4297735458704892E-011
  -1.4399999999999996E-002    -1.9526772560007899E-011
  -1.3299999999999992E-002     6.4592393933526893E-011
  -1.2199999999999989E-002     6.8628172589235703E-011
  -1.1099999999999985E-002    -7.4422343288027548E-012
  -9.9999999999999950E-003    -7.1732703110782836E-011
  -8.8999999999999913E-003    -6.8137578912441654E-011
  -7.7999999999999875E-003    -4.2644988235140957E-011
  -6.6999999999999837E-003    -6.0994896633470574E-011
  -5.5999999999999939E-003    -1.1023234408602534E-010
  -4.4999999999999901E-003    -1.3042837643251204E-010
  -3.3999999999999864E-003    -1.1116352283124797E-010
  -2.2999999999999826E-003    -9.0995086465817110E-011
  -1.1999999999999927E-003    -8.0088921605714347E-011
  -9.9999999999988987E-005    -4.8979976324803332E-011
   1.0000000000000148E-003    -2.2864174095693635E-011
   2.1000000000000185E-003    -9.6922747605532322E-011
   3.2000000000000084E-003    -3.0069874368265914E-010
   4.3000000000000121E-003    -4.9913817523616899E-010
   5.4000000000000159E-003    -5.2096799096901236E-010
   6.5000000000000058E-003    -3.9101186177781244E-010
   7.6000000000000234E-003    -3.2923383463945299E-010
   8.7000000000000133E-003    -4.5424913830416358E-010
   9.8000000000000032E-003    -6.1712129850732822E-010
   1.0900000000000021E-002    -6.1388122363226216E-010
   1.2000000000000011E-002    -4.7004539149853031E-010
   1.3100000000000001E-002    -4.5185696850857937E-010
   1.4200000000000018E-002    -7.3125266952800416E-010
   1.5300000000000008E-002    -1.1557523826866145E-009
   1.6400000000000026E-002    -1.4735812570165763E-009
   1.7500000000000016E-002    -1.5715493351109444E-009
   1.8600000000000005E-002    -1.5522777507825936E-009
   1.9700000000000023E-002    -1.5510187578726686E-009
   2.0800000000000013E-002    -1.5894043858821760E-009
   2.1900000000000003E-002    -1.6428373106336380E-009
   2.3000000000000020E-002    -1.7289935039244142E-009
   2.4100000000000010E-002    -1.9261818806626252E-009
   2.5200000000000000E-002    -2.1301411745611176E-009
   2.6300000000000018E-002    -2.2640154195840978E-009
   2.7400000000000008E-002    -2.4569710710409254E-009
   2.8500000000000025E-002    -2.9182773975122700E-009
   2.9600000000000015E-002    -3.3865370507868420E-009
   3.0700000000000005E-002    -3.4767280165937109E-009
   3.1800000000000023E-002    -3.2039426667296311E-009
   3.2900000000000013E-002    -2.9863282957620640E-009
   3.4000000000000002E-002    -2.9222555486541069E-009
   3.5100000000000020E-002    -3.0134750250709885E-009
   3.6200000000000010E-002    -2.9835063308780718E-009
   3.7300000000000028E-002    -2.8322670875269296E-009
   3.8400000000000017E-002    -2.7156037418762935E-009
   3.9500000000000007E-002    -2.7152522452666972E-009
   4.0600000000000025E-002    -2.7806872360258694E-009
   4.1700000000000015E-002    -2.6717805745590795E-009
   4.2800000000000005E-002    -2.2612787198283968E-009
   4.3900000000000022E-002    -1.6761039223212038E-009
   4.5000000000000012E-002    -1.0814348305743238E-009
   4.6100000000000002E-002    -4.6460382763235941E-010
   4.7200000000000020E-002     1.3518952624025360E-010
   4.8300000000000010E-002     7.4246192527382959E-010
   4.9400000000000027E-002     2.1433377295210221E-009
   5.0500000000000017E-002     3.3340676885984522E-009
   5.1600000000000007E-002     3.7366651994830136E-009
   5.2700000000000025E-002     4.2512642295378100E-009
   5.3800000000000014E-002     4.4749386418629911E-009
   5.4900000000000004E-002     6.1519322969161294E-009
   5.6000000000000022E-002     7.3957640012167758E-009
   5.7100000000000012E-002     9.0844007871737631E-009
   5.8200000000000002E-002     1.0110470682889172E-008
   5.9300000000000019E-002     9.7845127555729050E-009
   6.0400000000000009E-002     9.3057428429688116E-009
   6.1500000000000027E-002     1.1084551942985854E-008
   6.2600000000000017E-002     1.4559733862995472E-008
   6.3700000000000007E-002     1.5562264366053569E-008
   6.4800000000000024E-002     1.3668673304323420E-008
   6.5900000000000014E-002     1.2459630660544008E-008
   6.7000000000000004E-002     1.3823585831573837E-008
   6.8100000000000022E-002     1.4786834867663856E-008
   6.9200000000000012E-002     1.3693858491592437E-008
   7.0300000000000029E-002     1.3719208880047518E-008
   7.1400000000000019E-002     1.5630034155833528E-008
   7.2500000000000009E-002     1.4885763732763735E-008
   7.3600000000000027E-002     1.0410806439153930E-008
   7.4700000000000016E-002     6.3088756441231908E-009
   7.5800000000000006E-002     8.1410149732619175E-009
   7.6900000000000024E-002     1.2627079826188492E-008
   7.8000000000000014E-002     1.2497334722638698E-008
   7.9100000000000004E-002     3.8313214822949249E-009
   8.0200000000000021E-002    -5.2298236852266200E-009
   8.1300000000000011E-002    -5.3358673035575066E-009
   8.2400000000000029E-002     2.0036010628388112E-009
   8.3500000000000019E-002     4.8616319858751922E-009
   8.4600000000000009E-002    -1.7307902888674676E-009
   8.5700000000000026E-002    -1.1660707066596387E-008
   8.6800000000000016E-002    -1.6095324184561832E-008
   8.7900000000000006E-002    -1.4286717586742270E-008
   8.9000000000000024E-002    -1.1648890740900697E-008
   9.0100000000000013E-002    -1.1683852996213773E-008
   9.1200000000000003E-002    -1.3914536189929549E-008
   9.2300000000000021E-002    -1.7511338157305545E-008
   9.3400000000000011E-002    -2.2438962687942876E-008
   9.4500000000000028E-002    -2.6763469662682837E-008
   9.5600000000000018E-002    -2.5174198725608221E-008
   9.6700000000000008E-002    -1.6480150577535824E-008
   9.7800000000000026E-002    -1.0236267833363399E-008
   9.8900000000000016E-002    -1.4267982351157116E-008
  0.10000000000000001         -2.6085499982286819E-008
  0.10110000000000002         -3.2922944370739060E-008
  0.10220000000000001         -2.4553415300943016E-008
  0.10330000000000003         -9.1012841707538428E-009
  0.10440000000000002         -4.3514765124541555E-009
  0.10550000000000001         -1.3152894773327262E-008
  0.10660000000000003         -2.1943312944472382E-008
  0.10770000000000002         -1.9619456281816383E-008
  0.10880000000000001         -7.6299002671476046E-009
  0.10990000000000003         -3.9685435493375110E-010
  0.11100000000000002          1.8756300679267923E-010
  0.11210000000000001         -9.0905283300912743E-010
  0.11320000000000002          8.0246714828646759E-010
  0.11430000000000001          7.3965633617945059E-010
  0.11540000000000003         -4.1893435387407862E-009
  0.11650000000000002         -2.9715307992006501E-009
  0.11760000000000001          9.1687093473069581E-009
  0.11870000000000003          2.0917322984814746E-008
  0.11980000000000002          1.8491801867526192E-008
  0.12090000000000001          3.1380908982470146E-009
  0.12200000000000003         -4.7604578057303115E-009
  0.12310000000000001          6.5539622617905025E-009
  0.12420000000000003          2.2926796461320009E-008
  0.12530000000000002          2.4750010041429960E-008
  0.12640000000000001          1.3642588392315247E-008
  0.12750000000000003          6.1696030506652733E-009
  0.12860000000000002          9.5150509693553431E-009
  0.12970000000000001          1.3362338791012007E-008
  0.13080000000000003          8.6918179320605304E-009
  0.13190000000000002          5.3991282555898579E-009
  0.13300000000000001          1.3450343949727994E-008
  0.13410000000000000          2.1977962560981723E-008
  0.13520000000000004          1.3716345392822404E-008
  0.13630000000000003         -6.6357146444318005E-009
  0.13740000000000002         -1.3130477150014030E-008
  0.13850000000000001          5.9649254424698483E-009
  0.13960000000000000          2.8262594042871569E-008
  0.14070000000000005          2.4909606821665875E-008
  0.14180000000000004         -9.8087615807429529E-010
  0.14290000000000003         -1.9400243189693356E-008
  0.14400000000000002         -1.2781624647573153E-008
  0.14510000000000001          4.1830992003610845E-009
  0.14620000000000000          1.0216371748583697E-008
  0.14730000000000004          4.3649621694896723E-009
  0.14840000000000003         -4.5725817576780514E-010
  0.14950000000000002         -7.0712552480145519E-010
  0.15060000000000001         -5.0593094158557506E-009
  0.15170000000000000         -1.2508577285075262E-008
  0.15280000000000005         -9.1018037551293673E-009
  0.15390000000000004          8.0303079741383954E-009
  0.15500000000000003          1.8559283887498168E-008
  0.15610000000000002          3.5725755687110450E-009
  0.15720000000000001         -2.3325885223357545E-008
  0.15830000000000000         -2.8728132761557390E-008
  0.15940000000000004         -3.7485516912738603E-009
  0.16050000000000003          2.1466052047003359E-008
  0.16160000000000002          1.7654993911264683E-008
  0.16270000000000001         -6.7850556284554386E-009
  0.16380000000000000         -2.1109949344122469E-008
  0.16490000000000005         -1.2497365808883387E-008
  0.16600000000000004          1.5549379561718979E-009
  0.16710000000000003          4.1704231179551243E-009
  0.16820000000000002          5.0272241924886885E-010
  0.16930000000000001          2.1671249239574308E-009
  0.17040000000000000          4.6890544780353594E-009
  0.17150000000000004         -3.2655222970134901E-009
  0.17260000000000003         -1.5204468795104731E-008
  0.17370000000000002         -1.1522238274608299E-008
  0.17480000000000001          8.9098000088938534E-009
  0.17590000000000000          2.0792601418406775E-008
  0.17700000000000005          5.9579772226925343E-009
  0.17810000000000004         -1.8407257940111776E-008
  0.17920000000000003         -2.0625112284733405E-008
  0.18030000000000002          1.6118577583768001E-009
  0.18140000000000001          1.8979566362986589E-008
  0.18250000000000000          1.0767195135485963E-008
  0.18360000000000004         -7.8021455962584696E-009
  0.18470000000000003         -1.1152186729646019E-008
  0.18580000000000002          3.7814099074218177E-010
  0.18690000000000001          5.9137263974662346E-009
  0.18800000000000000         -1.4855083829701243E-009
  0.18910000000000005         -5.5639102214399827E-009
  0.19020000000000004          3.8219822862117780E-009
  0.19130000000000003          1.2232852064641975E-008
  0.19240000000000002          3.0204492240670788E-009
  0.19350000000000001         -1.3320767600077943E-008
  0.19460000000000005         -1.2672021654225318E-008
  0.19570000000000004          5.9894285087125354E-009
  0.19680000000000003          1.6817882197983636E-008
  0.19790000000000002          4.2541268285845035E-009
  0.19900000000000001         -1.3735491855015880E-008
  0.20010000000000000         -1.1677290245870608E-008
  0.20120000000000005          6.2140950163325215E-009
  0.20230000000000004          1.3567094114819156E-008
  0.20340000000000003          1.3396957987410474E-009
  0.20450000000000002         -1.0154749929824902E-008
  0.20560000000000000         -3.8702956395297861E-009
  0.20670000000000005          8.4688966950352551E-009
  0.20780000000000004          5.8825144755303427E-009
  0.20890000000000003         -8.0539122038203459E-009
