 -0.12000000000000000          0.0000000000000000
 -0.11889999999999999          0.0000000000000000
 -0.11780000000000000          0.0000000000000000
 -0.11670000000000000          0.0000000000000000
 -0.11559999999999999          0.0000000000000000
 -0.11449999999999999          0.0000000000000000
 -0.11340000000000000          0.0000000000000000
 -0.11230000000000000          0.0000000000000000
 -0.11119999999999999         -4.1322777735891047E-023
 -0.11009999999999999          2.1174046535510227E-022
 -0.10900000000000000          3.3840628318462969E-022
 -0.10790000000000000         -3.1919964817367598E-021
 -0.10679999999999999         -2.4595755071931119E-021
 -0.10569999999999999          2.7823376663608953E-020
 -0.10460000000000000          2.6122043858172103E-020
 -0.10349999999999999         -1.7167835053035746E-019
 -0.10239999999999999         -2.5715566658928692E-019
 -0.10130000000000000          7.4125469318345598E-019
 -0.10020000000000000          1.8589523555021647E-018
  -9.9099999999999994E-002    -1.7697977951054337E-018
  -9.7999999999999990E-002    -9.5481309214485725E-018
  -9.6899999999999986E-002    -2.3307739021557272E-018
  -9.5799999999999996E-002     3.3285158896537696E-017
  -9.4699999999999993E-002     4.3579166848131459E-017
  -9.3599999999999989E-002    -6.3014215400150722E-017
  -9.2499999999999999E-002    -2.0800597350146714E-016
  -9.1399999999999995E-002    -5.0404118277020733E-017
  -9.0299999999999991E-002     5.3073035714013288E-016
  -8.9200000000000002E-002     7.6570603173574435E-016
  -8.8099999999999984E-002    -4.3524192424621185E-016
  -8.6999999999999994E-002    -2.3900199277082559E-015
  -8.5899999999999990E-002    -1.9493904239312534E-015
  -8.4799999999999986E-002     2.7732853956818817E-015
  -8.3699999999999997E-002     7.5284830453048457E-015
  -8.2599999999999993E-002     4.3198316085801998E-015
  -8.1499999999999989E-002    -7.9972751240286327E-015
  -8.0399999999999999E-002    -1.8157062631847173E-014
  -7.9299999999999995E-002    -1.3027934240845800E-014
  -7.8199999999999992E-002     7.5586043839421559E-015
  -7.7100000000000002E-002     3.2724206509718648E-014
  -7.5999999999999984E-002     5.1969760688896222E-014
  -7.4899999999999994E-002     4.7131721946482366E-014
  -7.3799999999999991E-002    -2.2096062298111209E-014
  -7.2699999999999987E-002    -1.7327813988353424E-013
  -7.1599999999999997E-002    -2.9815145036020396E-013
  -7.0499999999999993E-002    -1.6148361944509637E-013
  -6.9399999999999989E-002     3.5283909583135042E-013
  -6.8300000000000000E-002     9.3191112379015228E-013
  -6.7199999999999996E-002     9.1752072519518668E-013
  -6.6099999999999992E-002    -7.2037563631291435E-014
  -6.5000000000000002E-002    -1.5639362634795040E-012
  -6.3899999999999985E-002    -2.4554789625208517E-012
  -6.2799999999999995E-002    -1.9365470598636803E-012
  -6.1699999999999991E-002    -9.0352584355274379E-014
  -6.0599999999999994E-002     2.4414136077371973E-012
  -5.9499999999999990E-002     4.9988116944399419E-012
  -5.8399999999999994E-002     6.6478697546834553E-012
  -5.7299999999999990E-002     5.6404859082037628E-012
  -5.6199999999999986E-002     1.9965440704785425E-013
  -5.5099999999999996E-002    -9.2706953225274447E-012
  -5.3999999999999992E-002    -1.8935304713085799E-011
  -5.2899999999999989E-002    -2.3220611197749541E-011
  -5.1799999999999985E-002    -1.7981453132032144E-011
  -5.0699999999999995E-002    -1.9797722489167668E-012
  -4.9599999999999991E-002     2.3476776078723560E-011
  -4.8499999999999988E-002     5.3602216415482573E-011
  -4.7399999999999998E-002     7.7266054665514616E-011
  -4.6299999999999994E-002     7.7324008307400049E-011
  -4.5199999999999990E-002     3.8913341299240400E-011
  -4.4099999999999986E-002    -3.8352862552493150E-011
  -4.2999999999999997E-002    -1.3492906791867654E-010
  -4.1899999999999993E-002    -2.1769219760159331E-010
  -4.0799999999999989E-002    -2.5185548091499754E-010
  -3.9699999999999985E-002    -2.1002594108310291E-010
  -3.8599999999999995E-002    -7.8454708007935636E-011
  -3.7499999999999992E-002     1.3511959606749002E-010
  -3.6399999999999988E-002     3.9504644000487588E-010
  -3.5299999999999984E-002     6.4197430704737712E-010
  -3.4199999999999994E-002     8.0890183440374130E-010
  -3.3099999999999991E-002     8.3885060009336598E-010
  -3.1999999999999987E-002     6.9849531714183399E-010
  -3.0899999999999997E-002     3.9552441877255262E-010
  -2.9799999999999993E-002     1.6678890256763279E-012
  -2.8699999999999989E-002    -3.4263264447886854E-010
  -2.7599999999999986E-002    -4.7086623489178692E-010
  -2.6499999999999996E-002    -2.6797855601223830E-010
  -2.5399999999999992E-002     2.7370439248386447E-010
  -2.4299999999999988E-002     1.0588584453685712E-009
  -2.3199999999999985E-002     1.9248171945207559E-009
  -2.2099999999999995E-002     2.6511199902046201E-009
  -2.0999999999999991E-002     2.9409588098161521E-009
  -1.9899999999999987E-002     2.4368134177166212E-009
  -1.8799999999999983E-002     8.0753598252769621E-010
  -1.7699999999999994E-002    -2.1462605026556503E-009
  -1.6599999999999990E-002    -6.4552390099947843E-009
  -1.5499999999999986E-002    -1.2028809948105845E-008
  -1.4399999999999996E-002    -1.8728556483438297E-008
  -1.3299999999999992E-002    -2.6424283205983556E-008
  -1.2199999999999989E-002    -3.5052817537462033E-008
  -1.1099999999999985E-002    -4.4698207801729950E-008
  -9.9999999999999950E-003    -5.5653227803986738E-008
  -8.8999999999999913E-003    -6.8428114730068046E-008
  -7.7999999999999875E-003    -8.3746499512926675E-008
  -6.6999999999999837E-003    -1.0258033711352255E-007
  -5.5999999999999939E-003    -1.2618791345175850E-007
  -4.4999999999999901E-003    -1.5604409497882443E-007
  -3.3999999999999864E-003    -1.9367877257536747E-007
  -2.2999999999999826E-003    -2.4060514647317177E-007
  -1.1999999999999927E-003    -2.9845264748473710E-007
  -9.9999999999988987E-005    -3.6916640056006145E-007
   1.0000000000000148E-003    -4.5503591650231101E-007
   2.1000000000000185E-003    -5.5858464520497364E-007
   3.2000000000000084E-003    -6.8262073682490154E-007
   4.3000000000000121E-003    -8.3058915834044456E-007
   5.4000000000000159E-003    -1.0069551308333757E-006
   6.5000000000000058E-003    -1.2172100696261623E-006
   7.6000000000000234E-003    -1.4676008959213505E-006
   8.7000000000000133E-003    -1.7648882248977316E-006
   9.8000000000000032E-003    -2.1164908048376674E-006
   1.0900000000000021E-002    -2.5307913347205613E-006
   1.2000000000000011E-002    -3.0172418519214261E-006
   1.3100000000000001E-002    -3.5862319691659650E-006
   1.4200000000000018E-002    -4.2490100895520300E-006
   1.5300000000000008E-002    -5.0178628043795470E-006
   1.6400000000000026E-002    -5.9063850130769424E-006
   1.7500000000000016E-002    -6.9297025220294017E-006
   1.8600000000000005E-002    -8.1046891864389181E-006
   1.9700000000000023E-002    -9.4501046987716109E-006
   2.0800000000000013E-002    -1.0986280358338263E-005
   2.1900000000000003E-002    -1.2734197298414074E-005
   2.3000000000000020E-002    -1.4714918506797403E-005
   2.4100000000000010E-002    -1.6949967175605707E-005
   2.5200000000000000E-002    -1.9462238924461417E-005
   2.6300000000000018E-002    -2.2275904484558851E-005
   2.7400000000000008E-002    -2.5415407435502857E-005
   2.8500000000000025E-002    -2.8903916245326400E-005
   2.9600000000000015E-002    -3.2763058698037639E-005
   3.0700000000000005E-002    -3.7013789551565424E-005
   3.1800000000000023E-002    -4.1677285480545834E-005
   3.2900000000000013E-002    -4.6773398935329169E-005
   3.4000000000000002E-002    -5.2318682719487697E-005
   3.5100000000000020E-002    -5.8324025303591043E-005
   3.6200000000000010E-002    -6.4795043726917356E-005
   3.7300000000000028E-002    -7.1731941716279835E-005
   3.8400000000000017E-002    -7.9129858931992203E-005
   3.9500000000000007E-002    -8.6977248429320753E-005
   4.0600000000000025E-002    -9.5254756161011755E-005
   4.1700000000000015E-002    -1.0393306729383767E-004
   4.2800000000000005E-002    -1.1297088349238038E-004
   4.3900000000000022E-002    -1.2231605069246143E-004
   4.5000000000000012E-002    -1.3190691242925823E-004
   4.6100000000000002E-002    -1.4167153858579695E-004
   4.7200000000000020E-002    -1.5152599371504039E-004
   4.8300000000000010E-002    -1.6137103375513107E-004
   4.9400000000000027E-002    -1.7109132022596896E-004
   5.0500000000000017E-002    -1.8055789405480027E-004
   5.1600000000000007E-002    -1.8963478214573115E-004
   5.2700000000000025E-002    -1.9817506836261600E-004
   5.3800000000000014E-002    -2.0601940923370421E-004
   5.4900000000000004E-002    -2.1299606305547059E-004
   5.6000000000000022E-002    -2.1892321819905192E-004
   5.7100000000000012E-002    -2.2361532319337130E-004
   5.8200000000000002E-002    -2.2688394528813660E-004
   5.9300000000000019E-002    -2.2854330018162727E-004
   6.0400000000000009E-002    -2.2840869496576488E-004
   6.1500000000000027E-002    -2.2629692102782428E-004
   6.2600000000000017E-002    -2.2203096887096763E-004
   6.3700000000000007E-002    -2.1544699848163873E-004
   6.4800000000000024E-002    -2.0639935974031687E-004
   6.5900000000000014E-002    -1.9476725719869137E-004
   6.7000000000000004E-002    -1.8045173783320934E-004
   6.8100000000000022E-002    -1.6337758279405534E-004
   6.9200000000000012E-002    -1.4349611592479050E-004
   7.0300000000000029E-002    -1.2079517910024151E-004
   7.1400000000000019E-002    -9.5301111286971718E-005
   7.2500000000000009E-002    -6.7088505602441728E-005
   7.3600000000000027E-002    -3.6273009754950181E-005
   7.4700000000000016E-002    -3.0092380711721489E-006
   7.5800000000000006E-002     3.2513671612832695E-005
   7.6900000000000024E-002     7.0061389124020934E-005
   7.8000000000000014E-002     1.0935260070255026E-004
   7.9100000000000004E-002     1.5005563909653574E-004
   8.0200000000000021E-002     1.9180116942152381E-004
   8.1300000000000011E-002     2.3419165518134832E-004
   8.2400000000000029E-002     2.7680702623911202E-004
   8.3500000000000019E-002     3.1920062610879540E-004
   8.4600000000000009E-002     3.6089803325012326E-004
   8.5700000000000026E-002     4.0140710189007223E-004
   8.6800000000000016E-002     4.4022788642905653E-004
   8.7900000000000006E-002     4.7686701873317361E-004
   8.9000000000000024E-002     5.1084911683574319E-004
   9.0100000000000013E-002     5.4171920055523515E-004
   9.1200000000000003E-002     5.6904135271906853E-004
   9.2300000000000021E-002     5.9240212431177497E-004
   9.3400000000000011E-002     6.1142398044466972E-004
   9.4500000000000028E-002     6.2578270444646478E-004
   9.5600000000000018E-002     6.3522055279463530E-004
   9.6700000000000008E-002     6.3954043434932828E-004
   9.7800000000000026E-002     6.3860137015581131E-004
   9.8900000000000016E-002     6.3231913372874260E-004
  0.10000000000000001          6.2067271210253239E-004
  0.10110000000000002          6.0372083680704236E-004
  0.10220000000000001          5.8160495245829225E-004
  0.10330000000000003          5.5453617824241519E-004
  0.10440000000000002          5.2278104703873396E-004
  0.10550000000000001          4.8666258226148784E-004
  0.10660000000000003          4.4656253885477781E-004
  0.10770000000000002          4.0291727054864168E-004
  0.10880000000000001          3.5621272400021553E-004
  0.10990000000000003          3.0697352485731244E-004
  0.11100000000000002          2.5575226754881442E-004
  0.11210000000000001          2.0312151173129678E-004
  0.11320000000000002          1.4965244918130338E-004
  0.11430000000000001          9.5917581347748637E-005
  0.11540000000000003          4.2490166379138827E-005
  0.11650000000000002         -1.0057435247290414E-005
  0.11760000000000001         -6.1174374422989786E-005
  0.11870000000000003         -1.1036344949388877E-004
  0.11980000000000002         -1.5718121721874923E-004
  0.12090000000000001         -2.0120781846344471E-004
  0.12200000000000003         -2.4205764930229634E-004
  0.12310000000000001         -2.7940340805798769E-004
  0.12420000000000003         -3.1298919930122793E-004
  0.12530000000000002         -3.4262132248841226E-004
  0.12640000000000001         -3.6815705243498087E-004
  0.12750000000000003         -3.8950660382397473E-004
  0.12860000000000002         -4.0664168773218989E-004
  0.12970000000000001         -4.1959757800213993E-004
  0.13080000000000003         -4.2845416464842856E-004
  0.13190000000000002         -4.3333234498277307E-004
  0.13300000000000001         -4.3440464651212096E-004
  0.13410000000000000         -4.3189295683987439E-004
  0.13520000000000004         -4.2605504859238863E-004
  0.13630000000000003         -4.1716138366609812E-004
  0.13740000000000002         -4.0549400728195906E-004
  0.13850000000000001         -3.9136389386840165E-004
  0.13960000000000000         -3.7510966649278998E-004
  0.14070000000000005         -3.5707539063878357E-004
  0.14180000000000004         -3.3758644713088870E-004
  0.14290000000000003         -3.1695392681285739E-004
  0.14400000000000002         -2.9549180180765688E-004
  0.14510000000000001         -2.7351771132089198E-004
  0.14620000000000000         -2.5133063900284469E-004
  0.14730000000000004         -2.2919510956853628E-004
  0.14840000000000003         -2.0735037105623633E-004
  0.14950000000000002         -1.8602551426738501E-004
  0.15060000000000001         -1.6543612582609057E-004
  0.15170000000000000         -1.4576390094589442E-004
  0.15280000000000005         -1.2715334014501423E-004
  0.15390000000000004         -1.0972780728479847E-004
  0.15500000000000003         -9.3602808192372322E-005
  0.15610000000000002         -7.8873650636523962E-005
  0.15720000000000001         -6.5600979723967612E-005
  0.15830000000000000         -5.3813688282389194E-005
  0.15940000000000004         -4.3532836571102962E-005
  0.16050000000000003         -3.4775392123265192E-005
  0.16160000000000002         -2.7540027076611295E-005
  0.16270000000000001         -2.1796502551296726E-005
  0.16380000000000000         -1.7499709429102950E-005
  0.16490000000000005         -1.4607175216951873E-005
  0.16600000000000004         -1.3074693924863823E-005
  0.16710000000000003         -1.2838453585573006E-005
  0.16820000000000002         -1.3811591088597197E-005
  0.16930000000000001         -1.5905745385680348E-005
  0.17040000000000000         -1.9045886801904999E-005
  0.17150000000000004         -2.3156793758971617E-005
  0.17260000000000003         -2.8139147616457194E-005
  0.17370000000000002         -3.3872307540150359E-005
  0.17480000000000001         -4.0239734516944736E-005
  0.17590000000000000         -4.7142020775936544E-005
  0.17700000000000005         -5.4478903621202335E-005
  0.17810000000000004         -6.2127277487888932E-005
  0.17920000000000003         -6.9946741859894246E-005
  0.18030000000000002         -7.7801189036108553E-005
  0.18140000000000001         -8.5564242908731103E-005
  0.18250000000000000         -9.3103182734921575E-005
  0.18360000000000004         -1.0026922973338515E-004
  0.18470000000000003         -1.0690995986806229E-004
  0.18580000000000002         -1.1288294626865536E-004
  0.18690000000000001         -1.1804858513642102E-004
  0.18800000000000000         -1.2225472892168909E-004
  0.18910000000000005         -1.2533922563306987E-004
  0.19020000000000004         -1.2715316552203149E-004
  0.19130000000000003         -1.2757249351125211E-004
  0.19240000000000002         -1.2648197298403829E-004
  0.19350000000000001         -1.2375516234897077E-004
  0.19460000000000005         -1.1926419392693788E-004
  0.19570000000000004         -1.1291100236121565E-004
  0.19680000000000003         -1.0463414946570992E-004
  0.19790000000000002         -9.4388589786831290E-005
  0.19900000000000001         -8.2132843090221286E-005
  0.20010000000000000         -6.7843364377040416E-005
  0.20120000000000005         -5.1537117542466149E-005
  0.20230000000000004         -3.3271928259637207E-005
  0.20340000000000003         -1.3125157238391694E-005
  0.20450000000000002          8.8113965830416419E-006
  0.20560000000000000          3.2411109714303166E-005
  0.20670000000000005          5.7500226830597967E-005
  0.20780000000000004          8.3869155787397176E-005
  0.20890000000000003          1.1129444465041161E-004
