 -0.12000000000000000          0.0000000000000000
 -0.11889999999999999          0.0000000000000000
 -0.11780000000000000          0.0000000000000000
 -0.11670000000000000          1.2546758770826116E-011
 -0.11559999999999999          1.8168402546314688E-011
 -0.11449999999999999         -2.8160881612726563E-011
 -0.11340000000000000         -7.4961550855512371E-011
 -0.11230000000000000         -7.1864558574830095E-012
 -0.11119999999999999          9.8632872702619778E-011
 -0.11009999999999999          3.4899878126326556E-011
 -0.10900000000000000         -4.0868759765277929E-011
 -0.10790000000000000          3.0829411246102723E-010
 -0.10679999999999999          7.4258349469502605E-010
 -0.10569999999999999         -4.0189275518631717E-011
 -0.10460000000000000         -2.2186257275791377E-009
 -0.10349999999999999         -3.2006566286213456E-009
 -0.10239999999999999         -2.7628863086270883E-010
 -0.10130000000000000          4.7190180652023628E-009
 -0.10020000000000000          6.1720073496474015E-009
  -9.9099999999999994E-002     1.9703458864483991E-009
  -9.7999999999999990E-002    -2.6980135903187374E-009
  -9.6899999999999986E-002    -2.4106245888333433E-009
  -9.5799999999999996E-002    -3.5083197458263271E-010
  -9.4699999999999993E-002    -4.1651797566544246E-009
  -9.3599999999999989E-002    -1.2471423005422366E-008
  -9.2499999999999999E-002    -1.2972203755623468E-008
  -9.1399999999999995E-002     9.2079721625282218E-010
  -9.0299999999999991E-002     1.7741406566074147E-008
  -8.9200000000000002E-002     2.1626499702165347E-008
  -8.8099999999999984E-002     1.6275816250299613E-008
  -8.6999999999999994E-002     2.3412772165443130E-008
  -8.5899999999999990E-002     5.3338819583359509E-008
  -8.4799999999999986E-002     8.8167261935723218E-008
  -8.3699999999999997E-002     1.0448648879446409E-007
  -8.2599999999999993E-002     1.0566866848193968E-007
  -8.1499999999999989E-002     1.1758098850123133E-007
  -8.0399999999999999E-002     1.5362556382569892E-007
  -7.9299999999999995E-002     2.0025740354867594E-007
  -7.8199999999999992E-002     2.4293791511809104E-007
  -7.7100000000000002E-002     2.9085032338116434E-007
  -7.5999999999999984E-002     3.6206080267220386E-007
  -7.4899999999999994E-002     4.5507721324611339E-007
  -7.3799999999999991E-002     5.5578095725650201E-007
  -7.2699999999999987E-002     6.7041577267445973E-007
  -7.1599999999999997E-002     8.2784623600673513E-007
  -7.0499999999999993E-002     1.0399921848147642E-006
  -6.9399999999999989E-002     1.2819215271520079E-006
  -6.8300000000000000E-002     1.5320074453484267E-006
  -6.7199999999999996E-002     1.8184359760198276E-006
  -6.6099999999999992E-002     2.1972234662825940E-006
  -6.5000000000000002E-002     2.6851050733966986E-006
  -6.3899999999999985E-002     3.2458583518746309E-006
  -6.2799999999999995E-002     3.8575499274884351E-006
  -6.1699999999999991E-002     4.5664883145946078E-006
  -6.0599999999999994E-002     5.4460442697745748E-006
  -5.9499999999999990E-002     6.5167396314791404E-006
  -5.8399999999999994E-002     7.7444037742679939E-006
  -5.7299999999999990E-002     9.1200690803816542E-006
  -5.6199999999999986E-002     1.0704524356697220E-005
  -5.5099999999999996E-002     1.2574140782817267E-005
  -5.3999999999999992E-002     1.4752471543033607E-005
  -5.2899999999999989E-002     1.7229824152309448E-005
  -5.1799999999999985E-002     2.0034744011354633E-005
  -5.0699999999999995E-002     2.3242802853928879E-005
  -4.9599999999999991E-002     2.6911926397588104E-005
  -4.8499999999999988E-002     3.1053095881361514E-005
  -4.7399999999999998E-002     3.5688692150870338E-005
  -4.6299999999999994E-002     4.0903018089011312E-005
  -4.5199999999999990E-002     4.6792054490651935E-005
  -4.4099999999999986E-002     5.3380324970930815E-005
  -4.2999999999999997E-002     6.0640719311777502E-005
  -4.1899999999999993E-002     6.8603236286435276E-005
  -4.0799999999999989E-002     7.7392454841174185E-005
  -3.9699999999999985E-002     8.7123815319500864E-005
  -3.8599999999999995E-002     9.7799063951242715E-005
  -3.7499999999999992E-002     1.0935119644273072E-004
  -3.6399999999999988E-002     1.2177730241091922E-004
  -3.5299999999999984E-002     1.3516777835320681E-004
  -3.4199999999999994E-002     1.4959412510506809E-004
  -3.3099999999999991E-002     1.6501900972798467E-004
  -3.1999999999999987E-002     1.8135122081730515E-004
  -3.0899999999999997E-002     1.9854694255627692E-004
  -2.9799999999999993E-002     2.1659897174686193E-004
  -2.8699999999999989E-002     2.3543843417428434E-004
  -2.7599999999999986E-002     2.5491451378911734E-004
  -2.6499999999999996E-002     2.7488204068504274E-004
  -2.5399999999999992E-002     2.9525154968723655E-004
  -2.4299999999999988E-002     3.1590281287208200E-004
  -2.3199999999999985E-002     3.3658990287221968E-004
  -2.2099999999999995E-002     3.5699273576028645E-004
  -2.0999999999999991E-002     3.7685193819925189E-004
  -1.9899999999999987E-002     3.9598534931428730E-004
  -1.8799999999999983E-002     4.1415411396883428E-004
  -1.7699999999999994E-002     4.3097362504340708E-004
  -1.6599999999999990E-002     4.4600464752875268E-004
  -1.5499999999999986E-002     4.5889290049672127E-004
  -1.4399999999999996E-002     4.6935238060541451E-004
  -1.3299999999999992E-002     4.7703323070891201E-004
  -1.2199999999999989E-002     4.8148780479095876E-004
  -1.1099999999999985E-002     4.8228437663055956E-004
  -9.9999999999999950E-003     4.7909832210280001E-004
  -8.8999999999999913E-003     4.7165047726593912E-004
  -7.7999999999999875E-003     4.5959724229760468E-004
  -6.6999999999999837E-003     4.4255855027586222E-004
  -5.5999999999999939E-003     4.2025456787087023E-004
  -4.4999999999999901E-003     3.9255485171452165E-004
  -3.3999999999999864E-003     3.5936842323280871E-004
  -2.2999999999999826E-003     3.2056652707979083E-004
  -1.1999999999999927E-003     2.7604895876720548E-004
  -9.9999999999988987E-005     2.2586817794945091E-004
   1.0000000000000148E-003     1.7023108375724405E-004
   2.1000000000000185E-003     1.0937671322608367E-004
   3.2000000000000084E-003     4.3546620872803032E-005
   4.3000000000000121E-003    -2.6917365175904706E-005
   5.4000000000000159E-003    -1.0149525769520551E-004
   6.5000000000000058E-003    -1.7956260126084089E-004
   7.6000000000000234E-003    -2.6049854932352901E-004
   8.7000000000000133E-003    -3.4367182524874806E-004
   9.8000000000000032E-003    -4.2832712642848492E-004
   1.0900000000000021E-002    -5.1355059258639812E-004
   1.2000000000000011E-002    -5.9838790912181139E-004
   1.3100000000000001E-002    -6.8194186314940453E-004
   1.4200000000000018E-002    -7.6333334436640143E-004
   1.5300000000000008E-002    -8.4160553524270654E-004
   1.6400000000000026E-002    -9.1573694953694940E-004
   1.7500000000000016E-002    -9.8475767299532890E-004
   1.8600000000000005E-002    -1.0478039039298892E-003
   1.9700000000000023E-002    -1.1040571844205260E-003
   2.0800000000000013E-002    -1.1526902671903372E-003
   2.1900000000000003E-002    -1.1929344618692994E-003
   2.3000000000000020E-002    -1.2241825461387634E-003
   2.4100000000000010E-002    -1.2459820136427879E-003
   2.5200000000000000E-002    -1.2579496251419187E-003
   2.6300000000000018E-002    -1.2597463792189956E-003
   2.7400000000000008E-002    -1.2511649401858449E-003
   2.8500000000000025E-002    -1.2322071706876159E-003
   2.9600000000000015E-002    -1.2030478101223707E-003
   3.0700000000000005E-002    -1.1639484437182546E-003
   3.1800000000000023E-002    -1.1152450460940599E-003
   3.2900000000000013E-002    -1.0574209736660123E-003
   3.4000000000000002E-002    -9.9113071337342262E-004
   3.5100000000000020E-002    -9.1713236179202795E-004
   3.6200000000000010E-002    -8.3623314276337624E-004
   3.7300000000000028E-002    -7.4931042036041617E-004
   3.8400000000000017E-002    -6.5736798569560051E-004
   3.9500000000000007E-002    -5.6148972362279892E-004
   4.0600000000000025E-002    -4.6275681233964860E-004
   4.1700000000000015E-002    -3.6222752532921731E-004
   4.2800000000000005E-002    -2.6095638168044388E-004
   4.3900000000000022E-002    -1.6003542987164110E-004
   4.5000000000000012E-002    -6.0564478189917281E-005
   4.6100000000000002E-002     3.6434714274946600E-005
   4.7200000000000020E-002     1.3003665662836283E-004
   4.8300000000000010E-002     2.1938167628832161E-004
   4.9400000000000027E-002     3.0367798171937466E-004
   5.0500000000000017E-002     3.8222165312618017E-004
   5.1600000000000007E-002     4.5441888505592942E-004
   5.2700000000000025E-002     5.1978148985654116E-004
   5.3800000000000014E-002     5.7790533173829317E-004
   5.4900000000000004E-002     6.2849209643900394E-004
   5.6000000000000022E-002     6.7138409940525889E-004
   5.7100000000000012E-002     7.0655025774613023E-004
   5.8200000000000002E-002     7.3404714930802584E-004
   5.9300000000000019E-002     7.5399526394903660E-004
   6.0400000000000009E-002     7.6659396290779114E-004
   6.1500000000000027E-002     7.7214383054524660E-004
   6.2600000000000017E-002     7.7103171497583389E-004
   6.3700000000000007E-002     7.6370028546079993E-004
   6.4800000000000024E-002     7.5064634438604116E-004
   6.5900000000000014E-002     7.3240819619968534E-004
   6.7000000000000004E-002     7.0954178227111697E-004
   6.8100000000000022E-002     6.8260339321568608E-004
   6.9200000000000012E-002     6.5216317307204008E-004
   7.0300000000000029E-002     6.1882036970928311E-004
   7.1400000000000019E-002     5.8318045921623707E-004
   7.2500000000000009E-002     5.4580497089773417E-004
   7.3600000000000027E-002     5.0720141734927893E-004
   7.4700000000000016E-002     4.6786386519670486E-004
   7.5800000000000006E-002     4.2828815639950335E-004
   7.6900000000000024E-002     3.8892822340130806E-004
   7.8000000000000014E-002     3.5015246248804033E-004
   7.9100000000000004E-002     3.1227336148731411E-004
   8.0200000000000021E-002     2.7560562011785805E-004
   8.1300000000000011E-002     2.4045683676376939E-004
   8.2400000000000029E-002     2.0705354108940810E-004
   8.3500000000000019E-002     1.7551772180013359E-004
   8.4600000000000009E-002     1.4593882951885462E-004
   8.5700000000000026E-002     1.1843426909763366E-004
   8.6800000000000016E-002     9.3109330919105560E-005
   8.7900000000000006E-002     6.9980167609173805E-005
   8.9000000000000024E-002     4.8989269998855889E-005
   9.0100000000000013E-002     3.0092442102613859E-005
   9.1200000000000003E-002     1.3285239219840150E-005
   9.2300000000000021E-002    -1.4816199609413161E-006
   9.3400000000000011E-002    -1.4351113350130618E-005
   9.4500000000000028E-002    -2.5486060621915385E-005
   9.5600000000000018E-002    -3.4968707041116431E-005
   9.6700000000000008E-002    -4.2831845348700881E-005
   9.7800000000000026E-002    -4.9183308874489740E-005
   9.8900000000000016E-002    -5.4237341828411445E-005
  0.10000000000000001         -5.8186622482025996E-005
  0.10110000000000002         -6.1104226915631443E-005
  0.10220000000000001         -6.3016035710461438E-005
  0.10330000000000003         -6.4037347328849137E-005
  0.10440000000000002         -6.4363877754658461E-005
  0.10550000000000001         -6.4133171690627933E-005
  0.10660000000000003         -6.3373212469741702E-005
  0.10770000000000002         -6.2115192122291774E-005
  0.10880000000000001         -6.0488880990305915E-005
  0.10990000000000003         -5.8646593970479444E-005
  0.11100000000000002         -5.6627632147865370E-005
  0.11210000000000001         -5.4386433475883678E-005
  0.11320000000000002         -5.1950577471870929E-005
  0.11430000000000001         -4.9465947085991502E-005
  0.11540000000000003         -4.7048793931026012E-005
  0.11650000000000002         -4.4666689063888043E-005
  0.11760000000000001         -4.2231582483509555E-005
  0.11870000000000003         -3.9770933653926477E-005
  0.11980000000000002         -3.7416175473481417E-005
  0.12090000000000001         -3.5227156331529841E-005
  0.12200000000000003         -3.3124502806458622E-005
  0.12310000000000001         -3.1032923288876191E-005
  0.12420000000000003         -2.9013668608968146E-005
  0.12530000000000002         -2.7176314688404091E-005
  0.12640000000000001         -2.5506929887342267E-005
  0.12750000000000003         -2.3883982066763565E-005
  0.12860000000000002         -2.2265212464844808E-005
  0.12970000000000001         -2.0757444872288033E-005
  0.13080000000000003         -1.9454506400506943E-005
  0.13190000000000002         -1.8288637875230052E-005
  0.13300000000000001         -1.7123984434874728E-005
  0.13410000000000000         -1.5953512047417462E-005
  0.13520000000000004         -1.4900176211085636E-005
  0.13630000000000003         -1.4020981325302273E-005
  0.13740000000000002         -1.3216748811828438E-005
  0.13850000000000001         -1.2382566637825221E-005
  0.13960000000000000         -1.1563653970370069E-005
  0.14070000000000005         -1.0875334737647790E-005
  0.14180000000000004         -1.0312463018635754E-005
  0.14290000000000003         -9.7486054073669948E-006
  0.14400000000000002         -9.1275169324944727E-006
  0.14510000000000001         -8.5493957158178091E-006
  0.14620000000000000         -8.1139514804817736E-006
  0.14730000000000004         -7.7608201536349952E-006
  0.14840000000000003         -7.3551600507926196E-006
  0.14950000000000002         -6.8887793531757779E-006
  0.15060000000000001         -6.4882387960096821E-006
  0.15170000000000000         -6.2172225625545252E-006
  0.15280000000000005         -5.9770086409116630E-006
  0.15390000000000004         -5.6573153415229172E-006
  0.15500000000000003         -5.3032499636174180E-006
  0.15610000000000002         -5.0417779675626662E-006
  0.15720000000000001         -4.8828705985215493E-006
  0.15830000000000000         -4.7015741984068882E-006
  0.15940000000000004         -4.4291832637100015E-006
  0.16050000000000003         -4.1570124267309438E-006
  0.16160000000000002         -3.9949291021912359E-006
  0.16270000000000001         -3.9027595448715147E-006
  0.16380000000000000         -3.7527681797655532E-006
  0.16490000000000005         -3.5235273116995813E-006
  0.16600000000000004         -3.3273215649387566E-006
  0.16710000000000003         -3.2334046409232542E-006
  0.16820000000000002         -3.1631429919798393E-006
  0.16930000000000001         -3.0157473247527378E-006
  0.17040000000000000         -2.8250201467017177E-006
  0.17150000000000004         -2.7036517167289276E-006
  0.17260000000000003         -2.6650254767446313E-006
  0.17370000000000002         -2.6006971438619075E-006
  0.17480000000000001         -2.4482626486133086E-006
  0.17590000000000000         -2.2889942101755878E-006
  0.17700000000000005         -2.2237031771510374E-006
  0.17810000000000004         -2.2181698113854509E-006
  0.17920000000000003         -2.1549433313339250E-006
  0.18030000000000002         -2.0105628664168762E-006
  0.18140000000000001         -1.8878108676290140E-006
  0.18250000000000000         -1.8576444063000963E-006
  0.18360000000000004         -1.8552437950347667E-006
  0.18470000000000003         -1.7838309531725827E-006
  0.18580000000000002         -1.6610067632427672E-006
  0.18690000000000001         -1.5853594277359662E-006
  0.18800000000000000         -1.5816772247490007E-006
  0.18910000000000005         -1.5660476719858707E-006
  0.19020000000000004         -1.4791688727200381E-006
  0.19130000000000003         -1.3773260434390977E-006
  0.19240000000000002         -1.3424531744021806E-006
  0.19350000000000001         -1.3547124808610533E-006
  0.19460000000000005         -1.3247777133074123E-006
  0.19570000000000004         -1.2323417877269094E-006
  0.19680000000000003         -1.1557629022718174E-006
  0.19790000000000002         -1.1502580719024991E-006
  0.19900000000000001         -1.1644618780337623E-006
  0.20010000000000000         -1.1211617447770550E-006
  0.20120000000000005         -1.0343196663598064E-006
  0.20230000000000004         -9.8425834949011914E-007
  0.20340000000000003         -9.9419685284374282E-007
  0.20450000000000002         -9.9845101431128569E-007
  0.20560000000000000         -9.4577228537673363E-007
  0.20670000000000005         -8.7507595480929012E-007
  0.20780000000000004         -8.5114652392803691E-007
  0.20890000000000003         -8.6526938503084239E-007
