 -0.12000000000000000          0.0000000000000000
 -0.11889999999999999          0.0000000000000000
 -0.11780000000000000          0.0000000000000000
 -0.11670000000000000          0.0000000000000000
 -0.11559999999999999          0.0000000000000000
 -0.11449999999999999          0.0000000000000000
 -0.11340000000000000          0.0000000000000000
 -0.11230000000000000          4.5173367227286533E-021
 -0.11119999999999999         -2.1335585054060316E-021
 -0.11009999999999999         -5.0255070541149363E-020
 -0.10900000000000000          6.3249792005434729E-021
 -0.10790000000000000          3.2296858596705518E-019
 -0.10679999999999999          1.0674466598259625E-019
 -0.10569999999999999         -1.4623058100980340E-018
 -0.10460000000000000         -1.2596277416636066E-018
 -0.10349999999999999          4.7662502582968852E-018
 -0.10239999999999999          7.2483777398296558E-018
 -0.10130000000000000         -1.0592429074003906E-017
 -0.10020000000000000         -2.7792593602401887E-017
  -9.9099999999999994E-002     1.2570456973815223E-017
  -9.7999999999999990E-002     7.9820507126533615E-017
  -9.6899999999999986E-002     1.2145739433938646E-017
  -9.5799999999999996E-002    -1.8955684152154983E-016
  -9.4699999999999993E-002    -1.2844003948025284E-016
  -9.3599999999999989E-002     3.9215216707930351E-016
  -9.2499999999999999E-002     5.3949000130372243E-016
  -9.1399999999999995E-002    -6.0574216558087523E-016
  -9.0299999999999991E-002    -1.6980247147458305E-015
  -8.9200000000000002E-002     1.2997000597612073E-016
  -8.8099999999999984E-002     3.8443729570450478E-015
  -8.6999999999999994E-002     2.7951515512152515E-015
  -8.5899999999999990E-002    -5.4412913722836319E-015
  -8.4799999999999986E-002    -9.5917494256979145E-015
  -8.3699999999999997E-002     2.5228006007616032E-015
  -8.2599999999999993E-002     1.8417230495662226E-014
  -8.1499999999999989E-002     8.2132456556889034E-015
  -8.0399999999999999E-002    -2.5318201040454985E-014
  -7.9299999999999995E-002    -2.8646833847125255E-014
  -7.8199999999999992E-002     2.6885518618802347E-014
  -7.7100000000000002E-002     6.7104518285381748E-014
  -7.5999999999999984E-002    -4.8576949889878387E-015
  -7.4899999999999994E-002    -1.2584735770843070E-013
  -7.3799999999999991E-002    -8.8558927714959407E-014
  -7.2699999999999987E-002     1.4607440962117330E-013
  -7.1599999999999997E-002     2.6607234753124598E-013
  -7.0499999999999993E-002    -1.4645877284384656E-014
  -6.9399999999999989E-002    -4.1285169185244219E-013
  -6.8300000000000000E-002    -2.8991403461936516E-013
  -6.7199999999999996E-002     3.7689518389907861E-013
  -6.6099999999999992E-002     6.6022968342460686E-013
  -6.5000000000000002E-002    -1.0487731559941094E-013
  -6.3899999999999985E-002    -1.0222499929879447E-012
  -6.2799999999999995E-002    -5.2546931649660733E-013
  -6.1699999999999991E-002     1.1612631429375186E-012
  -6.0599999999999994E-002     1.6429054297550927E-012
  -5.9499999999999990E-002    -4.3080518536200985E-013
  -5.8399999999999994E-002    -2.6582687873838440E-012
  -5.7299999999999990E-002    -1.4798661428228055E-012
  -5.6199999999999986E-002     2.3741826647022402E-012
  -5.5099999999999996E-002     3.6570000500057986E-012
  -5.3999999999999992E-002    -3.4670332468671183E-013
  -5.2899999999999989E-002    -4.7691954552231408E-012
  -5.1799999999999985E-002    -2.8353903426536764E-012
  -5.0699999999999995E-002     3.9462998840944508E-012
  -4.9599999999999991E-002     6.1618180176303827E-012
  -4.8499999999999988E-002    -6.3209946174827558E-013
  -4.7399999999999998E-002    -7.9609114439493922E-012
  -4.6299999999999994E-002    -4.8449634061642488E-012
  -4.5199999999999990E-002     5.9953235952148187E-012
  -4.4099999999999986E-002     1.0003479815334781E-011
  -4.2999999999999997E-002     7.0889848895541729E-013
  -4.1899999999999993E-002    -9.9522039914701210E-012
  -4.0799999999999989E-002    -7.5307910948896328E-012
  -3.9699999999999985E-002     4.1720359805763607E-012
  -3.8599999999999995E-002     8.2174735765994100E-012
  -3.7499999999999992E-002    -6.3668249275158906E-013
  -3.6399999999999988E-002    -8.0505194524627122E-012
  -3.5299999999999984E-002    -1.8629858940244493E-012
  -3.4199999999999994E-002     9.1502794924425146E-012
  -3.3099999999999991E-002     8.9023979160662847E-012
  -3.1999999999999987E-002    -8.5971681162977376E-013
  -3.0899999999999997E-002    -4.3738480719202055E-012
  -2.9799999999999993E-002     6.2908131395061906E-013
  -2.8699999999999989E-002    -1.9734567712620388E-012
  -2.7599999999999986E-002    -1.6758969212382624E-011
  -2.6499999999999996E-002    -2.0908936040897608E-011
  -2.5399999999999992E-002     2.9904364574895315E-012
  -2.4299999999999988E-002     3.0756765190265156E-011
  -2.3199999999999985E-002     2.1639320543775931E-011
  -2.2099999999999995E-002    -1.9659295025231671E-011
  -2.0999999999999991E-002    -3.8401545832122963E-011
  -1.9899999999999987E-002    -5.0711474949838298E-012
  -1.8799999999999983E-002     3.2651870790489923E-011
  -1.7699999999999994E-002     9.1685591410706202E-012
  -1.6599999999999990E-002    -5.9823486442400764E-011
  -1.5499999999999986E-002    -8.4305236403015016E-011
  -1.4399999999999996E-002    -1.9520005403728113E-011
  -1.3299999999999992E-002     6.4520049025684756E-011
  -1.2199999999999989E-002     6.8622822702035791E-011
  -1.1099999999999985E-002    -7.3340656464582210E-012
  -9.9999999999999950E-003    -7.1611355734191307E-011
  -8.8999999999999913E-003    -6.8179593915029812E-011
  -7.7999999999999875E-003    -4.2944110073550590E-011
  -6.6999999999999837E-003    -6.1309415877452977E-011
  -5.5999999999999939E-003    -1.1041402514511134E-010
  -4.4999999999999901E-003    -1.3078588212422915E-010
  -3.3999999999999864E-003    -1.1063922000786874E-010
  -2.2999999999999826E-003    -9.1146139247211266E-011
  -1.1999999999999927E-003    -8.0722165063384921E-011
  -9.9999999999988987E-005    -4.9186578421345217E-011
   1.0000000000000148E-003    -2.2110634503857973E-011
   2.1000000000000185E-003    -9.6891626666373298E-011
   3.2000000000000084E-003    -3.0126054428869509E-010
   4.3000000000000121E-003    -4.9934756329861330E-010
   5.4000000000000159E-003    -5.1922449673114102E-010
   6.5000000000000058E-003    -3.9407835328297836E-010
   7.6000000000000234E-003    -3.2961297580236248E-010
   8.7000000000000133E-003    -4.5137929505223440E-010
   9.8000000000000032E-003    -6.1589588984389820E-010
   1.0900000000000021E-002    -6.0903604381934429E-010
   1.2000000000000011E-002    -4.7145504167289687E-010
   1.3100000000000001E-002    -4.5532125292346848E-010
   1.4200000000000018E-002    -7.4178696518600873E-010
   1.5300000000000008E-002    -1.1698187973863128E-009
   1.6400000000000026E-002    -1.4727660202495940E-009
   1.7500000000000016E-002    -1.5632168892665277E-009
   1.8600000000000005E-002    -1.5364958194652445E-009
   1.9700000000000023E-002    -1.5543691889163824E-009
   2.0800000000000013E-002    -1.6182271078690746E-009
   2.1900000000000003E-002    -1.6700526517254843E-009
   2.3000000000000020E-002    -1.6994003981807282E-009
   2.4100000000000010E-002    -1.8283009550756901E-009
   2.5200000000000000E-002    -2.1042847464514125E-009
   2.6300000000000018E-002    -2.3164545837062178E-009
   2.7400000000000008E-002    -2.5390700653105114E-009
   2.8500000000000025E-002    -2.9176427940313943E-009
   2.9600000000000015E-002    -3.3462350668145291E-009
   3.0700000000000005E-002    -3.4656806313648758E-009
   3.1800000000000023E-002    -3.3178810809886272E-009
   3.2900000000000013E-002    -3.0189357680399098E-009
   3.4000000000000002E-002    -2.9075843954728953E-009
   3.5100000000000020E-002    -3.0403708439763477E-009
   3.6200000000000010E-002    -2.9715487848136490E-009
   3.7300000000000028E-002    -2.7297435423179195E-009
   3.8400000000000017E-002    -2.5685236160200020E-009
   3.9500000000000007E-002    -2.7272097913311200E-009
   4.0600000000000025E-002    -2.8044184752218371E-009
   4.1700000000000015E-002    -2.5621926802443795E-009
   4.2800000000000005E-002    -2.3436950158384207E-009
   4.3900000000000022E-002    -1.7337035140840840E-009
   4.5000000000000012E-002    -1.1307008662697626E-009
   4.6100000000000002E-002    -7.4029349317328297E-010
   4.7200000000000020E-002    -1.3325211767334366E-010
   4.8300000000000010E-002     1.0815461859436937E-009
   4.9400000000000027E-002     2.4306174850607931E-009
   5.0500000000000017E-002     3.6336722519791920E-009
   5.1600000000000007E-002     3.7747085457340290E-009
   5.2700000000000025E-002     3.3778351227198300E-009
   5.3800000000000014E-002     4.2677208433872238E-009
   5.4900000000000004E-002     5.8737041896961273E-009
   5.6000000000000022E-002     7.4609625144717029E-009
   5.7100000000000012E-002     9.8132710846243754E-009
   5.8200000000000002E-002     1.1000198973931674E-008
   5.9300000000000019E-002     1.0208368372843779E-008
   6.0400000000000009E-002     9.0412752840052235E-009
   6.1500000000000027E-002     9.5434424807194773E-009
   6.2600000000000017E-002     1.2363636336942818E-008
   6.3700000000000007E-002     1.6263612678812933E-008
   6.4800000000000024E-002     1.6825509874252020E-008
   6.5900000000000014E-002     1.3892789141323192E-008
   6.7000000000000004E-002     1.0532010819019888E-008
   6.8100000000000022E-002     1.1338744165811931E-008
   6.9200000000000012E-002     1.5192215485626548E-008
   7.0300000000000029E-002     1.8340333696187372E-008
   7.1400000000000019E-002     1.7226188475660820E-008
   7.2500000000000009E-002     1.1874553784707587E-008
   7.3600000000000027E-002     8.3139752860006411E-009
   7.4700000000000016E-002     8.2354301156328802E-009
   7.5800000000000006E-002     1.0545066153611060E-008
   7.6900000000000024E-002     1.1046892289812149E-008
   7.8000000000000014E-002     8.5949940498153410E-009
   7.9100000000000004E-002     4.8507788896756665E-009
   8.0200000000000021E-002     5.5925775122034338E-010
   8.1300000000000011E-002    -3.2593441279260560E-009
   8.2400000000000029E-002    -4.1600696221166800E-009
   8.3500000000000019E-002    -1.2020366924048176E-009
   8.4600000000000009E-002    -1.6396198287971231E-010
   8.5700000000000026E-002    -5.1384132504495028E-009
   8.6800000000000016E-002    -1.3005073462579730E-008
   8.7900000000000006E-002    -1.7421401210526710E-008
   8.9000000000000024E-002    -1.5460081215223909E-008
   9.0100000000000013E-002    -1.1725136417339854E-008
   9.1200000000000003E-002    -1.2160580098452556E-008
   9.2300000000000021E-002    -1.8245653876647339E-008
   9.3400000000000011E-002    -2.4188025804505742E-008
   9.4500000000000028E-002    -2.4867745196388569E-008
   9.5600000000000018E-002    -2.1000843730689667E-008
   9.6700000000000008E-002    -1.6782962575234706E-008
   9.7800000000000026E-002    -1.4489983435339582E-008
   9.8900000000000016E-002    -1.6389394730254025E-008
  0.10000000000000001         -2.2953313916218576E-008
  0.10110000000000002         -2.7330260721214472E-008
  0.10220000000000001         -2.5969205452724964E-008
  0.10330000000000003         -1.5922113405508753E-008
  0.10440000000000002         -6.2062857075773081E-009
  0.10550000000000001         -7.1334151918733824E-009
  0.10660000000000003         -1.5502182648674534E-008
  0.10770000000000002         -2.1790237170193905E-008
  0.10880000000000001         -1.6686708903534964E-008
  0.10990000000000003         -3.0269617923295300E-009
  0.11100000000000002          5.2926640847772433E-009
  0.11210000000000001          4.8568487009958972E-009
  0.11320000000000002         -1.3812720967010250E-009
  0.11430000000000001         -6.4086336237778596E-009
  0.11540000000000003         -4.6023100885861368E-009
  0.11650000000000002          3.3986566894128600E-009
  0.11760000000000001          1.2252399095302735E-008
  0.11870000000000003          1.8651016731041636E-008
  0.11980000000000002          1.5300964051334631E-008
  0.12090000000000001          4.9943698066101661E-009
  0.12200000000000003         -1.4746949217325778E-009
  0.12310000000000001          4.0245242693970340E-009
  0.12420000000000003          1.8360648113002753E-008
  0.12530000000000002          2.6537348318811382E-008
  0.12640000000000001          2.0001818867854126E-008
  0.12750000000000003          6.8340102465924701E-009
  0.12860000000000002         -1.2733177845447585E-009
  0.12970000000000001          2.1526540550098616E-009
  0.13080000000000003          1.3491937345122551E-008
  0.13190000000000002          2.2676925226505773E-008
  0.13300000000000001          2.3240399826818248E-008
  0.13410000000000000          1.4512733237381781E-008
  0.13520000000000004          1.6517184286968245E-009
  0.13630000000000003         -6.2972485004308965E-009
  0.13740000000000002         -3.1620639440177456E-009
  0.13850000000000001          8.6108737917811595E-009
  0.13960000000000000          1.7725200862628299E-008
  0.14070000000000005          1.3728247871824806E-008
  0.14180000000000004         -1.4234571299454046E-009
  0.14290000000000003         -1.2856538056382760E-008
  0.14400000000000002         -9.2304421883682153E-009
  0.14510000000000001          5.0619894942371957E-009
  0.14620000000000000          1.5208662773602555E-008
  0.14730000000000004          1.1606791971985331E-008
  0.14840000000000003         -1.0456945309655907E-009
  0.14950000000000002         -1.1579513348181081E-008
  0.15060000000000001         -1.4188128893977137E-008
  0.15170000000000000         -9.3590228900097827E-009
  0.15280000000000005         -7.4029982144452333E-010
  0.15390000000000004          8.2342186402684092E-009
  0.15500000000000003          9.5869125971148605E-009
  0.15610000000000002         -7.2973893594507899E-010
  0.15720000000000001         -1.4677733695123152E-008
  0.15830000000000000         -1.7225289639100083E-008
  0.15940000000000004         -3.5775395978987490E-009
  0.16050000000000003          1.2325608977903357E-008
  0.16160000000000002          1.2535029902949191E-008
  0.16270000000000001         -3.2220992540743509E-009
  0.16380000000000000         -1.7400079599383389E-008
  0.16490000000000005         -1.5691309585008639E-008
  0.16600000000000004         -3.2924603043937850E-009
  0.16710000000000003          6.2816654100572578E-009
  0.16820000000000002          7.1865584594377196E-009
  0.16930000000000001          3.8212459863018466E-009
  0.17040000000000000         -6.4226940432732249E-010
  0.17150000000000004         -7.0611809732668007E-009
  0.17260000000000003         -1.1974634617217816E-008
  0.17370000000000002         -7.6410575644558776E-009
  0.17480000000000001          5.7277960152646301E-009
  0.17590000000000000          1.4424802685653049E-008
  0.17700000000000005          6.8330598956833910E-009
  0.17810000000000004         -9.5035410652144492E-009
  0.17920000000000003         -1.4919182333983372E-008
  0.18030000000000002         -2.6638873329432045E-009
  0.18140000000000001          1.1541724909136519E-008
  0.18250000000000000          1.0550690987543021E-008
  0.18360000000000004         -2.1005492900627587E-009
  0.18470000000000003         -9.4588026300357342E-009
  0.18580000000000002         -5.0419370900556260E-009
  0.18690000000000001          1.2544663086089258E-009
  0.18800000000000000          1.0934617655777856E-009
  0.18910000000000005         -1.3557363565119829E-010
  0.19020000000000004          4.1773082770646397E-009
  0.19130000000000003          8.1381656968915195E-009
  0.19240000000000002          2.0747916718022452E-009
  0.19350000000000001         -9.0200558133801678E-009
  0.19460000000000005         -9.6637426949541805E-009
  0.19570000000000004          2.8677125119003222E-009
  0.19680000000000003          1.1769803798244993E-008
  0.19790000000000002          4.0739136508705087E-009
  0.19900000000000001         -9.6990220299630892E-009
  0.20010000000000000         -1.0111230075438016E-008
  0.20120000000000005          3.1006210932105205E-009
  0.20230000000000004          1.0927959870343784E-008
  0.20340000000000003          3.2461793253446558E-009
  0.20450000000000002         -6.8565699784528533E-009
  0.20560000000000000         -4.1056078536882978E-009
  0.20670000000000005          5.8511280265349797E-009
  0.20780000000000004          6.4068181870879926E-009
  0.20890000000000003         -3.8699621285331887E-009
