 -0.12000000000000000          0.0000000000000000
 -0.11889999999999999          0.0000000000000000
 -0.11780000000000000          0.0000000000000000
 -0.11670000000000000          0.0000000000000000
 -0.11559999999999999          0.0000000000000000
 -0.11449999999999999          0.0000000000000000
 -0.11340000000000000          0.0000000000000000
 -0.11230000000000000          4.5173334915543855E-021
 -0.11119999999999999          2.6953383395904554E-021
 -0.11009999999999999         -3.9686148311642383E-020
 -0.10900000000000000         -4.3154532775948567E-020
 -0.10790000000000000          1.2673961825370042E-019
 -0.10679999999999999          1.1275686670622454E-019
 -0.10569999999999999         -2.9436465453557734E-019
 -0.10460000000000000          7.7179637274802171E-019
 -0.10349999999999999          3.4095603163756938E-018
 -0.10239999999999999         -2.6647561394849845E-018
 -0.10130000000000000         -2.4008300202614664E-017
 -0.10020000000000000         -2.3006915353057968E-017
  -9.9099999999999994E-002     5.9794438026845214E-017
  -9.7999999999999990E-002     1.6465781834608704E-016
  -9.6899999999999986E-002     6.5371819112269760E-017
  -9.5799999999999996E-002    -3.2096637999152924E-016
  -9.4699999999999993E-002    -5.9947475704590384E-016
  -9.3599999999999989E-002    -2.6554607304386444E-016
  -9.2499999999999999E-002     5.2617946087277234E-016
  -9.1399999999999995E-002     1.2265280598214605E-015
  -9.0299999999999991E-002     1.9775489754715386E-015
  -8.9200000000000002E-002     2.6896684207113053E-015
  -8.8099999999999984E-002     1.9473867145549642E-016
  -8.6999999999999994E-002    -9.5672515387974257E-015
  -8.5899999999999990E-002    -2.1019359755340694E-014
  -8.4799999999999986E-002    -1.4576910167753317E-014
  -8.3699999999999997E-002     2.3028633714576932E-014
  -8.2599999999999993E-002     6.8656255539697314E-014
  -8.1499999999999989E-002     7.0093866962831625E-014
  -8.0399999999999999E-002     1.8026841057085718E-015
  -7.9299999999999995E-002    -9.8447481720539964E-014
  -7.8199999999999992E-002    -1.7167476750075406E-013
  -7.7100000000000002E-002    -1.9459218578935650E-013
  -7.5999999999999984E-002    -1.4046687532749680E-013
  -7.4899999999999994E-002     9.1882786643938952E-014
  -7.3799999999999991E-002     5.6259543464859396E-013
  -7.2699999999999987E-002     1.0080224415592864E-012
  -7.1599999999999997E-002     8.3523894181189440E-013
  -7.0499999999999993E-002    -2.9889692066895068E-013
  -6.9399999999999989E-002    -1.8545852787515971E-012
  -6.8300000000000000E-002    -2.6645740735381507E-012
  -6.7199999999999996E-002    -2.0365256789972586E-012
  -6.6099999999999992E-002    -3.4666621786735852E-013
  -6.5000000000000002E-002     1.7393216858105354E-012
  -6.3899999999999985E-002     4.1749277646108141E-012
  -6.2799999999999995E-002     6.7709930544335162E-012
  -6.1699999999999991E-002     7.5979647920498827E-012
  -6.0599999999999994E-002     3.6871334978261228E-012
  -5.9499999999999990E-002    -5.3345960461526065E-012
  -5.8399999999999994E-002    -1.5047071227902720E-011
  -5.7299999999999990E-002    -1.9570289833126253E-011
  -5.6199999999999986E-002    -1.7235570609619444E-011
  -5.5099999999999996E-002    -1.0806308105293372E-011
  -5.3999999999999992E-002    -1.1947499196571232E-012
  -5.2899999999999989E-002     1.5830942459715835E-011
  -5.1799999999999985E-002     4.2452256987512982E-011
  -5.0699999999999995E-002     6.8811373266086662E-011
  -4.9599999999999991E-002     7.5453795989055550E-011
  -4.8499999999999988E-002     4.9080850494931383E-011
  -4.7399999999999998E-002    -6.5036509164229095E-012
  -4.6299999999999994E-002    -7.7458900404892006E-011
  -4.5199999999999990E-002    -1.5275535003578256E-010
  -4.4099999999999986E-002    -2.2125641596648649E-010
  -4.2999999999999997E-002    -2.5614368959203659E-010
  -4.1899999999999993E-002    -2.1505976166569241E-010
  -4.0799999999999989E-002    -6.9065093921683030E-011
  -3.9699999999999985E-002     1.6694895466073945E-010
  -3.8599999999999995E-002     4.3755224443664531E-010
  -3.7499999999999992E-002     6.7744704290717550E-010
  -3.6399999999999988E-002     8.2886497665413117E-010
  -3.5299999999999984E-002     8.2947032575830804E-010
  -3.4199999999999994E-002     6.0446825322912900E-010
  -3.3099999999999991E-002     9.7093395823311113E-011
  -3.1999999999999987E-002    -6.8152344878669169E-010
  -3.0899999999999997E-002    -1.6310373052164095E-009
  -2.9799999999999993E-002    -2.5782611601243843E-009
  -2.8699999999999989E-002    -3.2951075201737012E-009
  -2.7599999999999986E-002    -3.5026770373036697E-009
  -2.6499999999999996E-002    -2.8971782750630837E-009
  -2.5399999999999992E-002    -1.2209897537474035E-009
  -2.4299999999999988E-002     1.6695325122384475E-009
  -2.3199999999999985E-002     5.8055071860962926E-009
  -2.2099999999999995E-002     1.1159309920572014E-008
  -2.0999999999999991E-002     1.7666991425357992E-008
  -1.9899999999999987E-002     2.5200598940955388E-008
  -1.8799999999999983E-002     3.3585791925361264E-008
  -1.7699999999999994E-002     4.2738850680734686E-008
  -1.6599999999999990E-002     5.2840000819287525E-008
  -1.5499999999999986E-002     6.4385190512439294E-008
  -1.4399999999999996E-002     7.8097244227137708E-008
  -1.3299999999999992E-002     9.4849227139093273E-008
  -1.2199999999999989E-002     1.1570796232263092E-007
  -1.1099999999999985E-002     1.4199845566054137E-007
  -9.9999999999999950E-003     1.7523117890050344E-007
  -8.8999999999999913E-003     2.1693179519388650E-007
  -7.7999999999999875E-003     2.6858714363697800E-007
  -6.6999999999999837E-003     3.3180492664541816E-007
  -5.5999999999999939E-003     4.0853231553228397E-007
  -4.4999999999999901E-003     5.0113561655962258E-007
  -3.3999999999999864E-003     6.1238188209244981E-007
  -2.2999999999999826E-003     7.4549888040564838E-007
  -1.1999999999999927E-003     9.0435344191064360E-007
  -9.9999999999988987E-005     1.0935958698610193E-006
   1.0000000000000148E-003     1.3186783007768099E-006
   2.1000000000000185E-003     1.5858488495723577E-006
   3.2000000000000084E-003     1.9022547803615453E-006
   4.3000000000000121E-003     2.2760320916859200E-006
   5.4000000000000159E-003     2.7162593596585793E-006
   6.5000000000000058E-003     3.2328616725862958E-006
   7.6000000000000234E-003     3.8367288652807474E-006
   8.7000000000000133E-003     4.5400693124975078E-006
   9.8000000000000032E-003     5.3566172937280498E-006
   1.0900000000000021E-002     6.3015049818204716E-006
   1.2000000000000011E-002     7.3909591264964547E-006
   1.3100000000000001E-002     8.6424215623992495E-006
   1.4200000000000018E-002     1.0074964848172385E-005
   1.5300000000000008E-002     1.1709539649018552E-005
   1.6400000000000026E-002     1.3568715985456947E-005
   1.7500000000000016E-002     1.5676201655878685E-005
   1.8600000000000005E-002     1.8056522094411775E-005
   1.9700000000000023E-002     2.0735054931719787E-005
   2.0800000000000013E-002     2.3737784431432374E-005
   2.1900000000000003E-002     2.7090911316918209E-005
   2.3000000000000020E-002     3.0820170650258660E-005
   2.4100000000000010E-002     3.4950655390275642E-005
   2.5200000000000000E-002     3.9506474422523752E-005
   2.6300000000000018E-002     4.4510328734759241E-005
   2.7400000000000008E-002     4.9982558266492561E-005
   2.8500000000000025E-002     5.5940570746315643E-005
   2.9600000000000015E-002     6.2398074078373611E-005
   3.0700000000000005E-002     6.9364345108624548E-005
   3.1800000000000023E-002     7.6842814451083541E-005
   3.2900000000000013E-002     8.4829523984808475E-005
   3.4000000000000002E-002     9.3312548415269703E-005
   3.5100000000000020E-002     1.0227114398730919E-004
   3.6200000000000010E-002     1.1167464253958315E-004
   3.7300000000000028E-002     1.2148116366006434E-004
   3.8400000000000017E-002     1.3163697440177202E-004
   3.9500000000000007E-002     1.4207666390575469E-004
   4.0600000000000025E-002     1.5272156451828778E-004
   4.1700000000000015E-002     1.6347947530448437E-004
   4.2800000000000005E-002     1.7424303223378956E-004
   4.3900000000000022E-002     1.8489142530597746E-004
   4.5000000000000012E-002     1.9528978737071157E-004
   4.6100000000000002E-002     2.0528792811091989E-004
   4.7200000000000020E-002     2.1472298249136657E-004
   4.8300000000000010E-002     2.2341983276419342E-004
   4.9400000000000027E-002     2.3119278193917125E-004
   5.0500000000000017E-002     2.3784514633007348E-004
   5.1600000000000007E-002     2.4317443603649735E-004
   5.2700000000000025E-002     2.4697507615201175E-004
   5.3800000000000014E-002     2.4904077872633934E-004
   5.4900000000000004E-002     2.4916572147049010E-004
   5.6000000000000022E-002     2.4714632309041917E-004
   5.7100000000000012E-002     2.4279068748001009E-004
   5.8200000000000002E-002     2.3592173238284886E-004
   5.9300000000000019E-002     2.2637774236500263E-004
   6.0400000000000009E-002     2.1401948470156640E-004
   6.1500000000000027E-002     1.9873279961757362E-004
   6.2600000000000017E-002     1.8043183081317693E-004
   6.3700000000000007E-002     1.5906487533356994E-004
   6.4800000000000024E-002     1.3461906928569078E-004
   6.5900000000000014E-002     1.0712504445109516E-004
   6.7000000000000004E-002     7.6656411692965776E-005
   6.8100000000000022E-002     4.3327454477548599E-005
   6.9200000000000012E-002     7.3003693614737131E-006
   7.0300000000000029E-002    -3.1213898182613775E-005
   7.1400000000000019E-002    -7.1953574661165476E-005
   7.2500000000000009E-002    -1.1460663517937064E-004
   7.3600000000000027E-002    -1.5881810395512730E-004
   7.4700000000000016E-002    -2.0419685461092740E-004
   7.5800000000000006E-002    -2.5031523546203971E-004
   7.6900000000000024E-002    -2.9670982621610165E-004
   7.8000000000000014E-002    -3.4288194729015231E-004
   7.9100000000000004E-002    -3.8831008714623749E-004
   8.0200000000000021E-002    -4.3246248969808221E-004
   8.1300000000000011E-002    -4.7480638022534549E-004
   8.2400000000000029E-002    -5.1481183618307114E-004
   8.3500000000000019E-002    -5.5195600725710392E-004
   8.4600000000000009E-002    -5.8572890702635050E-004
   8.5700000000000026E-002    -6.1564409406855702E-004
   8.6800000000000016E-002    -6.4125546487048268E-004
   8.7900000000000006E-002    -6.6216674167662859E-004
   8.9000000000000024E-002    -6.7803659476339817E-004
   9.0100000000000013E-002    -6.8857904989272356E-004
   9.1200000000000003E-002    -6.9356529274955392E-004
   9.2300000000000021E-002    -6.9283210905268788E-004
   9.3400000000000011E-002    -6.8629079032689333E-004
   9.4500000000000028E-002    -6.7393376957625151E-004
   9.5600000000000018E-002    -6.5583246760070324E-004
   9.6700000000000008E-002    -6.3213636167347431E-004
   9.7800000000000026E-002    -6.0306373052299023E-004
   9.8900000000000016E-002    -5.6889804545789957E-004
  0.10000000000000001         -5.2998843602836132E-004
  0.10110000000000002         -4.8675376456230879E-004
  0.10220000000000001         -4.3967628153041005E-004
  0.10330000000000003         -3.8928879075683653E-004
  0.10440000000000002         -3.3615404390729964E-004
  0.10550000000000001         -2.8085854137316346E-004
  0.10660000000000003         -2.2400623129215091E-004
  0.10770000000000002         -1.6622450493741781E-004
  0.10880000000000001         -1.0815133282449096E-004
  0.10990000000000003         -5.0415725127095357E-005
  0.11100000000000002          6.3803354350966401E-006
  0.11210000000000001          6.1667204136028886E-005
  0.11320000000000002          1.1490587348816916E-004
  0.11430000000000001          1.6559245705138892E-004
  0.11540000000000003          2.1326710702851415E-004
  0.11650000000000002          2.5752504006959498E-004
  0.11760000000000001          2.9802453354932368E-004
  0.11870000000000003          3.3448255271650851E-004
  0.11980000000000002          3.6668346729129553E-004
  0.12090000000000001          3.9447296876460314E-004
  0.12200000000000003          4.1776071884669363E-004
  0.12310000000000001          4.3650751467794180E-004
  0.12420000000000003          4.5073346700519323E-004
  0.12530000000000002          4.6052804100327194E-004
  0.12640000000000001          4.6603893861174583E-004
  0.12750000000000003          4.6745256986469030E-004
  0.12860000000000002          4.6498520532622933E-004
  0.12970000000000001          4.5888638123869896E-004
  0.13080000000000003          4.4944667024537921E-004
  0.13190000000000002          4.3699066736735404E-004
  0.13300000000000001          4.2185903294011950E-004
  0.13410000000000000          4.0438811993226409E-004
  0.13520000000000004          3.8491570740006864E-004
  0.13630000000000003          3.6379010998643935E-004
  0.13740000000000002          3.4136197064071894E-004
  0.13850000000000001          3.1796790426596999E-004
  0.13960000000000000          2.9392275610007346E-004
  0.14070000000000005          2.6952390908263624E-004
  0.14180000000000004          2.4505439796485007E-004
  0.14290000000000003          2.2077525500208139E-004
  0.14400000000000002          1.9691561465151608E-004
  0.14510000000000001          1.7367665714118630E-004
  0.14620000000000000          1.5123969933483750E-004
  0.14730000000000004          1.2976559810340405E-004
  0.14840000000000003          1.0938328341580927E-004
  0.14950000000000002          9.0185349108651280E-005
  0.15060000000000001          7.2238661232404411E-005
  0.15170000000000000          5.5598891776753590E-005
  0.15280000000000005          4.0308699681190774E-005
  0.15390000000000004          2.6381343559478410E-005
  0.15500000000000003          1.3799506632494740E-005
  0.15610000000000002          2.5310516775789438E-006
  0.15720000000000001         -7.4541580943332519E-006
  0.15830000000000000         -1.6192481780308299E-005
  0.15940000000000004         -2.3741362383589149E-005
  0.16050000000000003         -3.0180217436281964E-005
  0.16160000000000002         -3.5587509046308696E-005
  0.16270000000000001         -4.0030739910434932E-005
  0.16380000000000000         -4.3574636947596446E-005
  0.16490000000000005         -4.6298897359520197E-005
  0.16600000000000004         -4.8293924919562414E-005
  0.16710000000000003         -4.9641275836620480E-005
  0.16820000000000002         -5.0408409151714295E-005
  0.16930000000000001         -5.0659538828767836E-005
  0.17040000000000000         -5.0467511755414307E-005
  0.17150000000000004         -4.9904236220754683E-005
  0.17260000000000003         -4.9026250053429976E-005
  0.17370000000000002         -4.7879726480459794E-005
  0.17480000000000001         -4.6516088332282379E-005
  0.17590000000000000         -4.4992426410317421E-005
  0.17700000000000005         -4.3354000808903947E-005
  0.17810000000000004         -4.1623778088251129E-005
  0.17920000000000003         -3.9818929508328438E-005
  0.18030000000000002         -3.7972520658513531E-005
  0.18140000000000001         -3.6127894418314099E-005
  0.18250000000000000         -3.4311346098547801E-005
  0.18360000000000004         -3.2523210393264890E-005
  0.18470000000000003         -3.0760798836126924E-005
  0.18580000000000002         -2.9041062589385547E-005
  0.18690000000000001         -2.7390435207053088E-005
  0.18800000000000000         -2.5818610083661042E-005
  0.18910000000000005         -2.4315051632584073E-005
  0.19020000000000004         -2.2873131456435658E-005
  0.19130000000000003         -2.1504383767023683E-005
  0.19240000000000002         -2.0221874365233816E-005
  0.19350000000000001         -1.9019587853108533E-005
  0.19460000000000005         -1.7880365703604184E-005
  0.19570000000000004         -1.6801062884042040E-005
  0.19680000000000003         -1.5795107174199075E-005
  0.19790000000000002         -1.4867970094201155E-005
  0.19900000000000001         -1.4004036529513542E-005
  0.20010000000000000         -1.3185594070819207E-005
  0.20120000000000005         -1.2415704077284317E-005
  0.20230000000000004         -1.1708783858921379E-005
  0.20340000000000003         -1.1062804333050735E-005
  0.20450000000000002         -1.0456095878907945E-005
  0.20560000000000000         -9.8756900115404278E-006
  0.20670000000000005         -9.3336138888844289E-006
  0.20780000000000004         -8.8450169641873799E-006
  0.20890000000000003         -8.4000930655747652E-006
