 -0.12000000000000000          0.0000000000000000
 -0.11889999999999999          0.0000000000000000
 -0.11780000000000000          0.0000000000000000
 -0.11670000000000000          0.0000000000000000
 -0.11559999999999999          0.0000000000000000
 -0.11449999999999999          0.0000000000000000
 -0.11340000000000000         -1.0370384665327475E-019
 -0.11230000000000000         -4.6409876227256865E-020
 -0.11119999999999999          8.2720873669385448E-019
 -0.11009999999999999          8.0862064416129255E-019
 -0.10900000000000000         -2.4883418826797283E-018
 -0.10790000000000000         -2.5798952668528631E-018
 -0.10679999999999999          4.4458120695224181E-018
 -0.10569999999999999         -8.2915616800998807E-018
 -0.10460000000000000         -4.1711786762958298E-017
 -0.10349999999999999          3.4793565756919995E-017
 -0.10239999999999999          2.8669140353912079E-016
 -0.10130000000000000          2.5638882632087780E-016
 -0.10020000000000000         -6.8406137298284960E-016
  -9.9099999999999994E-002    -1.7783003564977255E-015
  -9.7999999999999990E-002    -6.4952429277282515E-016
  -9.6899999999999986E-002     3.2767266276625268E-015
  -9.5799999999999996E-002     5.7871666883830847E-015
  -9.4699999999999993E-002     2.2170075190009342E-015
  -9.3599999999999989E-002    -5.0691211888860901E-015
  -9.2499999999999999E-002    -9.9055149933163777E-015
  -9.1399999999999995E-002    -1.3656558048584684E-014
  -9.0299999999999991E-002    -1.9275605214080262E-014
  -8.9200000000000002E-002    -7.1703405745467824E-015
  -8.8099999999999984E-002     5.4147770387489094E-014
  -8.6999999999999994E-002     1.3642902183409050E-013
  -8.5899999999999990E-002     1.1752883009256282E-013
  -8.4799999999999986E-002    -9.3426256856689316E-014
  -8.3699999999999997E-002    -3.7053053767582833E-013
  -8.2599999999999993E-002    -4.1808887623652480E-013
  -8.1499999999999989E-002    -1.0171629706047514E-013
  -8.0399999999999999E-002     3.5628252193116439E-013
  -7.9299999999999995E-002     6.6288993608512592E-013
  -7.8199999999999992E-002     8.2279506558730064E-013
  -7.7100000000000002E-002     9.0005449924698833E-013
  -7.5999999999999984E-002     4.4932590634316760E-013
  -7.4899999999999994E-002    -1.1745848434510653E-012
  -7.3799999999999991E-002    -3.4557812340907379E-012
  -7.2699999999999987E-002    -4.2359757194965209E-012
  -7.1599999999999997E-002    -1.7172210918861563E-012
  -7.0499999999999993E-002     2.9525605051150539E-012
  -6.9399999999999989E-002     6.3249323313530059E-012
  -6.8300000000000000E-002     6.5535025323137930E-012
  -6.7199999999999996E-002     5.3395486816765203E-012
  -6.6099999999999992E-002     4.4603713084123697E-012
  -6.5000000000000002E-002     1.5831729373652625E-012
  -6.3899999999999985E-002    -7.2067703367484359E-012
  -6.2799999999999995E-002    -1.9912897719631673E-011
  -6.1699999999999991E-002    -2.7178318623422015E-011
  -6.0599999999999994E-002    -2.1546920497828026E-011
  -5.9499999999999990E-002    -6.1065978662622200E-012
  -5.8399999999999994E-002     1.0584761366005946E-011
  -5.7299999999999990E-002     2.7202171071216696E-011
  -5.6199999999999986E-002     5.0020990821630917E-011
  -5.5099999999999996E-002     7.6652982572422701E-011
  -5.3999999999999992E-002     8.5816118100545680E-011
  -5.2899999999999989E-002     5.3101446850778444E-011
  -5.1799999999999985E-002    -2.2090558549070494E-011
  -5.0699999999999995E-002    -1.1234477237387352E-010
  -4.9599999999999991E-002    -1.8649713717788785E-010
  -4.8499999999999988E-002    -2.2949625533286167E-010
  -4.7399999999999998E-002    -2.3298921125736172E-010
  -4.6299999999999994E-002    -1.7724297030063951E-010
  -4.5199999999999990E-002    -3.9997807149694253E-011
  -4.4099999999999986E-002     1.7328639911884380E-010
  -4.2999999999999997E-002     4.1959896668330998E-010
  -4.1899999999999993E-002     6.4424493517734049E-010
  -4.0799999999999989E-002     8.0668832724839490E-010
  -3.9699999999999985E-002     8.7561657924339897E-010
  -3.8599999999999995E-002     8.1776513338738255E-010
  -3.7499999999999992E-002     6.2022359470503829E-010
  -3.6399999999999988E-002     3.2891836476700576E-010
  -3.5299999999999984E-002     4.5455618435941147E-011
  -3.4199999999999994E-002    -1.2487524903015412E-010
  -3.3099999999999991E-002    -1.0976027031706082E-010
  -3.1999999999999987E-002     1.4637276113393938E-010
  -3.0899999999999997E-002     6.9391653534367492E-010
  -2.9799999999999993E-002     1.5184220547581617E-009
  -2.8699999999999989E-002     2.4584039248765066E-009
  -2.7599999999999986E-002     3.2189706455909572E-009
  -2.6499999999999996E-002     3.4918150593199471E-009
  -2.5399999999999992E-002     3.0425288954916141E-009
  -2.4299999999999988E-002     1.6652327294863767E-009
  -2.3199999999999985E-002    -8.9585011631143630E-010
  -2.2099999999999995E-002    -4.8898445292877568E-009
  -2.0999999999999991E-002    -1.0389110904895915E-008
  -1.9899999999999987E-002    -1.7221841730474807E-008
  -1.8799999999999983E-002    -2.5130891145863643E-008
  -1.7699999999999994E-002    -3.4010309235554814E-008
  -1.6599999999999990E-002    -4.3996102760957001E-008
  -1.5499999999999986E-002    -5.5407461729828356E-008
  -1.4399999999999996E-002    -6.8720865442628565E-008
  -1.3299999999999992E-002    -8.4656122112392040E-008
  -1.2199999999999989E-002    -1.0424464846892079E-007
  -1.1099999999999985E-002    -1.2877303845471033E-007
  -9.9999999999999950E-003    -1.5969087030498486E-007
  -8.8999999999999913E-003    -1.9860766542478814E-007
  -7.7999999999999875E-003    -2.4732460701670789E-007
  -6.6999999999999837E-003    -3.0777533766013221E-007
  -5.5999999999999939E-003    -3.8194352214304672E-007
  -4.4999999999999901E-003    -4.7200160224747378E-007
  -3.3999999999999864E-003    -5.8066450492333388E-007
  -2.2999999999999826E-003    -7.1144040703075007E-007
  -1.1999999999999927E-003    -8.6851861169634503E-007
  -9.9999999999988987E-005    -1.0565516959104571E-006
   1.0000000000000148E-003    -1.2807665825675940E-006
   2.1000000000000185E-003    -1.5473544863198185E-006
   3.2000000000000084E-003    -1.8637236962604220E-006
   4.3000000000000121E-003    -2.2382876068149926E-006
   5.4000000000000159E-003    -2.6801374133356148E-006
   6.5000000000000058E-003    -3.1991303330869414E-006
   7.6000000000000234E-003    -3.8063783449615585E-006
   8.7000000000000133E-003    -4.5144965952204075E-006
   9.8000000000000032E-003    -5.3374428716779221E-006
   1.0900000000000021E-002    -6.2903209254727699E-006
   1.2000000000000011E-002    -7.3894152592401952E-006
   1.3100000000000001E-002    -8.6525078586419113E-006
   1.4200000000000018E-002    -1.0098974598804489E-005
   1.5300000000000008E-002    -1.1749682016670704E-005
   1.6400000000000026E-002    -1.3626915460918099E-005
   1.7500000000000016E-002    -1.5754330888739787E-005
   1.8600000000000005E-002    -1.8156673831981607E-005
   1.9700000000000023E-002    -2.0859346477664076E-005
   2.0800000000000013E-002    -2.3887836505309679E-005
   2.1900000000000003E-002    -2.7267655241303146E-005
   2.3000000000000020E-002    -3.1024515919853002E-005
   2.4100000000000010E-002    -3.5183671570848674E-005
   2.5200000000000000E-002    -3.9768809074303135E-005
   2.6300000000000018E-002    -4.4801217882195488E-005
   2.7400000000000008E-002    -5.0300019211135805E-005
   2.8500000000000025E-002    -5.6281463912455365E-005
   2.9600000000000015E-002    -6.2759034335613251E-005
   3.0700000000000005E-002    -6.9740941398777068E-005
   3.1800000000000023E-002    -7.7229611633811146E-005
   3.2900000000000013E-002    -8.5220148321241140E-005
   3.4000000000000002E-002    -9.3700000434182584E-005
   3.5100000000000020E-002    -1.0264719458064064E-004
   3.6200000000000010E-002    -1.1203015310456976E-004
   3.7300000000000028E-002    -1.2180623889435083E-004
   3.8400000000000017E-002    -1.3192130427341908E-004
   3.9500000000000007E-002    -1.4230961096473038E-004
   4.0600000000000025E-002    -1.5289233124349266E-004
   4.1700000000000015E-002    -1.6357630374841392E-004
   4.2800000000000005E-002    -1.7425449914298952E-004
   4.3900000000000022E-002    -1.8480590370018035E-004
   4.5000000000000012E-002    -1.9509716366883367E-004
   4.6100000000000002E-002    -2.0498057710938156E-004
   4.7200000000000020E-002    -2.1429467597045004E-004
   4.8300000000000010E-002    -2.2286633611656725E-004
   4.9400000000000027E-002    -2.3051160678733140E-004
   5.0500000000000017E-002    -2.3703677288722247E-004
   5.1600000000000007E-002    -2.4224155640695244E-004
   5.2700000000000025E-002    -2.4592500994913280E-004
   5.3800000000000014E-002    -2.4788378505036235E-004
   5.4900000000000004E-002    -2.4791460600681603E-004
   5.6000000000000022E-002    -2.4581945035606623E-004
   5.7100000000000012E-002    -2.4140811001416296E-004
   5.8200000000000002E-002    -2.3450507433153689E-004
   5.9300000000000019E-002    -2.2495178563985974E-004
   6.0400000000000009E-002    -2.1261122310534120E-004
   6.1500000000000027E-002    -1.9737209368031472E-004
   6.2600000000000017E-002    -1.7915217904374003E-004
   6.3700000000000007E-002    -1.5790102770552039E-004
   6.4800000000000024E-002    -1.3360171578824520E-004
   6.5900000000000014E-002    -1.0628111340338364E-004
   6.7000000000000004E-002    -7.6012394856661558E-005
   6.8100000000000022E-002    -4.2912000935757533E-005
   6.9200000000000012E-002    -7.1402491812477820E-006
   7.0300000000000029E-002     3.1098148610908538E-005
   7.1400000000000019E-002     7.1551461587660015E-005
   7.2500000000000009E-002     1.1391351290512830E-004
   7.3600000000000027E-002     1.5783352137077600E-004
   7.4700000000000016E-002     2.0292312547098845E-004
   7.5800000000000006E-002     2.4876071256585419E-004
   7.6900000000000024E-002     2.9489083681255579E-004
   7.8000000000000014E-002     3.4082599449902773E-004
   7.9100000000000004E-002     3.8605110603384674E-004
   8.0200000000000021E-002     4.3003860628232360E-004
   8.1300000000000011E-002     4.7225851449184120E-004
   8.2400000000000029E-002     5.1218445878475904E-004
   8.3500000000000019E-002     5.4929696489125490E-004
   8.4600000000000009E-002     5.8308977168053389E-004
   8.5700000000000026E-002     6.1308237491175532E-004
   8.6800000000000016E-002     6.3882779795676470E-004
   8.7900000000000006E-002     6.5992184681817889E-004
   8.9000000000000024E-002     6.7601725459098816E-004
   9.0100000000000013E-002     6.8682775599882007E-004
   9.1200000000000003E-002     6.9212494418025017E-004
   9.2300000000000021E-002     6.9174054078757763E-004
   9.3400000000000011E-002     6.8557378835976124E-004
   9.4500000000000028E-002     6.7360344110056758E-004
   9.5600000000000018E-002     6.5589509904384613E-004
   9.6700000000000008E-002     6.3259486341848969E-004
   9.7800000000000026E-002     6.0391356237232685E-004
   9.8900000000000016E-002     5.7012343313544989E-004
  0.10000000000000001          5.3156359354034066E-004
  0.10110000000000002          4.8864597920328379E-004
  0.10220000000000001          4.4184457510709763E-004
  0.10330000000000003          3.9168697549030185E-004
  0.10440000000000002          3.3873211941681802E-004
  0.10550000000000001          2.8356225811876357E-004
  0.10660000000000003          2.2678733512293547E-004
  0.10770000000000002          1.6902701463550329E-004
  0.10880000000000001          1.1091642954852432E-004
  0.10990000000000003          5.3082800150150433E-005
  0.11100000000000002         -3.8635002965747844E-006
  0.11210000000000001         -5.9341095038689673E-005
  0.11320000000000002         -1.1280281614745036E-004
  0.11430000000000001         -1.6374773986171931E-004
  0.11540000000000003         -2.1171607659198344E-004
  0.11650000000000002         -2.5629487936384976E-004
  0.11760000000000001         -2.9712682589888573E-004
  0.11870000000000003         -3.3391598844900727E-004
  0.11980000000000002         -3.6644632928073406E-004
  0.12090000000000001         -3.9456362719647586E-004
  0.12200000000000003         -4.1816741577349603E-004
  0.12310000000000001         -4.3721322435885668E-004
  0.12420000000000003         -4.5172160025686026E-004
  0.12530000000000002         -4.6177810872904956E-004
  0.12640000000000001         -4.6752084745094180E-004
  0.12750000000000003         -4.6912927064113319E-004
  0.12860000000000002         -4.6682587708346546E-004
  0.12970000000000001         -4.6087335795164108E-004
  0.13080000000000003         -4.5156962005421519E-004
  0.13190000000000002         -4.3923087650910020E-004
  0.13300000000000001         -4.2418806697241962E-004
  0.13410000000000000         -4.0678953519091010E-004
  0.13520000000000004         -3.8739736191928387E-004
  0.13630000000000003         -3.6637223092839122E-004
  0.13740000000000002         -3.4406047780066729E-004
  0.13850000000000001         -3.2079717493616045E-004
  0.13960000000000000         -2.9691451345570385E-004
  0.14070000000000005         -2.7273391606286168E-004
  0.14180000000000004         -2.4854869116097689E-004
  0.14290000000000003         -2.2461860498879105E-004
  0.14400000000000002         -2.0118227985221893E-004
  0.14510000000000001         -1.7846746777649969E-004
  0.14620000000000000         -1.5667917614337057E-004
  0.14730000000000004         -1.3598296209238470E-004
  0.14840000000000003         -1.1650533269857988E-004
  0.14950000000000002         -9.8356584203429520E-005
  0.15060000000000001         -8.1639009295031428E-005
  0.15170000000000000         -6.6433844040147960E-005
  0.15280000000000005         -5.2781928388867527E-005
  0.15390000000000004         -4.0696479118196294E-005
  0.15500000000000003         -3.0184668503352441E-005
  0.15610000000000002         -2.1250833015074022E-005
  0.15720000000000001         -1.3879276593797840E-005
  0.15830000000000000         -8.0283671195502393E-006
  0.15940000000000004         -3.6449573599384166E-006
  0.16050000000000003         -6.8036359834877658E-007
  0.16160000000000002          9.1632983867384610E-007
  0.16270000000000001          1.2141716752012144E-006
  0.16380000000000000          2.9874615847802488E-007
  0.16490000000000005         -1.7482128669144004E-006
  0.16600000000000004         -4.8572878768027294E-006
  0.16710000000000003         -8.9525283328839578E-006
  0.16820000000000002         -1.3936055438534822E-005
  0.16930000000000001         -1.9701668861671351E-005
  0.17040000000000000         -2.6156651074416004E-005
  0.17150000000000004         -3.3220341720152646E-005
  0.17260000000000003         -4.0797640394885093E-005
  0.17370000000000002         -4.8766545660328120E-005
  0.17480000000000001         -5.7000408560270444E-005
  0.17590000000000000         -6.5392487158533186E-005
  0.17700000000000005         -7.3845680162776262E-005
  0.17810000000000004         -8.2241771451663226E-005
  0.17920000000000003         -9.0435110905673355E-005
  0.18030000000000002         -9.8279218946117908E-005
  0.18140000000000001         -1.0564671538304538E-004
  0.18250000000000000         -1.1241475294809788E-004
  0.18360000000000004         -1.1844016262330115E-004
  0.18470000000000003         -1.2356448860373348E-004
  0.18580000000000002         -1.2764049461111426E-004
  0.18690000000000001         -1.3053855218458921E-004
  0.18800000000000000         -1.3212524936534464E-004
  0.18910000000000005         -1.3225368456915021E-004
  0.19020000000000004         -1.3078383926767856E-004
  0.19130000000000003         -1.2760916433762759E-004
  0.19240000000000002         -1.2264602992217988E-004
  0.19350000000000001         -1.1580431601032615E-004
  0.19460000000000005         -1.0698805999709293E-004
  0.19570000000000004         -9.6130926976911724E-005
  0.19680000000000003         -8.3220387750770897E-005
  0.19790000000000002         -6.8276356614660472E-005
  0.19900000000000001         -5.1317943871254101E-005
  0.20010000000000000         -3.2370542612625286E-005
  0.20120000000000005         -1.1503149835334625E-005
  0.20230000000000004          1.1154925232403912E-005
  0.20340000000000003          3.5443656088318676E-005
  0.20450000000000002          6.1200487834867090E-005
  0.20560000000000000          8.8241882622241974E-005
  0.20670000000000005          1.1633334361249581E-004
  0.20780000000000004          1.4519321848638356E-004
  0.20890000000000003          1.7452880274504423E-004
