 -0.12000000000000000          0.0000000000000000
 -0.11889999999999999          0.0000000000000000
 -0.11780000000000000          0.0000000000000000
 -0.11670000000000000          1.2546763107634806E-011
 -0.11559999999999999          1.3697711367943732E-011
 -0.11449999999999999         -3.8519888667654101E-011
 -0.11340000000000000         -6.0437016502490337E-011
 -0.11230000000000000          8.1728214473830718E-011
 -0.11119999999999999          2.1664814386923581E-010
 -0.11009999999999999         -3.4040596730289252E-011
 -0.10900000000000000         -4.8208065317467685E-010
 -0.10790000000000000         -2.7206731312290344E-010
 -0.10679999999999999          7.1667344281323153E-010
 -0.10569999999999999          1.0246072879027679E-009
 -0.10460000000000000         -4.2161374391724848E-010
 -0.10349999999999999         -1.8818482327986885E-009
 -0.10239999999999999         -6.0493343667644695E-010
 -0.10130000000000000          2.4258650643815827E-009
 -0.10020000000000000          2.5024655680994101E-009
  -9.9099999999999994E-002    -1.8537364976367599E-009
  -9.7999999999999990E-002    -4.8300967669945294E-009
  -9.6899999999999986E-002    -6.5601379883872823E-010
  -9.5799999999999996E-002     6.4044045622324575E-009
  -9.4699999999999993E-002     5.8165889882388910E-009
  -9.3599999999999989E-002    -3.7803649099998893E-009
  -9.2499999999999999E-002    -9.8755350563806132E-009
  -9.1399999999999995E-002    -2.5646724743921823E-009
  -9.0299999999999991E-002     9.5435108704577942E-009
  -8.9200000000000002E-002     9.3253875732557390E-009
  -8.8099999999999984E-002    -4.2171026670700940E-009
  -8.6999999999999994E-002    -1.2694454376571684E-008
  -8.5899999999999990E-002    -3.9121625938776106E-009
  -8.4799999999999986E-002     9.9854435831048249E-009
  -8.3699999999999997E-002     9.7388079822735563E-009
  -8.2599999999999993E-002    -2.9504445553385494E-009
  -8.1499999999999989E-002    -8.7991400832265754E-009
  -8.0399999999999999E-002    -8.1161882770075522E-010
  -7.9299999999999995E-002     5.8463021090915390E-009
  -7.8199999999999992E-002    -3.1166291769579857E-010
  -7.7100000000000002E-002    -7.3378534359846981E-009
  -7.5999999999999984E-002     2.6067440307003809E-012
  -7.4899999999999994E-002     1.1607259153834093E-008
  -7.3799999999999991E-002     4.7749653120376934E-009
  -7.2699999999999987E-002    -1.6708000316612015E-008
  -7.1599999999999997E-002    -2.0921376631122257E-008
  -7.0499999999999993E-002     5.0175761323600909E-009
  -6.9399999999999989E-002     2.8317584721548883E-008
  -6.8300000000000000E-002     1.2552283656930285E-008
  -6.7199999999999996E-002    -2.6888463011687236E-008
  -6.6099999999999992E-002    -3.8679257130525002E-008
  -6.5000000000000002E-002    -6.8551542220518513E-009
  -6.3899999999999985E-002     2.4598611148007876E-008
  -6.2799999999999995E-002     1.2654564507386112E-008
  -6.1699999999999991E-002    -2.5248594326399143E-008
  -6.0599999999999994E-002    -3.9291585096634662E-008
  -5.9499999999999990E-002    -1.9410153484500370E-008
  -5.8399999999999994E-002    -3.7977163636071509E-009
  -5.7299999999999990E-002    -1.5915663453824891E-008
  -5.6199999999999986E-002    -3.1356048424413530E-008
  -5.5099999999999996E-002    -2.4918396235307227E-008
  -5.3999999999999992E-002    -1.7667669993670643E-008
  -5.2899999999999989E-002    -4.2300264624373085E-008
  -5.1799999999999985E-002    -8.0383536271710909E-008
  -5.0699999999999995E-002    -7.9860299706524529E-008
  -4.9599999999999991E-002    -3.7813578046552720E-008
  -4.8499999999999988E-002    -1.9334718714958399E-008
  -4.7399999999999998E-002    -6.9043757378040027E-008
  -4.6299999999999994E-002    -1.3947962429483596E-007
  -4.5199999999999990E-002    -1.5016995291716739E-007
  -4.4099999999999986E-002    -1.0024763241744949E-007
  -4.2999999999999997E-002    -7.1607423990371899E-008
  -4.1899999999999993E-002    -1.1483549400281845E-007
  -4.0799999999999989E-002    -1.8238506527268328E-007
  -3.9699999999999985E-002    -2.0372689846226422E-007
  -3.8599999999999995E-002    -1.8455594386068697E-007
  -3.7499999999999992E-002    -1.8541034307872906E-007
  -3.6399999999999988E-002    -2.2232156027257588E-007
  -3.5299999999999984E-002    -2.4812757715153566E-007
  -3.4199999999999994E-002    -2.3917490921121498E-007
  -3.3099999999999991E-002    -2.4114100938277261E-007
  -3.1999999999999987E-002    -2.9350266572691908E-007
  -3.0899999999999997E-002    -3.5240782381151803E-007
  -2.9799999999999993E-002    -3.4678424754019943E-007
  -2.8699999999999989E-002    -2.9020611691521481E-007
  -2.7599999999999986E-002    -2.7517043577063305E-007
  -2.6499999999999996E-002    -3.4213570643260027E-007
  -2.5399999999999992E-002    -4.1482653045932238E-007
  -2.4299999999999988E-002    -4.0529283751311596E-007
  -2.3199999999999985E-002    -3.3612784022807318E-007
  -2.2099999999999995E-002    -3.0349946200658451E-007
  -2.0999999999999991E-002    -3.3654134767857613E-007
  -1.9899999999999987E-002    -3.6625277743951301E-007
  -1.8799999999999983E-002    -3.3378424291186093E-007
  -1.7699999999999994E-002    -2.7622689913187060E-007
  -1.6599999999999990E-002    -2.5727987917889550E-007
  -1.5499999999999986E-002    -2.6014041054622794E-007
  -1.4399999999999996E-002    -2.1584932596852013E-007
  -1.3299999999999992E-002    -1.2202750099277182E-007
  -1.2199999999999989E-002    -5.4935224369501157E-008
  -1.1099999999999985E-002    -5.3011195433327885E-008
  -9.9999999999999950E-003    -4.7279502979336030E-008
  -8.8999999999999913E-003     4.1310045162390452E-008
  -7.7999999999999875E-003     1.8241615862280014E-007
  -6.6999999999999837E-003     2.7584940198721597E-007
  -5.5999999999999939E-003     2.9358764663811598E-007
  -4.4999999999999901E-003     3.1809736356080975E-007
  -3.3999999999999864E-003     4.1583993493077287E-007
  -2.2999999999999826E-003     5.4527168913409696E-007
  -1.1999999999999927E-003     6.2543568901674007E-007
  -9.9999999999988987E-005     6.5800662696346990E-007
   1.0000000000000148E-003     7.1279742996921414E-007
   2.1000000000000185E-003     8.1285725173074752E-007
   3.2000000000000084E-003     8.9967716121464036E-007
   4.3000000000000121E-003     9.2296460252327961E-007
   5.4000000000000159E-003     9.2592381406575441E-007
   6.5000000000000058E-003     9.7813313004735392E-007
   7.6000000000000234E-003     1.0623080015648156E-006
   8.7000000000000133E-003     1.0912441439359100E-006
   9.8000000000000032E-003     1.0431839427837986E-006
   1.0900000000000021E-002     9.9676913123403210E-007
   1.2000000000000011E-002     1.0094340723298956E-006
   1.3100000000000001E-002     1.0372310725870193E-006
   1.4200000000000018E-002     9.9747546755679650E-007
   1.5300000000000008E-002     8.9474769993103109E-007
   1.6400000000000026E-002     8.0726908890937921E-007
   1.7500000000000016E-002     7.6914585633858223E-007
   1.8600000000000005E-002     7.2353964242211077E-007
   1.9700000000000023E-002     6.1494165493058972E-007
   2.0800000000000013E-002     4.7516894596810744E-007
   2.1900000000000003E-002     3.7120796037015680E-007
   2.3000000000000020E-002     3.0255739602580434E-007
   2.4100000000000010E-002     2.0870534456207679E-007
   2.5200000000000000E-002     6.5300902463150123E-008
   2.6300000000000018E-002    -7.4851499221040285E-008
   2.7400000000000008E-002    -1.6616209563835582E-007
   2.8500000000000025E-002    -2.3734261844765570E-007
   2.9600000000000015E-002    -3.4226198408759956E-007
   3.0700000000000005E-002    -4.7427189997506503E-007
   3.1800000000000023E-002    -5.7400097830395680E-007
   3.2900000000000013E-002    -6.2292747315950692E-007
   3.4000000000000002E-002    -6.6566803980094846E-007
   3.5100000000000020E-002    -7.4206627687090077E-007
   3.6200000000000010E-002    -8.1965492881863611E-007
   3.7300000000000028E-002    -8.5075549804969341E-007
   3.8400000000000017E-002    -8.4675826883540140E-007
   3.9500000000000007E-002    -8.4930258026361116E-007
   4.0600000000000025E-002    -8.7014700511645060E-007
   4.1700000000000015E-002    -8.7457067365903640E-007
   4.2800000000000005E-002    -8.4360590335563757E-007
   4.3900000000000022E-002    -7.9600096114518237E-007
   4.5000000000000012E-002    -7.6243389912633575E-007
   4.6100000000000002E-002    -7.3520646992619731E-007
   4.7200000000000020E-002    -6.8493733351715491E-007
   4.8300000000000010E-002    -6.0601109908020590E-007
   4.9400000000000027E-002    -5.3474735750569380E-007
   5.0500000000000017E-002    -4.8301996002919623E-007
   5.1600000000000007E-002    -4.2692761326179607E-007
   5.2700000000000025E-002    -3.5098503303743200E-007
   5.3800000000000014E-002    -2.7272793090560299E-007
   5.4900000000000004E-002    -2.0860989025095478E-007
   5.6000000000000022E-002    -1.5339260528435261E-007
   5.7100000000000012E-002    -8.6974949908835697E-008
   5.8200000000000002E-002    -1.8555697423039419E-008
   5.9300000000000019E-002     2.5755914734304497E-008
   6.0400000000000009E-002     5.4729795806451875E-008
   6.1500000000000027E-002     9.5353364315542422E-008
   6.2600000000000017E-002     1.5179675472154486E-007
   6.3700000000000007E-002     1.9506133241975476E-007
   6.4800000000000024E-002     2.0683229706719430E-007
   6.5900000000000014E-002     2.0820473878302437E-007
   6.7000000000000004E-002     2.2667823884603422E-007
   6.8100000000000022E-002     2.5107405576818564E-007
   6.9200000000000012E-002     2.5217821075784741E-007
   7.0300000000000029E-002     2.3441626240128244E-007
   7.1400000000000019E-002     2.3164150775301096E-007
   7.2500000000000009E-002     2.4842890411491680E-007
   7.3600000000000027E-002     2.4618594807179761E-007
   7.4700000000000016E-002     2.0427221159025066E-007
   7.5800000000000006E-002     1.6037532191148784E-007
   7.6900000000000024E-002     1.5899092886684230E-007
   7.8000000000000014E-002     1.8269902568590624E-007
   7.9100000000000004E-002     1.7288762421685533E-007
   8.0200000000000021E-002     1.2037082797178300E-007
   8.1300000000000011E-002     7.8660839619715262E-008
   8.2400000000000029E-002     8.2240845244996308E-008
   8.3500000000000019E-002     9.3558945479799149E-008
   8.4600000000000009E-002     6.4182700043602381E-008
   8.5700000000000026E-002     1.5620322812992526E-008
   8.6800000000000016E-002     8.4514688580838992E-009
   8.7900000000000006E-002     3.8775095134724324E-008
   8.9000000000000024E-002     3.8749927711023702E-008
   9.0100000000000013E-002    -1.8602063889261444E-008
   9.1200000000000003E-002    -6.5433134466275078E-008
   9.2300000000000021E-002    -3.8303699767539001E-008
   9.3400000000000011E-002     2.0942970024862007E-008
   9.4500000000000028E-002     2.0892384711146406E-008
   9.5600000000000018E-002    -4.5657202463189606E-008
   9.6700000000000008E-002    -8.8084476601579809E-008
   9.7800000000000026E-002    -5.3774996899846883E-008
   9.8900000000000016E-002    -2.9794442468755733E-009
  0.10000000000000001         -1.4006029225299699E-008
  0.10110000000000002         -6.1293739861412178E-008
  0.10220000000000001         -6.1320207578319241E-008
  0.10330000000000003         -9.8742143350705192E-009
  0.10440000000000002          8.1421971387385383E-009
  0.10550000000000001         -4.3092750701134719E-008
  0.10660000000000003         -8.4577379766415106E-008
  0.10770000000000002         -4.1341312595477575E-008
  0.10880000000000001          3.4529300307895028E-008
  0.10990000000000003          3.2354193990613567E-008
  0.11100000000000002         -4.6905928030582800E-008
  0.11210000000000001         -8.6731290593888843E-008
  0.11320000000000002         -2.6967132527033755E-008
  0.11430000000000001          4.5296538075945136E-008
  0.11540000000000003          2.7338314723124313E-008
  0.11650000000000002         -4.5218900623922309E-008
  0.11760000000000001         -5.5976737911578311E-008
  0.11870000000000003          1.1268351585158598E-008
  0.11980000000000002          4.9257518952572354E-008
  0.12090000000000001         -2.8129982787561403E-009
  0.12200000000000003         -6.2850638471445563E-008
  0.12310000000000001         -3.2031511665309154E-008
  0.12420000000000003          4.8334047875187025E-008
  0.12530000000000002          5.7014521104292726E-008
  0.12640000000000001         -2.0196553762730218E-008
  0.12750000000000003         -6.6885199601074419E-008
  0.12860000000000002         -1.3075423410668918E-008
  0.12970000000000001          5.7623505966830635E-008
  0.13080000000000003          3.8271316782356735E-008
  0.13190000000000002         -3.6886220300402783E-008
  0.13300000000000001         -4.7666077307439991E-008
  0.13410000000000000          2.2673692257058065E-008
  0.13520000000000004          6.0285053393727139E-008
  0.13630000000000003         -2.1446133757763164E-010
  0.13740000000000002         -6.8333285696553503E-008
  0.13850000000000001         -3.4660065040270638E-008
  0.13960000000000000          5.7854826707171014E-008
  0.14070000000000005          7.2854973609537410E-008
  0.14180000000000004         -1.3743230553586727E-008
  0.14290000000000003         -7.6253769520917558E-008
  0.14400000000000002         -2.6297565014488100E-008
  0.14510000000000001          5.7427893551675879E-008
  0.14620000000000000          5.1756892105458974E-008
  0.14730000000000004         -2.6662339891458942E-008
  0.14840000000000003         -5.5095611628530605E-008
  0.14950000000000002          3.7448772971515609E-009
  0.15060000000000001          4.9779259825299960E-008
  0.15170000000000000          8.2415265723057018E-009
  0.15280000000000005         -5.1823850100163327E-008
  0.15390000000000004         -2.8576137012237268E-008
  0.15500000000000003          4.8208004699290541E-008
  0.15610000000000002          5.9156477050237299E-008
  0.15720000000000001         -1.9049767985279686E-008
  0.15830000000000000         -7.2637476478121243E-008
  0.15940000000000004         -2.1550269124759325E-008
  0.16050000000000003          5.8846438832915737E-008
  0.16160000000000002          5.1245244492292841E-008
  0.16270000000000001         -2.8389969486397604E-008
  0.16380000000000000         -5.9041809663540334E-008
  0.16490000000000005          7.5784922781707564E-010
  0.16600000000000004          5.4903850355003669E-008
  0.16710000000000003          2.1360429869332620E-008
  0.16820000000000002         -4.3466119592494579E-008
  0.16930000000000001         -3.6531680791540566E-008
  0.17040000000000000          3.1090792163013248E-008
  0.17150000000000004          5.3023569535071147E-008
  0.17260000000000003         -6.7775749457155143E-009
  0.17370000000000002         -5.8377906952955527E-008
  0.17480000000000001         -2.4299277257000540E-008
  0.17590000000000000          4.3457028198190528E-008
  0.17700000000000005          4.4553726041840491E-008
  0.17810000000000004         -1.7996590884195030E-008
  0.17920000000000003         -4.7488022403285868E-008
  0.18030000000000002         -3.2994675880360091E-009
  0.18140000000000001          4.1324060617853320E-008
  0.18250000000000000          1.7176244426764242E-008
  0.18360000000000004         -3.4948193672335037E-008
  0.18470000000000003         -3.1719817883413270E-008
  0.18580000000000002          2.1834047458924033E-008
  0.18690000000000001          4.1378061865771087E-008
  0.18800000000000000         -4.4576999869150313E-009
  0.18910000000000005         -4.5333461429208910E-008
  0.19020000000000004         -1.7638416949239399E-008
  0.19130000000000003          3.8115889111622892E-008
  0.19240000000000002          3.9312155308834917E-008
  0.19350000000000001         -1.4611440057876734E-008
  0.19460000000000005         -4.4029274448575961E-008
  0.19570000000000004         -9.5731014226885236E-009
  0.19680000000000003          3.3172625535371481E-008
  0.19790000000000002          2.1946775063952373E-008
  0.19900000000000001         -2.0597596517291095E-008
  0.20010000000000000         -2.7640963295993970E-008
  0.20120000000000005          8.7574028029280271E-009
  0.20230000000000004          3.0650756599470697E-008
  0.20340000000000003          6.4437339908351987E-009
  0.20450000000000002         -2.3430102302768319E-008
  0.20560000000000000         -1.3276149068985887E-008
  0.20670000000000005          1.7650711114924889E-008
  0.20780000000000004          1.8717162930670384E-008
  0.20890000000000003         -1.1883402706303059E-008
