 -0.12000000000000000          0.0000000000000000
 -0.11889999999999999          0.0000000000000000
 -0.11780000000000000          0.0000000000000000
 -0.11670000000000000          0.0000000000000000
 -0.11559999999999999          0.0000000000000000
 -0.11449999999999999          0.0000000000000000
 -0.11340000000000000          0.0000000000000000
 -0.11230000000000000          0.0000000000000000
 -0.11119999999999999          0.0000000000000000
 -0.11009999999999999          0.0000000000000000
 -0.10900000000000000          0.0000000000000000
 -0.10790000000000000          0.0000000000000000
 -0.10679999999999999          0.0000000000000000
 -0.10569999999999999          0.0000000000000000
 -0.10460000000000000          0.0000000000000000
 -0.10349999999999999          0.0000000000000000
 -0.10239999999999999          0.0000000000000000
 -0.10130000000000000          0.0000000000000000
 -0.10020000000000000          0.0000000000000000
  -9.9099999999999994E-002     0.0000000000000000
  -9.7999999999999990E-002     1.4913450628632512E-038
  -9.6899999999999986E-002    -1.8013099850424193E-037
  -9.5799999999999996E-002     1.0892723442085044E-037
  -9.4699999999999993E-002     2.6624823283444443E-036
  -9.3599999999999989E-002    -3.9959862868560827E-036
  -9.2499999999999999E-002    -2.9495041629520942E-035
  -9.1399999999999995E-002     5.4106747969996231E-035
  -9.0299999999999991E-002     2.8228098639568229E-034
  -8.9200000000000002E-002    -4.9113549876896774E-034
  -8.8099999999999984E-002    -2.4500356719738686E-033
  -8.6999999999999994E-002     3.2310548734823282E-033
  -8.5899999999999990E-002     1.9282466968159127E-032
  -8.4799999999999986E-002    -1.3873766198108294E-032
  -8.3699999999999997E-002    -1.3467855068331499E-031
  -8.2599999999999993E-002     7.0790745691494573E-033
  -8.1499999999999989E-002     8.1077606958135801E-031
  -8.0399999999999999E-002     5.3403644051359776E-031
  -7.9299999999999995E-002    -4.0412619332682271E-030
  -7.8199999999999992E-002    -6.0495204927215179E-030
  -7.7100000000000002E-002     1.5387379791020879E-029
  -7.5999999999999984E-002     4.3040170822024469E-029
  -7.4899999999999994E-002    -3.3347555227968980E-029
  -7.3799999999999991E-002    -2.2751771175374450E-028
  -7.2699999999999987E-002    -7.3391761465566817E-029
  -7.1599999999999997E-002     8.9952878798188837E-028
  -7.0499999999999993E-002     1.2210291847198078E-027
  -6.9399999999999989E-002    -2.3506851269370910E-027
  -6.8300000000000000E-002    -7.2753952690331554E-027
  -6.7199999999999996E-002     1.0803690838244805E-027
  -6.6099999999999992E-002     2.8146791291366939E-026
  -6.5000000000000002E-002     2.7526290559652393E-026
  -6.3899999999999985E-002    -6.7843763482237186E-026
  -6.2799999999999995E-002    -1.7226674829458816E-025
  -6.1699999999999991E-002     2.6997217574257797E-026
  -6.0599999999999994E-002     5.9450327824111539E-025
  -5.9499999999999990E-002     6.1972429536858240E-025
  -5.8399999999999994E-002    -1.1094578227997440E-024
  -5.7299999999999990E-002    -3.2302077159611423E-024
  -5.6199999999999986E-002    -6.4326124237482227E-025
  -5.5099999999999996E-002     8.6069994350459264E-024
  -5.3999999999999992E-002     1.2517659832404215E-023
  -5.2899999999999989E-002    -8.2880187948543790E-024
  -5.1799999999999985E-002    -4.4519661797848164E-023
  -5.0699999999999995E-002    -3.4456920536412729E-023
  -4.9599999999999991E-002     7.1907517721041263E-023
  -4.8499999999999988E-002     1.8037399261187061E-022
  -4.7399999999999998E-002     5.4532357723456379E-023
  -4.6299999999999994E-002    -3.6871641437778523E-022
  -4.5199999999999990E-002    -6.1462048916296457E-022
  -4.4099999999999986E-002     4.6968229249669009E-023
  -4.2999999999999997E-002     1.4654905063473578E-021
  -4.1899999999999993E-002     1.8647011783644644E-021
  -4.0799999999999989E-002    -6.7264692640581103E-022
  -3.9699999999999985E-002    -4.9037140793218796E-021
  -3.8599999999999995E-002    -5.3731176704161987E-021
  -3.7499999999999992E-002     2.5210174975853991E-021
  -3.6399999999999988E-002     1.4352152314466160E-020
  -3.5299999999999984E-002     1.5697122141083241E-020
  -3.4199999999999994E-002    -4.8019357249576950E-021
  -3.3099999999999991E-002    -3.7193833738974504E-020
  -3.1999999999999987E-002    -4.7783290080953260E-020
  -3.0899999999999997E-002    -4.6137311329691406E-021
  -2.9799999999999993E-002     8.3212321058348808E-020
  -2.8699999999999989E-002     1.4621910129386481E-019
  -2.7599999999999986E-002     8.5385505473284608E-020
  -2.6499999999999996E-002    -1.4169955444793699E-019
  -2.5399999999999992E-002    -4.1784134254078870E-019
  -2.4299999999999988E-002    -4.4558363611732185E-019
  -2.3199999999999985E-002     6.7235030258854442E-020
  -2.2099999999999995E-002     1.0197741085495148E-018
  -2.0999999999999991E-002     1.6366832380424549E-018
  -1.9899999999999987E-002     8.0437767290799008E-019
  -1.8799999999999983E-002    -1.8127950569362464E-018
  -1.7699999999999994E-002    -4.6456932335106505E-018
  -1.6599999999999990E-002    -4.5247676997615234E-018
  -1.5499999999999986E-002     8.5958980744679672E-019
  -1.4399999999999996E-002     9.7221432525501278E-018
  -1.3299999999999992E-002     1.5263412941153059E-017
  -1.2199999999999989E-002     9.3279147628716427E-018
  -1.1099999999999985E-002    -1.0540276990743663E-017
  -9.9999999999999950E-003    -3.5327987298355805E-017
  -8.8999999999999913E-003    -4.5425132881606847E-017
  -7.7999999999999875E-003    -2.0663628482980998E-017
  -6.6999999999999837E-003     4.2963129050016267E-017
  -5.5999999999999939E-003     1.1818898205478528E-016
  -4.4999999999999901E-003     1.4611548627219216E-016
  -3.3999999999999864E-003     6.2949887218273699E-017
  -2.2999999999999826E-003    -1.4690792529901796E-016
  -1.1999999999999927E-003    -3.9762744098991451E-016
  -9.9999999999988987E-005    -4.9734164184834844E-016
   1.0000000000000148E-003    -2.3487344830678972E-016
   2.1000000000000185E-003     4.4985115147375999E-016
   3.2000000000000084E-003     1.2979849239221357E-015
   4.3000000000000121E-003     1.7106236945615277E-015
   5.4000000000000159E-003     9.9630048135124216E-016
   6.5000000000000058E-003    -1.1249292106553857E-015
   7.6000000000000234E-003    -3.9870984321738710E-015
   8.7000000000000133E-003    -5.8213719963755815E-015
   9.8000000000000032E-003    -4.3668550661634959E-015
   1.0900000000000021E-002     1.6991598447742696E-015
   1.2000000000000011E-002     1.1063661448031288E-014
   1.3100000000000001E-002     1.8930391854229088E-014
   1.4200000000000018E-002     1.8214278013368307E-014
   1.5300000000000008E-002     3.2195815498760154E-015
   1.6400000000000026E-002    -2.5259496575012579E-014
   1.7500000000000016E-002    -5.6121533337444643E-014
   1.8600000000000005E-002    -6.8897605719556165E-014
   1.9700000000000023E-002    -4.1805710911287097E-014
   2.0800000000000013E-002     3.4091571796471265E-014
   2.1900000000000003E-002     1.4036013562361560E-013
   2.3000000000000020E-002     2.2576049103079088E-013
   2.4100000000000010E-002     2.1904810051324303E-013
   2.5200000000000000E-002     6.2692154256544647E-014
   2.6300000000000018E-002    -2.4159759479461251E-013
   2.7400000000000008E-002    -5.9720945636693168E-013
   2.8500000000000025E-002    -8.1451826620254630E-013
   2.9600000000000015E-002    -6.7051626837649758E-013
   3.0700000000000005E-002    -2.2923903172846621E-014
   3.1800000000000023E-002     1.0582431198696840E-012
   3.2900000000000013E-002     2.2083205489936697E-012
   3.4000000000000002E-002     2.8079960232019197E-012
   3.5100000000000020E-002     2.1872774858683330E-012
   3.6200000000000010E-002    -3.4518899918361060E-014
   3.7300000000000028E-002    -3.5873485172005504E-012
   3.8400000000000017E-002    -7.3472608205782386E-012
   3.9500000000000007E-002    -9.4718347748434795E-012
   4.0600000000000025E-002    -7.9644381367760531E-012
   4.1700000000000015E-002    -1.5850105516274082E-012
   4.2800000000000005E-002     9.1780420069520474E-012
   4.3900000000000022E-002     2.1508237899037219E-011
   4.5000000000000012E-002     3.0469491513196445E-011
   4.6100000000000002E-002     3.0261345512760940E-011
   4.7200000000000020E-002     1.6384333126340245E-011
   4.8300000000000010E-002    -1.1866280527628170E-011
   4.9400000000000027E-002    -4.9503047494514618E-011
   5.0500000000000017E-002    -8.5532143867528276E-011
   5.1600000000000007E-002    -1.0488898638527644E-010
   5.2700000000000025E-002    -9.2614103885946264E-011
   5.3800000000000014E-002    -3.9413257379994349E-011
   5.4900000000000004E-002     5.2987055715325582E-011
   5.6000000000000022E-002     1.6859251494860672E-010
   5.7100000000000012E-002     2.7762664389641145E-010
   5.8200000000000002E-002     3.4149677530237454E-010
   5.9300000000000019E-002     3.2173499975307607E-010
   6.0400000000000009E-002     1.9113845228790893E-010
   6.1500000000000027E-002    -5.5551691718891405E-011
   6.2600000000000017E-002    -3.9428990628032068E-010
   6.3700000000000007E-002    -7.6993872388797513E-010
   6.4800000000000024E-002    -1.1010538036870798E-009
   6.5900000000000014E-002    -1.2906425927994292E-009
   6.7000000000000004E-002    -1.2408633009997061E-009
   6.8100000000000022E-002    -8.6859985870546552E-010
   6.9200000000000012E-002    -1.1850470604812813E-010
   7.0300000000000029E-002     1.0295574393026641E-009
   7.1400000000000019E-002     2.5608488662953732E-009
   7.2500000000000009E-002     4.4347587824233869E-009
   7.3600000000000027E-002     6.6016121458289945E-009
   7.4700000000000016E-002     9.0249097084438290E-009
   7.5800000000000006E-002     1.1705032498809942E-008
   7.6900000000000024E-002     1.4699792494354824E-008
   7.8000000000000014E-002     1.8137585655608746E-008
   7.9100000000000004E-002     2.2220270068373793E-008
   8.0200000000000021E-002     2.7216227493909173E-008
   8.1300000000000011E-002     3.3446177383211761E-008
   8.2400000000000029E-002     4.1267540495937283E-008
   8.3500000000000019E-002     5.1063501871340122E-008
   8.4600000000000009E-002     6.3243376757782244E-008
   8.5700000000000026E-002     7.8256270796828176E-008
   8.6800000000000016E-002     9.6618222755751049E-008
   8.7900000000000006E-002     1.1894521634303601E-007
   8.9000000000000024E-002     1.4598639097584964E-007
   9.0100000000000013E-002     1.7865090740087908E-007
   9.1200000000000003E-002     2.1802300409490272E-007
   9.2300000000000021E-002     2.6536736186244525E-007
   9.3400000000000011E-002     3.2213597478403244E-007
   9.4500000000000028E-002     3.8997703200038814E-007
   9.5600000000000018E-002     4.7075914721972367E-007
   9.6700000000000008E-002     5.6660837799427100E-007
   9.7800000000000026E-002     6.7995381414220901E-007
   9.8900000000000016E-002     8.1357615044908016E-007
  0.10000000000000001          9.7065162663056981E-007
  0.10110000000000002          1.1547734857231262E-006
  0.10220000000000001          1.3699693681701319E-006
  0.10330000000000003          1.6206990949285682E-006
  0.10440000000000002          1.9118604086543201E-006
  0.10550000000000001          2.2488004560727859E-006
  0.10660000000000003          2.6373327273176983E-006
  0.10770000000000002          3.0837627491564490E-006
  0.10880000000000001          3.5949256016465370E-006
  0.10990000000000003          4.1781772779359017E-006
  0.11100000000000002          4.8413789954793174E-006
  0.11210000000000001          5.5928635447344277E-006
  0.11320000000000002          6.4413147811137605E-006
  0.11430000000000001          7.3957276072178502E-006
  0.11540000000000003          8.4652992882183753E-006
  0.11650000000000002          9.6593157650204375E-006
  0.11760000000000001          1.0986987945216242E-005
  0.11870000000000003          1.2457368939067237E-005
  0.11980000000000002          1.4079130778554827E-005
  0.12090000000000001          1.5860414350754581E-005
  0.12200000000000003          1.7808552001952194E-005
  0.12310000000000001          1.9929711925215088E-005
  0.12420000000000003          2.2228672605706379E-005
  0.12530000000000002          2.4708402634132653E-005
  0.12640000000000001          2.7369931558496319E-005
  0.12750000000000003          3.0211811463232152E-005
  0.12860000000000002          3.3229898690478876E-005
  0.12970000000000001          3.6416986404219642E-005
  0.13080000000000003          3.9762508095009252E-005
  0.13190000000000002          4.3251977331237867E-005
  0.13300000000000001          4.6866894990671426E-005
  0.13410000000000000          5.0584272685227916E-005
  0.13520000000000004          5.4376367188524455E-005
  0.13630000000000003          5.8210218412568793E-005
  0.13740000000000002          6.2048791733104736E-005
  0.13850000000000001          6.5849140810314566E-005
  0.13960000000000000          6.9564019213430583E-005
  0.14070000000000005          7.3140625318046659E-005
  0.14180000000000004          7.6521675509866327E-005
  0.14290000000000003          7.9646313679404557E-005
  0.14400000000000002          8.2449456385802478E-005
  0.14510000000000001          8.4862418589182198E-005
  0.14620000000000000          8.6814259702805430E-005
  0.14730000000000004          8.8232460257131606E-005
  0.14840000000000003          8.9044842752628028E-005
  0.14950000000000002          8.9179076894652098E-005
  0.15060000000000001          8.8565007899887860E-005
  0.15170000000000000          8.7135187641251832E-005
  0.15280000000000005          8.4827639511786401E-005
  0.15390000000000004          8.1585916632320732E-005
  0.15500000000000003          7.7360171417240053E-005
  0.15610000000000002          7.2110415203496814E-005
  0.15720000000000001          6.5807405917439610E-005
  0.15830000000000000          5.8433492085896432E-005
  0.15940000000000004          4.9983405915554613E-005
  0.16050000000000003          4.0466118662152439E-005
  0.16160000000000002          2.9907101634307764E-005
  0.16270000000000001          1.8347047443967313E-005
  0.16380000000000000          5.8418022490513977E-006
  0.16490000000000005         -7.5344019023759756E-006
  0.16600000000000004         -2.1690608264179900E-005
  0.16710000000000003         -3.6522364098345861E-005
  0.16820000000000002         -5.1907161832787097E-005
  0.16930000000000001         -6.7708053393289447E-005
  0.17040000000000000         -8.3774451923090965E-005
  0.17150000000000004         -9.9945260444656014E-005
  0.17260000000000003         -1.1605004692682996E-004
  0.17370000000000002         -1.3191055040806532E-004
  0.17480000000000001         -1.4734276919625700E-004
  0.17590000000000000         -1.6216104268096387E-004
  0.17700000000000005         -1.7618018318898976E-004
  0.17810000000000004         -1.8921897571999580E-004
  0.17920000000000003         -2.0110185141675174E-004
  0.18030000000000002         -2.1166332589928061E-004
  0.18140000000000001         -2.2075000742916018E-004
  0.18250000000000000         -2.2822282335255295E-004
  0.18360000000000004         -2.3396129836328328E-004
  0.18470000000000003         -2.3786573729012161E-004
  0.18580000000000002         -2.3985818552318960E-004
  0.18690000000000001         -2.3988411703612655E-004
  0.18800000000000000         -2.3791365674696863E-004
  0.18910000000000005         -2.3394270101562142E-004
  0.19020000000000004         -2.2799393627792597E-004
  0.19130000000000003         -2.2011586406733841E-004
  0.19240000000000002         -2.1038373233750463E-004
  0.19350000000000001         -1.9889637769665569E-004
  0.19460000000000005         -1.8577606533654034E-004
  0.19570000000000004         -1.7116534581873566E-004
  0.19680000000000003         -1.5522610920015723E-004
  0.19790000000000002         -1.3813748955726624E-004
  0.19900000000000001         -1.2009352940367535E-004
  0.20010000000000000         -1.0129804286407307E-004
  0.20120000000000005         -8.1960773968603462E-005
  0.20230000000000004         -6.2295010138768703E-005
  0.20340000000000003         -4.2516498069744557E-005
  0.20450000000000002         -2.2836193238617852E-005
  0.20560000000000000         -3.4620443329913542E-006
  0.20670000000000005          1.5409317711601034E-005
  0.20780000000000004          3.3592252293601632E-005
  0.20890000000000003          5.0914266466861591E-005
