 -0.12000000000000000          0.0000000000000000
 -0.11889999999999999          0.0000000000000000
 -0.11780000000000000          0.0000000000000000
 -0.11670000000000000          0.0000000000000000
 -0.11559999999999999          0.0000000000000000
 -0.11449999999999999          0.0000000000000000
 -0.11340000000000000          0.0000000000000000
 -0.11230000000000000          0.0000000000000000
 -0.11119999999999999          0.0000000000000000
 -0.11009999999999999          2.4000243043723909E-024
 -0.10900000000000000         -1.4065609243422292E-023
 -0.10790000000000000         -2.0158576815566703E-023
 -0.10679999999999999          2.3609294228718596E-022
 -0.10569999999999999          1.4395352155171589E-022
 -0.10460000000000000         -2.2927538167668016E-021
 -0.10349999999999999         -1.7718459136891606E-021
 -0.10239999999999999          1.5905059514325160E-020
 -0.10130000000000000          2.0831327190036181E-020
 -0.10020000000000000         -7.9272498574849951E-020
  -9.9099999999999994E-002    -1.7510789304879060E-019
  -9.7999999999999990E-002     2.4450923824608753E-019
  -9.6899999999999986E-002     1.0396054535427439E-018
  -9.5799999999999996E-002    -4.3666534956899017E-020
  -9.4699999999999993E-002    -4.2844899297883450E-018
  -9.3599999999999989E-002    -4.3870247569785807E-018
  -9.2499999999999999E-002     1.0761625559579178E-017
  -9.1399999999999995E-002     2.7231462398986739E-017
  -9.0299999999999991E-002    -3.8410259956894786E-018
  -8.9200000000000002E-002    -8.9253833650765953E-017
  -8.8099999999999984E-002    -9.5308881761437821E-017
  -8.6999999999999994E-002     1.3636487973476408E-016
  -8.5899999999999990E-002     4.2458908203617013E-016
  -8.4799999999999986E-002     1.7978692527990232E-016
  -8.3699999999999997E-002    -8.1178192414885892E-016
  -8.2599999999999993E-002    -1.4590217690629392E-015
  -8.1499999999999989E-002    -9.5569225278710311E-017
  -8.0399999999999999E-002     2.9471638955777708E-015
  -7.9299999999999995E-002     4.1579682710411129E-015
  -7.8199999999999992E-002     1.5542325339688384E-016
  -7.7100000000000002E-002    -7.2640452884026839E-015
  -7.5999999999999984E-002    -1.1160696695435793E-014
  -7.4899999999999994E-002    -5.5982410716956966E-015
  -7.3799999999999991E-002     9.6390697683292233E-015
  -7.2699999999999987E-002     2.9311121130075335E-014
  -7.1599999999999997E-002     4.0210724154684727E-014
  -7.0499999999999993E-002     1.6085597819557630E-014
  -6.9399999999999989E-002    -6.4578347552281257E-014
  -6.8300000000000000E-002    -1.6458464094631226E-013
  -6.7199999999999996E-002    -1.5898691868229675E-013
  -6.6099999999999992E-002     6.9542136806044486E-014
  -6.5000000000000002E-002     4.3670801566988993E-013
  -6.3899999999999985E-002     5.9355797187021775E-013
  -6.2799999999999995E-002     1.9792639207281970E-013
  -6.1699999999999991E-002    -6.5364716677479562E-013
  -6.0599999999999994E-002    -1.3335563122524041E-012
  -5.9499999999999990E-002    -1.1716846026396666E-012
  -5.8399999999999994E-002    -7.9709215573472991E-014
  -5.7299999999999990E-002     1.3725823862914543E-012
  -5.6199999999999986E-002     2.4587814423382426E-012
  -5.5099999999999996E-002     2.6846112138878553E-012
  -5.3999999999999992E-002     1.6823696298920443E-012
  -5.2899999999999989E-002    -8.1628014894294387E-013
  -5.1799999999999985E-002    -4.3534811172696308E-012
  -5.0699999999999995E-002    -7.1745439450543458E-012
  -4.9599999999999991E-002    -7.0335395493947850E-012
  -4.8499999999999988E-002    -3.1000783537460386E-012
  -4.7399999999999998E-002     3.2307409785631291E-012
  -4.6299999999999994E-002     9.8256411687480671E-012
  -4.5199999999999990E-002     1.5510887713121591E-011
  -4.4099999999999986E-002     1.9168054296581083E-011
  -4.2999999999999997E-002     1.7401243640469133E-011
  -4.1899999999999993E-002     5.4186507711384557E-012
  -4.0799999999999989E-002    -1.7505731239597644E-011
  -3.9699999999999985E-002    -4.3707055336072997E-011
  -3.8599999999999995E-002    -6.0405881685543505E-011
  -3.7499999999999992E-002    -5.8461339935700352E-011
  -3.6399999999999988E-002    -3.7237428418546159E-011
  -3.5299999999999984E-002    -1.0054464856176781E-012
  -3.4199999999999994E-002     4.6556928451346735E-011
  -3.3099999999999991E-002     1.0134643124715126E-010
  -3.1999999999999987E-002     1.5312316692384087E-010
  -3.0899999999999997E-002     1.8410396818158148E-010
  -2.9799999999999993E-002     1.7434159671481098E-010
  -2.8699999999999989E-002     1.0730594884877931E-010
  -2.7599999999999986E-002    -2.7166166885472798E-011
  -2.6499999999999996E-002    -2.2586447989692005E-010
  -2.5399999999999992E-002    -4.5923864711028273E-010
  -2.4299999999999988E-002    -6.6683886190688213E-010
  -2.3199999999999985E-002    -7.7470385662081753E-010
  -2.2099999999999995E-002    -7.2147027241342698E-010
  -2.0999999999999991E-002    -4.6297965461405965E-010
  -1.9899999999999987E-002     4.8685517423097124E-011
  -1.8799999999999983E-002     8.7559443029405770E-010
  -1.7699999999999994E-002     2.0656885091341337E-009
  -1.6599999999999990E-002     3.6150213933439090E-009
  -1.5499999999999986E-002     5.4777875568845502E-009
  -1.4399999999999996E-002     7.6281585492665727E-009
  -1.3299999999999992E-002     1.0106932180065087E-008
  -1.2199999999999989E-002     1.3000409637697885E-008
  -1.1099999999999985E-002     1.6389741119837709E-008
  -9.9999999999999950E-003     2.0351535567897372E-008
  -8.8999999999999913E-003     2.5020865379588031E-008
  -7.7999999999999875E-003     3.0640411097238029E-008
  -6.6999999999999837E-003     3.7540822006576491E-008
  -5.5999999999999939E-003     4.6092317518287018E-008
  -4.4999999999999901E-003     5.6697942341088492E-008
  -3.3999999999999864E-003     6.9819741099763633E-008
  -2.2999999999999826E-003     8.5982541975226923E-008
  -1.1999999999999927E-003     1.0575476494523173E-007
  -9.9999999999988987E-005     1.2977093888366653E-007
   1.0000000000000148E-003     1.5880050341365859E-007
   2.1000000000000185E-003     1.9377682747290237E-007
   3.2000000000000084E-003     2.3574840213314019E-007
   4.3000000000000121E-003     2.8586293865373591E-007
   5.4000000000000159E-003     3.4549216820778383E-007
   6.5000000000000058E-003     4.1640041104074044E-007
   7.6000000000000234E-003     5.0071150781150209E-007
   8.7000000000000133E-003     6.0067389995310805E-007
   9.8000000000000032E-003     7.1852713290354586E-007
   1.0900000000000021E-002     8.5670797034254065E-007
   1.2000000000000011E-002     1.0182355936194654E-006
   1.3100000000000001E-002     1.2068173873558408E-006
   1.4200000000000018E-002     1.4265565368987154E-006
   1.5300000000000008E-002     1.6816551351439557E-006
   1.6400000000000026E-002     1.9764938770094886E-006
   1.7500000000000016E-002     2.3160148430179106E-006
   1.8600000000000005E-002     2.7058749765274115E-006
   1.9700000000000023E-002     3.1522913559456356E-006
   2.0800000000000013E-002     3.6617486784962239E-006
   2.1900000000000003E-002     4.2409187699377071E-006
   2.3000000000000020E-002     4.8967262955557089E-006
   2.4100000000000010E-002     5.6363992371188942E-006
   2.5200000000000000E-002     6.4675541580072604E-006
   2.6300000000000018E-002     7.3983114816655871E-006
   2.7400000000000008E-002     8.4371695265872404E-006
   2.8500000000000025E-002     9.5923778644646518E-006
   2.9600000000000015E-002     1.0871364793274552E-005
   3.0700000000000005E-002     1.2280672308406793E-005
   3.1800000000000023E-002     1.3826786016579717E-005
   3.2900000000000013E-002     1.5516594430664554E-005
   3.4000000000000002E-002     1.7356471289531328E-005
   3.5100000000000020E-002     1.9350634829606861E-005
   3.6200000000000010E-002     2.1500607545021921E-005
   3.7300000000000028E-002     2.3805720047676004E-005
   3.8400000000000017E-002     2.6264566258760169E-005
   3.9500000000000007E-002     2.8874554118374363E-005
   4.0600000000000025E-002     3.1630050216335803E-005
   4.1700000000000015E-002     3.4521042834967375E-005
   4.2800000000000005E-002     3.7533609429374337E-005
   4.3900000000000022E-002     4.0650804294273257E-005
   4.5000000000000012E-002     4.3852021917700768E-005
   4.6100000000000002E-002     4.7113571781665087E-005
   4.7200000000000020E-002     5.0408085371600464E-005
   4.8300000000000010E-002     5.3703508456237614E-005
   4.9400000000000027E-002     5.6961278460221365E-005
   5.0500000000000017E-002     6.0137299442430958E-005
   5.1600000000000007E-002     6.3184095779433846E-005
   5.2700000000000025E-002     6.6053311456926167E-005
   5.3800000000000014E-002     6.8693349021486938E-005
   5.4900000000000004E-002     7.1048591053113341E-005
   5.6000000000000022E-002     7.3057948611676693E-005
   5.7100000000000012E-002     7.4656709330156446E-005
   5.8200000000000002E-002     7.5778923928737640E-005
   5.9300000000000019E-002     7.6362644904293120E-005
   6.0400000000000009E-002     7.6350057497620583E-005
   6.1500000000000027E-002     7.5680392910726368E-005
   6.2600000000000017E-002     7.4291892815381289E-005
   6.3700000000000007E-002     7.2126596933230758E-005
   6.4800000000000024E-002     6.9134133809711784E-005
   6.5900000000000014E-002     6.5274711232632399E-005
   6.7000000000000004E-002     6.0516264056786895E-005
   6.8100000000000022E-002     5.4834170441608876E-005
   6.9200000000000012E-002     4.8213973059318960E-005
   7.0300000000000029E-002     4.0648181311553344E-005
   7.1400000000000019E-002     3.2143030693987384E-005
   7.2500000000000009E-002     2.2719863409292884E-005
   7.3600000000000027E-002     1.2419199265423231E-005
   7.4700000000000016E-002     1.2994528333365452E-006
   7.5800000000000006E-002    -1.0573345207376406E-005
   7.6900000000000024E-002    -2.3126116502680816E-005
   7.8000000000000014E-002    -3.6271725548431277E-005
   7.9100000000000004E-002    -4.9899525038199499E-005
   8.0200000000000021E-002    -6.3879022491164505E-005
   8.1300000000000011E-002    -7.8070865129120648E-005
   8.2400000000000029E-002    -9.2332746135070920E-005
   8.3500000000000019E-002    -1.0652053606463596E-004
   8.4600000000000009E-002    -1.2048126518493518E-004
   8.5700000000000026E-002    -1.3405014760792255E-004
   8.6800000000000016E-002    -1.4705448120366782E-004
   8.7900000000000006E-002    -1.5932385576888919E-004
   8.9000000000000024E-002    -1.7069655586965382E-004
   9.0100000000000013E-002    -1.8102259491570294E-004
   9.1200000000000003E-002    -1.9016068836208433E-004
   9.2300000000000021E-002    -1.9797605636995286E-004
   9.3400000000000011E-002    -2.0434167527128011E-004
   9.4500000000000028E-002    -2.0914335618726909E-004
   9.5600000000000018E-002    -2.1228726836852729E-004
   9.6700000000000008E-002    -2.1370725880842656E-004
   9.7800000000000026E-002    -2.1336549252737314E-004
   9.8900000000000016E-002    -2.1124396880622953E-004
  0.10000000000000001         -2.0733656128868461E-004
  0.10110000000000002         -2.0165136083960533E-004
  0.10220000000000001         -1.9422569312155247E-004
  0.10330000000000003         -1.8513484974391758E-004
  0.10440000000000002         -1.7448267317377031E-004
  0.10550000000000001         -1.6238477837760001E-004
  0.10660000000000003         -1.4896369248162955E-004
  0.10770000000000002         -1.3435760047286749E-004
  0.10880000000000001         -1.1872364848386496E-004
  0.10990000000000003         -1.0224318975815549E-004
  0.11100000000000002         -8.5104416939429939E-005
  0.11210000000000001         -6.7505789047572762E-005
  0.11320000000000002         -4.9641606892691925E-005
  0.11430000000000001         -3.1700590625405312E-005
  0.11540000000000003         -1.3864082575310022E-005
  0.11650000000000002          3.6826411360380007E-006
  0.11760000000000001          2.0753099306602962E-005
  0.11870000000000003          3.7167519622016698E-005
  0.11980000000000002          5.2769191825063899E-005
  0.12090000000000001          6.7424567532725632E-005
  0.12200000000000003          8.1021804362535477E-005
  0.12310000000000001          9.3459464551415294E-005
  0.12420000000000003          1.0464061051607132E-004
  0.12530000000000002          1.1448989971540868E-004
  0.12640000000000001          1.2295681517571211E-004
  0.12750000000000003          1.3001925253774971E-004
  0.12860000000000002          1.3567520363721997E-004
  0.12970000000000001          1.3993823085911572E-004
  0.13080000000000003          1.4283417840488255E-004
  0.13190000000000002          1.4440156519412994E-004
  0.13300000000000001          1.4469138113781810E-004
  0.13410000000000000          1.4377165643963963E-004
  0.13520000000000004          1.4172869850881398E-004
  0.13630000000000003          1.3866259541828185E-004
  0.13740000000000002          1.3467765529640019E-004
  0.13850000000000001          1.2987098307348788E-004
  0.13960000000000000          1.2433678784873337E-004
  0.14070000000000005          1.1817645281553268E-004
  0.14180000000000004          1.1150320642627776E-004
  0.14290000000000003          1.0443557403050363E-004
  0.14400000000000002          9.7082061984110624E-005
  0.14510000000000001          8.9534398284740746E-005
  0.14620000000000000          8.1873789895325899E-005
  0.14730000000000004          7.4180366937071085E-005
  0.14840000000000003          6.6535561927594244E-005
  0.14950000000000002          5.9016605518991128E-005
  0.15060000000000001          5.1689599786186591E-005
  0.15170000000000000          4.4607633753912523E-005
  0.15280000000000005          3.7811449146829545E-005
  0.15390000000000004          3.1331208447227255E-005
  0.15500000000000003          2.5189701773342676E-005
  0.15610000000000002          1.9409470041864552E-005
  0.15720000000000001          1.4013423424330540E-005
  0.15830000000000000          9.0152625489281490E-006
  0.15940000000000004          4.4110288399679121E-006
  0.16050000000000003          1.8258434408835456E-007
  0.16160000000000002         -3.6880169318465050E-006
  0.16270000000000001         -7.2092525442712940E-006
  0.16380000000000000         -1.0385339919594117E-005
  0.16490000000000005         -1.3231161574367434E-005
  0.16600000000000004         -1.5774785424582660E-005
  0.16710000000000003         -1.8047672710963525E-005
  0.16820000000000002         -2.0074869098607451E-005
  0.16930000000000001         -2.1875868696952239E-005
  0.17040000000000000         -2.3471215172321536E-005
  0.17150000000000004         -2.4883494916139171E-005
  0.17260000000000003         -2.6132736820727587E-005
  0.17370000000000002         -2.7235239031142555E-005
  0.17480000000000001         -2.8208398362039588E-005
  0.17590000000000000         -2.9072223696857691E-005
  0.17700000000000005         -2.9841790819773450E-005
  0.17810000000000004         -3.0520481232088059E-005
  0.17920000000000003         -3.1105610105441883E-005
  0.18030000000000002         -3.1599931389791891E-005
  0.18140000000000001         -3.2013318559620529E-005
  0.18250000000000000         -3.2350671972380951E-005
  0.18360000000000004         -3.2602874853182584E-005
  0.18470000000000003         -3.2753468985902146E-005
  0.18580000000000002         -3.2791496778372675E-005
  0.18690000000000001         -3.2712676329538226E-005
  0.18800000000000000         -3.2508556614629924E-005
  0.18910000000000005         -3.2161529816221446E-005
  0.19020000000000004         -3.1651175959268585E-005
  0.19130000000000003         -3.0964747566031292E-005
  0.19240000000000002         -3.0093076929915696E-005
  0.19350000000000001         -2.9021159207331948E-005
  0.19460000000000005         -2.7727732231141999E-005
  0.19570000000000004         -2.6197683837381192E-005
  0.19680000000000003         -2.4427550670225173E-005
  0.19790000000000002         -2.2414729755837470E-005
  0.19900000000000001         -2.0149072952335700E-005
  0.20010000000000000         -1.7618396668694913E-005
  0.20120000000000005         -1.4824998288531788E-005
  0.20230000000000004         -1.1785597052949015E-005
  0.20340000000000003         -8.5147939898888581E-006
  0.20450000000000002         -5.0167022891400848E-006
  0.20560000000000000         -1.2981653298993479E-006
  0.20670000000000005          2.6169414013565984E-006
  0.20780000000000004          6.6908987719216384E-006
  0.20890000000000003          1.0889449185924605E-005
