 -0.12000000000000000          0.0000000000000000
 -0.11889999999999999          0.0000000000000000
 -0.11780000000000000          0.0000000000000000
 -0.11670000000000000          0.0000000000000000
 -0.11559999999999999         -1.6396099769230323E-014
 -0.11449999999999999          2.1678969722356035E-014
 -0.11340000000000000          1.2450507476131217E-013
 -0.11230000000000000         -1.4875999195494705E-013
 -0.11119999999999999         -7.5565861077167562E-013
 -0.11009999999999999          1.9396057026124791E-013
 -0.10900000000000000          3.1764738409045812E-012
 -0.10790000000000000          2.0208470313809457E-012
 -0.10679999999999999         -8.5105186786726961E-012
 -0.10569999999999999         -1.4544769902369303E-011
 -0.10460000000000000          8.3655625829348601E-012
 -0.10349999999999999          4.6377138240849547E-011
 -0.10239999999999999          3.1755837542890575E-011
 -0.10130000000000000         -6.6460302539095295E-011
 -0.10020000000000000         -1.4168191619923221E-010
  -9.9099999999999994E-002    -3.8163628507392744E-011
  -9.7999999999999990E-002     2.0275016388016098E-010
  -9.6899999999999986E-002     2.9167251947015416E-010
  -9.5799999999999996E-002     3.1752513812710603E-011
  -9.4699999999999993E-002    -3.4510541646604054E-010
  -9.3599999999999989E-002    -3.9535824614134185E-010
  -9.2499999999999999E-002    -5.2329258981576032E-011
  -9.1399999999999995E-002     2.5030363892675211E-010
  -9.0299999999999991E-002     1.9362099423769763E-010
  -8.9200000000000002E-002     5.4075483674198566E-011
  -8.8099999999999984E-002     2.4755575367407801E-010
  -8.6999999999999994E-002     5.6480004007042339E-010
  -8.5899999999999990E-002     3.5876610016138955E-010
  -8.4799999999999986E-002    -4.5047890417926340E-010
  -8.3699999999999997E-002    -1.0953526974333272E-009
  -8.2599999999999993E-002    -9.6009911132455272E-010
  -8.1499999999999989E-002    -3.4731328923953697E-010
  -8.0399999999999999E-002     2.2506128904975498E-010
  -7.9299999999999995E-002     9.2577351340494829E-010
  -7.8199999999999992E-002     1.8414086921936246E-009
  -7.7100000000000002E-002     1.5221451876712422E-009
  -7.5999999999999984E-002    -2.3158008843893185E-009
  -7.4899999999999994E-002    -1.0041564024731997E-008
  -7.3799999999999991E-002    -1.9254589034289893E-008
  -7.2699999999999987E-002    -2.7822268933164196E-008
  -7.1599999999999997E-002    -3.6855034579730273E-008
  -7.0499999999999993E-002    -4.8887763171023835E-008
  -6.9399999999999989E-002    -6.3468469591043686E-008
  -6.8300000000000000E-002    -7.7072890292129159E-008
  -6.7199999999999996E-002    -8.8545057508326863E-008
  -6.6099999999999992E-002    -1.0255900662059503E-007
  -6.5000000000000002E-002    -1.2546385619316425E-007
  -6.3899999999999985E-002    -1.5878848103056953E-007
  -6.2799999999999995E-002    -1.9951382057570299E-007
  -6.1699999999999991E-002    -2.4643472329444194E-007
  -6.0599999999999994E-002    -3.0301089282147586E-007
  -5.9499999999999990E-002    -3.7302126543181657E-007
  -5.8399999999999994E-002    -4.5698214989897679E-007
  -5.7299999999999990E-002    -5.5577299917786149E-007
  -5.6199999999999986E-002    -6.7517697743824101E-007
  -5.5099999999999996E-002    -8.2239910170756048E-007
  -5.3999999999999992E-002    -9.9919043350382708E-007
  -5.2899999999999989E-002    -1.2042116850352613E-006
  -5.1799999999999985E-002    -1.4437670188272023E-006
  -5.0699999999999995E-002    -1.7342889577776077E-006
  -4.9599999999999991E-002    -2.0892573502351297E-006
  -4.8499999999999988E-002    -2.5079016268136911E-006
  -4.7399999999999998E-002    -2.9845807603123831E-006
  -4.6299999999999994E-002    -3.5290815958433086E-006
  -4.5199999999999990E-002    -4.1695557229104452E-006
  -4.4099999999999986E-002    -4.9321074584440794E-006
  -4.2999999999999997E-002    -5.8245659602107480E-006
  -4.1899999999999993E-002    -6.8469666985038202E-006
  -4.0799999999999989E-002    -8.0130675996770151E-006
  -3.9699999999999985E-002    -9.3523913164972328E-006
  -3.8599999999999995E-002    -1.0892647878790740E-005
  -3.7499999999999992E-002    -1.2651187716983259E-005
  -3.6399999999999988E-002    -1.4646858289779630E-005
  -3.5299999999999984E-002    -1.6909081750782207E-005
  -3.4199999999999994E-002    -1.9466640878817998E-005
  -3.3099999999999991E-002    -2.2335419998853467E-005
  -3.1999999999999987E-002    -2.5531520805088803E-005
  -3.0899999999999997E-002    -2.9093886041664518E-005
  -2.9799999999999993E-002    -3.3076834370149300E-005
  -2.8699999999999989E-002    -3.7513589631998911E-005
  -2.7599999999999986E-002    -4.2401286918902770E-005
  -2.6499999999999996E-002    -4.7735426051076502E-005
  -2.5399999999999992E-002    -5.3548956202575937E-005
  -2.4299999999999988E-002    -5.9899422922171652E-005
  -2.3199999999999985E-002    -6.6816799517255276E-005
  -2.2099999999999995E-002    -7.4284791480749846E-005
  -2.0999999999999991E-002    -8.2278289482928813E-005
  -1.9899999999999987E-002    -9.0801069745793939E-005
  -1.8799999999999983E-002    -9.9867902463302016E-005
  -1.7699999999999994E-002    -1.0946342081297189E-004
  -1.6599999999999990E-002    -1.1954081855947152E-004
  -1.5499999999999986E-002    -1.3005663640797138E-004
  -1.4399999999999996E-002    -1.4097741222940385E-004
  -1.3299999999999992E-002    -1.5224082744680345E-004
  -1.2199999999999989E-002    -1.6373800463043153E-004
  -1.1099999999999985E-002    -1.7534999642521143E-004
  -9.9999999999999950E-003    -1.8699275096878409E-004
  -8.8999999999999913E-003    -1.9859016174450517E-004
  -7.7999999999999875E-003    -2.1000506239943206E-004
  -6.6999999999999837E-003    -2.2102937509771436E-004
  -5.5999999999999939E-003    -2.3145806335378438E-004
  -4.4999999999999901E-003    -2.4113862309604883E-004
  -3.3999999999999864E-003    -2.4993266561068594E-004
  -2.2999999999999826E-003    -2.5763604207895696E-004
  -1.1999999999999927E-003    -2.6398923364467919E-004
  -9.9999999999988987E-005    -2.6875568437390029E-004
   1.0000000000000148E-003    -2.7175067225471139E-004
   2.1000000000000185E-003    -2.7278388733975589E-004
   3.2000000000000084E-003    -2.7161266189068556E-004
   4.3000000000000121E-003    -2.6799243642017245E-004
   5.4000000000000159E-003    -2.6174611411988735E-004
   6.5000000000000058E-003    -2.5275480584241450E-004
   7.6000000000000234E-003    -2.4087080964818597E-004
   8.7000000000000133E-003    -2.2590276785194874E-004
   9.8000000000000032E-003    -2.0770142145920545E-004
   1.0900000000000021E-002    -1.8624130461830646E-004
   1.2000000000000011E-002    -1.6157038044184446E-004
   1.3100000000000001E-002    -1.3369884982239455E-004
   1.4200000000000018E-002    -1.0261382703902200E-004
   1.5300000000000008E-002    -6.8391411332413554E-005
   1.6400000000000026E-002    -3.1235918868333101E-005
   1.7500000000000016E-002     8.5980809672037140E-006
   1.8600000000000005E-002     5.0889437261503190E-005
   1.9700000000000023E-002     9.5390423666685820E-005
   2.0800000000000013E-002     1.4173102681525052E-004
   2.1900000000000003E-002     1.8944355542771518E-004
   2.3000000000000020E-002     2.3807071556802839E-004
   2.4100000000000010E-002     2.8721540002152324E-004
   2.5200000000000000E-002     3.3643346978351474E-004
   2.6300000000000018E-002     3.8513712934218347E-004
   2.7400000000000008E-002     4.3267573346383870E-004
   2.8500000000000025E-002     4.7848551184870303E-004
   2.9600000000000015E-002     5.2210356807336211E-004
   3.0700000000000005E-002     5.6303106248378754E-004
   3.1800000000000023E-002     6.0066353762522340E-004
   3.2900000000000013E-002     6.3440389931201935E-004
   3.4000000000000002E-002     6.6379731288179755E-004
   3.5100000000000020E-002     6.8849185481667519E-004
   3.6200000000000010E-002     7.0810620673000813E-004
   3.7300000000000028E-002     7.2222593007609248E-004
   3.8400000000000017E-002     7.3055317625403404E-004
   3.9500000000000007E-002     7.3297566268593073E-004
   4.0600000000000025E-002     7.2945014107972383E-004
   4.1700000000000015E-002     7.1987218689173460E-004
   4.2800000000000005E-002     7.0416845846921206E-004
   4.3900000000000022E-002     6.8245892180129886E-004
   4.5000000000000012E-002     6.5506104147061706E-004
   4.6100000000000002E-002     6.2231015181168914E-004
   4.7200000000000020E-002     5.8446091134101152E-004
   4.8300000000000010E-002     5.4180936422199011E-004
   4.9400000000000027E-002     4.9486593343317509E-004
   5.0500000000000017E-002     4.4427986722439528E-004
   5.1600000000000007E-002     3.9063245640136302E-004
   5.2700000000000025E-002     3.3441316918469965E-004
   5.3800000000000014E-002     2.7619153843261302E-004
   5.4900000000000004E-002     2.1671062859240919E-004
   5.6000000000000022E-002     1.5673183952458203E-004
   5.7100000000000012E-002     9.6848089015111327E-005
   5.8200000000000002E-002     3.7552141293417662E-005
   5.9300000000000019E-002    -2.0559744370984845E-005
   6.0400000000000009E-002    -7.6766620622947812E-005
   6.1500000000000027E-002    -1.3044467777945101E-004
   6.2600000000000017E-002    -1.8119798914995044E-004
   6.3700000000000007E-002    -2.2872093541081995E-004
   6.4800000000000024E-002    -2.7260548085905612E-004
   6.5900000000000014E-002    -3.1239437521435320E-004
   6.7000000000000004E-002    -3.4780247369781137E-004
   6.8100000000000022E-002    -3.7876624264754355E-004
   6.9200000000000012E-002    -4.0524321957491338E-004
   7.0300000000000029E-002    -4.2708104592747986E-004
   7.1400000000000019E-002    -4.4415882439352572E-004
   7.2500000000000009E-002    -4.5659395982511342E-004
   7.3600000000000027E-002    -4.6466806088574231E-004
   7.4700000000000016E-002    -4.6857344568707049E-004
   7.5800000000000006E-002    -4.6836386900395155E-004
   7.6900000000000024E-002    -4.6418298734351993E-004
   7.8000000000000014E-002    -4.5642626355402172E-004
   7.9100000000000004E-002    -4.4557487126439810E-004
   8.0200000000000021E-002    -4.3194246245548129E-004
   8.1300000000000011E-002    -4.1570790926925838E-004
   8.2400000000000029E-002    -3.9716874016448855E-004
   8.3500000000000019E-002    -3.7681497633457184E-004
   8.4600000000000009E-002    -3.5510712768882513E-004
   8.5700000000000026E-002    -3.3230189001187682E-004
   8.6800000000000016E-002    -3.0858977697789669E-004
   8.7900000000000006E-002    -2.8432111139409244E-004
   8.9000000000000024E-002    -2.5995390024036169E-004
   9.0100000000000013E-002    -2.3579155094921589E-004
   9.1200000000000003E-002    -2.1191810083109885E-004
   9.2300000000000021E-002    -1.8843631551135331E-004
   9.3400000000000011E-002    -1.6564918041694909E-004
   9.4500000000000028E-002    -1.4389802527148277E-004
   9.5600000000000018E-002    -1.2329862511251122E-004
   9.6700000000000008E-002    -1.0377589933341369E-004
   9.7800000000000026E-002    -8.5342850070446730E-005
   9.8900000000000016E-002    -6.8202585680410266E-005
  0.10000000000000001         -5.2523711929097772E-005
  0.10110000000000002         -3.8241782021941617E-005
  0.10220000000000001         -2.5196031856467016E-005
  0.10330000000000003         -1.3384993508225307E-005
  0.10440000000000002         -2.9413795346044935E-006
  0.10550000000000001          6.1281921261979733E-006
  0.10660000000000003          1.4031464161234908E-005
  0.10770000000000002          2.0955596482963301E-005
  0.10880000000000001          2.6872548914980143E-005
  0.10990000000000003          3.1679952371632680E-005
  0.11100000000000002          3.5467255656840280E-005
  0.11210000000000001          3.8495887565659359E-005
  0.11320000000000002          4.0922514017438516E-005
  0.11430000000000001          4.2684987420216203E-005
  0.11540000000000003          4.3718206143239513E-005
  0.11650000000000002          4.4165415602037683E-005
  0.11760000000000001          4.4259424612391740E-005
  0.11870000000000003          4.4066564441891387E-005
  0.11980000000000002          4.3485506466822699E-005
  0.12090000000000001          4.2502124415477738E-005
  0.12200000000000003          4.1301729652332142E-005
  0.12310000000000001          4.0060556784737855E-005
  0.12420000000000003          3.8740516174584627E-005
  0.12530000000000002          3.7207442801445723E-005
  0.12640000000000001          3.5490775189828128E-005
  0.12750000000000003          3.3788903238018975E-005
  0.12860000000000002          3.2210402423515916E-005
  0.12970000000000001          3.0648545362055302E-005
  0.13080000000000003          2.8978864065720700E-005
  0.13190000000000002          2.7272657462162897E-005
  0.13300000000000001          2.5701981940073892E-005
  0.13410000000000000          2.4290029614348896E-005
  0.13520000000000004          2.2892676497576758E-005
  0.13630000000000003          2.1435922462842427E-005
  0.13740000000000002          2.0038773072883487E-005
  0.13850000000000001          1.8832834030035883E-005
  0.13960000000000000          1.7759595721145160E-005
  0.14070000000000005          1.6660838809912093E-005
  0.14180000000000004          1.5520316082984209E-005
  0.14290000000000003          1.4486197869700845E-005
  0.14400000000000002          1.3641822079080157E-005
  0.14510000000000001          1.2878281268058345E-005
  0.14620000000000000          1.2060776498401538E-005
  0.14730000000000004          1.1228533367102500E-005
  0.14840000000000003          1.0524102435738314E-005
  0.14950000000000002          9.9674589364440180E-006
  0.15060000000000001          9.4248325694934465E-006
  0.15170000000000000          8.8145443442044780E-006
  0.15280000000000005          8.2274855230934918E-006
  0.15390000000000004          7.7797812991775572E-006
  0.15500000000000003          7.4277058956795372E-006
  0.15610000000000002          7.0319583755917847E-006
  0.15720000000000001          6.5680701482051518E-006
  0.15830000000000000          6.1586642914335243E-006
  0.15940000000000004          5.8813639043364674E-006
  0.16050000000000003          5.6502726692997385E-006
  0.16160000000000002          5.3480425776797347E-006
  0.16270000000000001          5.0012436076940503E-006
  0.16380000000000000          4.7315875235653948E-006
  0.16490000000000005          4.5644601414096542E-006
  0.16600000000000004          4.3918348637816962E-006
  0.16710000000000003          4.1404141484235879E-006
  0.16820000000000002          3.8815019252069760E-006
  0.16930000000000001          3.7166400943533517E-006
  0.17040000000000000          3.6198766792949755E-006
  0.17150000000000004          3.4786119158525253E-006
  0.17260000000000003          3.2655227641953388E-006
  0.17370000000000002          3.0759385936107719E-006
  0.17480000000000001          2.9786785944452276E-006
  0.17590000000000000          2.9130205803085119E-006
  0.17700000000000005          2.7852906896441709E-006
  0.17810000000000004          2.6103675736521836E-006
  0.17920000000000003          2.4822136310831411E-006
  0.18030000000000002          2.4263249542855192E-006
  0.18140000000000001          2.3636994228581898E-006
  0.18250000000000000          2.2362312392942840E-006
  0.18360000000000004          2.0948475594195770E-006
  0.18470000000000003          2.0175048121018335E-006
  0.18580000000000002          1.9883052573277382E-006
  0.18690000000000001          1.9234537376178196E-006
  0.18800000000000000          1.7995954522120883E-006
  0.18910000000000005          1.6856413367349887E-006
  0.19020000000000004          1.6340886759280693E-006
  0.19130000000000003          1.6023346915972070E-006
  0.19240000000000002          1.5200937468762277E-006
  0.19350000000000001          1.3946078070148360E-006
  0.19460000000000005          1.2933226116729202E-006
  0.19570000000000004          1.2372548781058867E-006
  0.19680000000000003          1.1711024399119196E-006
  0.19790000000000002          1.0496665936443605E-006
  0.19900000000000001          9.0314404133096104E-007
  0.20010000000000000          7.8383266099990578E-007
  0.20120000000000005          6.8225034510760452E-007
  0.20230000000000004          5.4119544756758842E-007
  0.20340000000000003          3.4017068628600100E-007
  0.20450000000000002          1.1859973625405473E-007
  0.20560000000000000         -9.3350358554289414E-008
  0.20670000000000005         -3.2541953487452702E-007
  0.20780000000000004         -6.2485332819051109E-007
  0.20890000000000003         -9.9168653378001181E-007
