 -0.12000000000000000          0.0000000000000000
 -0.11889999999999999          0.0000000000000000
 -0.11780000000000000          0.0000000000000000
 -0.11670000000000000          0.0000000000000000
 -0.11559999999999999          0.0000000000000000
 -0.11449999999999999          0.0000000000000000
 -0.11340000000000000          0.0000000000000000
 -0.11230000000000000          0.0000000000000000
 -0.11119999999999999          0.0000000000000000
 -0.11009999999999999          0.0000000000000000
 -0.10900000000000000          0.0000000000000000
 -0.10790000000000000          1.9595432523687732E-030
 -0.10679999999999999         -4.4594181876975378E-030
 -0.10569999999999999         -3.0723168733656484E-029
 -0.10460000000000000          6.4258760928039496E-029
 -0.10349999999999999          2.9027105750369156E-028
 -0.10239999999999999         -4.6664724032818852E-028
 -0.10130000000000000         -2.0752628930081278E-027
 -0.10020000000000000          2.0507525455708836E-027
  -9.9099999999999994E-002     1.1726671578863000E-026
  -9.7999999999999990E-002    -4.6992039678727352E-027
  -9.6899999999999986E-002    -5.2944301046295055E-026
  -9.5799999999999996E-002    -4.7411819221265883E-027
  -9.4699999999999993E-002     1.9614081007829358E-025
  -9.3599999999999989E-002     9.7819787627343566E-026
  -9.2499999999999999E-002    -6.3135851460639503E-025
  -9.1399999999999995E-002    -5.6938402417042190E-025
  -9.0299999999999991E-002     1.8606501267583867E-024
  -8.9200000000000002E-002     2.6774759538542571E-024
  -8.8099999999999984E-002    -4.7387821209712444E-024
  -8.6999999999999994E-002    -1.1244339723764349E-023
  -8.5899999999999990E-002     7.5621405443062128E-024
  -8.4799999999999986E-002     3.8791155852524913E-023
  -8.3699999999999997E-002     7.0800360906894436E-024
  -8.2599999999999993E-002    -9.9121540255159860E-023
  -8.1499999999999989E-002    -9.3908551755954920E-023
  -8.0399999999999999E-002     1.6725550081530934E-022
  -7.9299999999999995E-002     3.3376182358437391E-022
  -7.8199999999999992E-002    -1.3471319618296594E-022
  -7.7100000000000002E-002    -7.7046037750793341E-022
  -7.5999999999999984E-002    -1.3724265027656453E-022
  -7.4899999999999994E-002     1.5122195466596766E-021
  -7.3799999999999991E-002     9.2447005806569157E-022
  -7.2699999999999987E-002    -3.0605335313228237E-021
  -7.1599999999999997E-002    -3.8644694800901877E-021
  -7.0499999999999993E-002     5.0086904884176046E-021
  -6.9399999999999989E-002     1.3157968466229547E-020
  -6.8300000000000000E-002    -6.3021767027615164E-022
  -6.7199999999999996E-002    -2.9442983378290710E-020
  -6.6099999999999992E-002    -2.4788656175717899E-020
  -6.5000000000000002E-002     3.5229573821019432E-020
  -6.3899999999999985E-002     7.4170610115336265E-020
  -6.2799999999999995E-002    -1.9731886621989216E-021
  -6.1699999999999991E-002    -1.1983194928054373E-019
  -6.0599999999999994E-002    -6.7404389026926139E-020
  -5.9499999999999990E-002     1.5570222295359950E-019
  -5.8399999999999994E-002     1.7528051530287276E-019
  -5.7299999999999990E-002    -2.2764279291158401E-019
  -5.6199999999999986E-002    -4.9464299446480594E-019
  -5.5099999999999996E-002     1.4486324887231383E-019
  -5.3999999999999992E-002     1.1741730567492487E-018
  -5.2899999999999989E-002     7.8317889496463422E-019
  -5.1799999999999985E-002    -1.4747682166043345E-018
  -5.0699999999999995E-002    -2.7673873332165826E-018
  -4.9599999999999991E-002    -1.2249883127420297E-019
  -4.8499999999999988E-002     4.1183540124795196E-018
  -4.7399999999999998E-002     3.5007147926984249E-018
  -4.6299999999999994E-002    -3.0219496851879392E-018
  -4.5199999999999990E-002    -6.4421458898798398E-018
  -4.4099999999999986E-002     6.6811253998816162E-019
  -4.2999999999999997E-002     9.3954383434549589E-018
  -4.1899999999999993E-002     2.9375352832914433E-018
  -4.0799999999999989E-002    -1.5047922465415645E-017
  -3.9699999999999985E-002    -1.5278245943897360E-017
  -3.8599999999999995E-002     1.5953074776869146E-017
  -3.7499999999999992E-002     4.0582351045855944E-017
  -3.6399999999999988E-002     8.1815102626833757E-018
  -3.5299999999999984E-002    -5.9322058340073331E-017
  -3.4199999999999994E-002    -6.6170227074395743E-017
  -3.3099999999999991E-002     3.0271875582627475E-017
  -3.1999999999999987E-002     1.2269180920238915E-016
  -3.0899999999999997E-002     6.5905112379350048E-017
  -2.9799999999999993E-002    -1.0320108477770016E-016
  -2.8699999999999989E-002    -1.6215151402961057E-016
  -2.7599999999999986E-002    -6.7996040299812349E-019
  -2.6499999999999996E-002     1.6911963057019807E-016
  -2.5399999999999992E-002     7.0321303938317554E-017
  -2.4299999999999988E-002    -1.8749020024425755E-016
  -2.3199999999999985E-002    -1.6165468950137652E-016
  -2.2099999999999995E-002     2.7199143790709803E-016
  -2.0999999999999991E-002     5.5430804862254836E-016
  -1.9899999999999987E-002     9.0519565571759895E-017
  -1.8799999999999983E-002    -7.8513532641942270E-016
  -1.7699999999999994E-002    -9.7998503860034824E-016
  -1.6599999999999990E-002    -4.5216183750153502E-017
  -1.5499999999999986E-002     1.0112116493547069E-015
  -1.4399999999999996E-002     8.9498189421159018E-016
  -1.3299999999999992E-002    -1.5423501175567387E-016
  -1.2199999999999989E-002    -5.3296271247262159E-016
  -1.1099999999999985E-002     4.2856714580317035E-016
  -9.9999999999999950E-003     1.1794346161408975E-015
  -8.8999999999999913E-003    -8.5313873131502376E-017
  -7.7999999999999875E-003    -2.5302777841034905E-015
  -6.6999999999999837E-003    -3.1038726141163417E-015
  -5.5999999999999939E-003    -3.7245552762164803E-016
  -4.4999999999999901E-003     3.1982833299337796E-015
  -3.3999999999999864E-003     3.9517072780552182E-015
  -2.2999999999999826E-003     1.4796386568782273E-015
  -1.1999999999999927E-003    -1.1487754115820808E-015
  -9.9999999999988987E-005    -1.6275985838628453E-015
   1.0000000000000148E-003    -1.1447527462364517E-015
   2.1000000000000185E-003    -1.7986623932750084E-015
   3.2000000000000084E-003    -2.7291659905582469E-015
   4.3000000000000121E-003    -1.0008531775636156E-015
   5.4000000000000159E-003     3.7843767663580784E-015
   6.5000000000000058E-003     7.7363152844078971E-015
   7.6000000000000234E-003     6.4905462359148448E-015
   8.7000000000000133E-003    -5.3804199848039120E-016
   9.8000000000000032E-003    -1.0280425328298287E-014
   1.0900000000000021E-002    -1.8463448001396210E-014
   1.2000000000000011E-002    -2.0113869676264585E-014
   1.3100000000000001E-002    -9.9634401884473103E-015
   1.4200000000000018E-002     1.2978415000683419E-014
   1.5300000000000008E-002     3.9892978379247115E-014
   1.6400000000000026E-002     5.4871414351250966E-014
   1.7500000000000016E-002     4.6532249624656186E-014
   1.8600000000000005E-002     1.6294142413369322E-014
   1.9700000000000023E-002    -2.6355010025475717E-014
   2.0800000000000013E-002    -7.2515269884752126E-014
   2.1900000000000003E-002    -1.1172832136471106E-013
   2.3000000000000020E-002    -1.2281610461701425E-013
   2.4100000000000010E-002    -8.0290232741444395E-014
   2.5200000000000000E-002     1.9542915259706563E-014
   2.6300000000000018E-002     1.3872166219550119E-013
   2.7400000000000008E-002     2.1460289871110677E-013
   2.8500000000000025E-002     2.0285718092295790E-013
   2.9600000000000015E-002     1.0814056762694854E-013
   3.0700000000000005E-002    -2.6606958281570614E-014
   3.1800000000000023E-002    -1.4920744219153181E-013
   3.2900000000000013E-002    -2.1321259916027430E-013
   3.4000000000000002E-002    -1.7857751681473605E-013
   3.5100000000000020E-002    -3.2435124329216122E-014
   3.6200000000000010E-002     1.8079251474806962E-013
   3.7300000000000028E-002     3.4149077879699896E-013
   3.8400000000000017E-002     3.1472732948435722E-013
   3.9500000000000007E-002     2.0689281180191060E-014
   4.0600000000000025E-002    -5.1229067645972015E-013
   4.1700000000000015E-002    -1.1311433560645678E-012
   4.2800000000000005E-002    -1.6260146441099410E-012
   4.3900000000000022E-002    -1.7681478026512765E-012
   4.5000000000000012E-002    -1.4377241801602492E-012
   4.6100000000000002E-002    -7.0657244161456689E-013
   4.7200000000000020E-002     2.1196655270849102E-013
   4.8300000000000010E-002     8.7098015431885667E-013
   4.9400000000000027E-002     8.7921835610627053E-013
   5.0500000000000017E-002    -5.6248412096679759E-014
   5.1600000000000007E-002    -1.7858394884412432E-012
   5.2700000000000025E-002    -3.9999084773534310E-012
   5.3800000000000014E-002    -5.8578662753827615E-012
   5.4900000000000004E-002    -6.8611002296270485E-012
   5.6000000000000022E-002    -6.7345170239041519E-012
   5.7100000000000012E-002    -5.6131089359867659E-012
   5.8200000000000002E-002    -4.0879608725896688E-012
   5.9300000000000019E-002    -3.0578892282889791E-012
   6.0400000000000009E-002    -3.7702319564958398E-012
   6.1500000000000027E-002    -7.0802977196471328E-012
   6.2600000000000017E-002    -1.2727455374339502E-011
   6.3700000000000007E-002    -2.0170322009849251E-011
   6.4800000000000024E-002    -2.7246198353036988E-011
   6.5900000000000014E-002    -3.1405631567560377E-011
   6.7000000000000004E-002    -3.2736938160304874E-011
   6.8100000000000022E-002    -3.2058591892258903E-011
   6.9200000000000012E-002    -2.9316656741107394E-011
   7.0300000000000029E-002    -2.9443027876885353E-011
   7.1400000000000019E-002    -3.4520570429963371E-011
   7.2500000000000009E-002    -4.4605773935613158E-011
   7.3600000000000027E-002    -6.0148108715907256E-011
   7.4700000000000016E-002    -8.1304199484044659E-011
   7.5800000000000006E-002    -9.8523425529073450E-011
   7.6900000000000024E-002    -1.1867554161604232E-010
   7.8000000000000014E-002    -1.3251182096052361E-010
   7.9100000000000004E-002    -1.3299819578982408E-010
   8.0200000000000021E-002    -1.3421566635862803E-010
   8.1300000000000011E-002    -1.3157297473753715E-010
   8.2400000000000029E-002    -1.3708245649723949E-010
   8.3500000000000019E-002    -1.5196320590771251E-010
   8.4600000000000009E-002    -1.9835028064463245E-010
   8.5700000000000026E-002    -2.4971527623485201E-010
   8.6800000000000016E-002    -2.8776497851268346E-010
   8.7900000000000006E-002    -2.9674501744736403E-010
   8.9000000000000024E-002    -3.4149724714716001E-010
   9.0100000000000013E-002    -3.7711744838020422E-010
   9.1200000000000003E-002    -3.7981290335054041E-010
   9.2300000000000021E-002    -3.8185957174086127E-010
   9.3400000000000011E-002    -3.5119954167051048E-010
   9.4500000000000028E-002    -3.7044592393620235E-010
   9.5600000000000018E-002    -3.7445960221482721E-010
   9.6700000000000008E-002    -3.9659794892621392E-010
   9.7800000000000026E-002    -4.8296472376918587E-010
   9.8900000000000016E-002    -5.9889615489083781E-010
  0.10000000000000001         -5.8819943360433058E-010
  0.10110000000000002         -5.8237825673046473E-010
  0.10220000000000001         -5.3053411663839256E-010
  0.10330000000000003         -4.4874437499231590E-010
  0.10440000000000002         -4.6714859758267835E-010
  0.10550000000000001         -4.2610009964860751E-010
  0.10660000000000003         -3.3272060107059076E-010
  0.10770000000000002         -2.7675498004420263E-010
  0.10880000000000001         -1.6738178898467737E-010
  0.10990000000000003         -3.1401825584254084E-010
  0.11100000000000002         -2.7791957624145880E-010
  0.11210000000000001          1.7814799982418528E-011
  0.11320000000000002         -5.6086784522291211E-011
  0.11430000000000001         -1.6481869688500517E-011
  0.11540000000000003          2.5938112768741917E-010
  0.11650000000000002          5.6988541663471892E-010
  0.11760000000000001          4.3017905904108034E-010
  0.11870000000000003          6.9221034459943098E-010
  0.11980000000000002          8.2046403004909507E-010
  0.12090000000000001          1.2474139499119019E-009
  0.12200000000000003          1.3814031030179308E-009
  0.12310000000000001          1.6581498396561756E-009
  0.12420000000000003          1.4688997795886394E-009
  0.12530000000000002          1.3786014552152892E-009
  0.12640000000000001          1.9963266595368623E-009
  0.12750000000000003          2.7580133732385548E-009
  0.12860000000000002          2.6810553777067980E-009
  0.12970000000000001          2.2194766025052104E-009
  0.13080000000000003          1.7546872843610117E-009
  0.13190000000000002          1.8867358786422983E-009
  0.13300000000000001          2.4481858762470665E-009
  0.13410000000000000          2.6490074578333633E-009
  0.13520000000000004          1.9909551784991208E-009
  0.13630000000000003          1.4521577273995945E-009
  0.13740000000000002          1.0055759558369459E-009
  0.13850000000000001          1.6687391468650503E-009
  0.13960000000000000          2.6961459731467130E-009
  0.14070000000000005          3.0623890090453187E-009
  0.14180000000000004          2.7496869225984710E-009
  0.14290000000000003          1.3278185218013050E-009
  0.14400000000000002         -1.9394116868021172E-010
  0.14510000000000001         -7.4313978581930229E-011
  0.14620000000000000          3.9675382423887129E-010
  0.14730000000000004          1.0189405985627786E-009
  0.14840000000000003          1.5438358924591000E-010
  0.14950000000000002         -1.3981362734227787E-009
  0.15060000000000001         -2.2152499834504624E-009
  0.15170000000000000         -2.0162993497052639E-009
  0.15280000000000005         -1.1517540254857295E-009
  0.15390000000000004         -6.5526462034171118E-010
  0.15500000000000003         -1.5833655497843324E-009
  0.15610000000000002         -3.1455582583106434E-009
  0.15720000000000001         -3.9329557388612102E-009
  0.15830000000000000         -3.9772700688445184E-009
  0.15940000000000004         -3.2308191677543618E-009
  0.16050000000000003         -2.3183066577558975E-009
  0.16160000000000002         -2.8016557962473598E-009
  0.16270000000000001         -3.9771461679549702E-009
  0.16380000000000000         -4.9330974860595234E-009
  0.16490000000000005         -4.4785575248340592E-009
  0.16600000000000004         -3.0806794892868083E-009
  0.16710000000000003         -1.9710491017121967E-009
  0.16820000000000002         -2.3374884250415562E-009
  0.16930000000000001         -4.3734700305719798E-009
  0.17040000000000000         -4.6205550496836167E-009
  0.17150000000000004         -3.5637848228020630E-009
  0.17260000000000003         -1.8314812999520313E-009
  0.17370000000000002         -1.9244025817322097E-010
  0.17480000000000001         -6.0578425609136843E-010
  0.17590000000000000         -2.5679256498989389E-009
  0.17700000000000005         -1.2084573342008298E-009
  0.17810000000000004          3.9325856460159514E-010
  0.17920000000000003          2.2501054353085692E-009
  0.18030000000000002          1.9896246872264101E-009
  0.18140000000000001          6.2786520427238202E-010
  0.18250000000000000         -1.3410416110914980E-009
  0.18360000000000004         -1.8371630883251555E-009
  0.18470000000000003         -3.7190989177204870E-010
  0.18580000000000002          2.6735511582387517E-009
  0.18690000000000001          5.0049915323313598E-009
  0.18800000000000000          4.9988009287460500E-009
  0.18910000000000005          2.1237029912413163E-009
  0.19020000000000004         -3.0602248513034169E-010
  0.19130000000000003         -2.6677116071738283E-010
  0.19240000000000002          1.6274678271699372E-009
  0.19350000000000001          3.0771656334138697E-009
  0.19460000000000005          3.6707306083627600E-009
  0.19570000000000004          2.4131221465495400E-009
  0.19680000000000003          1.0268773609212190E-009
  0.19790000000000002          9.0219026693816318E-010
  0.19900000000000001          2.2973989377561566E-009
  0.20010000000000000          3.4592437803127041E-009
  0.20120000000000005          3.0385256533094207E-009
  0.20230000000000004          1.2867034104857566E-009
  0.20340000000000003         -4.6166581668671824E-010
  0.20450000000000002         -9.5120544774118798E-010
  0.20560000000000000          2.1960989970981615E-010
  0.20670000000000005          1.8721610928196242E-009
  0.20780000000000004          2.2803281485295201E-009
  0.20890000000000003          1.1322934811985874E-009
