 -0.12000000000000000          0.0000000000000000
 -0.11889999999999999          0.0000000000000000
 -0.11780000000000000          0.0000000000000000
 -0.11670000000000000          0.0000000000000000
 -0.11559999999999999          0.0000000000000000
 -0.11449999999999999          0.0000000000000000
 -0.11340000000000000          0.0000000000000000
 -0.11230000000000000          0.0000000000000000
 -0.11119999999999999          0.0000000000000000
 -0.11009999999999999          2.4000243043723909E-024
 -0.10900000000000000         -1.3332590223960065E-023
 -0.10790000000000000         -2.2150797700048055E-023
 -0.10679999999999999          2.2310097115804765E-022
 -0.10569999999999999          1.7721250316100895E-022
 -0.10460000000000000         -2.1391639869154638E-021
 -0.10349999999999999         -2.0389646670262676E-021
 -0.10239999999999999          1.4471807544363650E-020
 -0.10130000000000000          2.1805797650411932E-020
 -0.10020000000000000         -6.8965317616904916E-020
  -9.9099999999999994E-002    -1.7179191984352158E-019
  -9.7999999999999990E-002     1.9025050691143067E-019
  -9.6899999999999986E-002     9.6671543533791339E-019
  -9.5799999999999996E-002     1.4037796539832160E-019
  -9.4699999999999993E-002    -3.7453360880681192E-018
  -9.3599999999999989E-002    -4.5490826738675196E-018
  -9.2499999999999999E-002     8.3685564786969291E-018
  -9.1399999999999995E-002     2.4897802256878662E-017
  -9.0299999999999991E-002     2.0418335103363605E-018
  -8.9200000000000002E-002    -7.3402227465277462E-017
  -8.8099999999999984E-002    -9.4268870885997350E-017
  -8.6999999999999994E-002     8.6430639750342868E-017
  -8.5899999999999990E-002     3.5334527319150894E-016
  -8.4799999999999986E-002     2.3068886731933706E-016
  -8.3699999999999997E-002    -5.3541725513508694E-016
  -8.2599999999999993E-002    -1.2087282977096218E-015
  -8.1499999999999989E-002    -4.7744774959310112E-016
  -8.0399999999999999E-002     1.7436687791745229E-015
  -7.9299999999999995E-002     3.3463715824099067E-015
  -7.8199999999999992E-002     1.8757017338936815E-015
  -7.7100000000000002E-002    -2.7436650770328724E-015
  -7.5999999999999984E-002    -8.1821214300420442E-015
  -7.4899999999999994E-002    -1.1101885503842033E-014
  -7.3799999999999991E-002    -5.6434840660238642E-015
  -7.2699999999999987E-002     1.6435271654909045E-014
  -7.1599999999999997E-002     5.1355939628943553E-014
  -7.0499999999999993E-002     6.1798886862897418E-014
  -6.9399999999999989E-002    -9.1977927078640449E-015
  -6.8300000000000000E-002    -1.6187131658945003E-013
  -6.7199999999999996E-002    -2.6758933610593338E-013
  -6.6099999999999992E-002    -1.3148072311886666E-013
  -6.5000000000000002E-002     2.9113186470960950E-013
  -6.3899999999999985E-002     7.3013481111799949E-013
  -6.2799999999999995E-002     7.3568256521439057E-013
  -6.1699999999999991E-002     6.6426065223421787E-014
  -6.0599999999999994E-002    -1.0373297273241766E-012
  -5.9499999999999990E-002    -1.9627706578095871E-012
  -5.8399999999999994E-002    -2.0493361781864783E-012
  -5.7299999999999990E-002    -8.2077910006778110E-013
  -5.6199999999999986E-002     1.8077351681550224E-012
  -5.5099999999999996E-002     5.0855960068152406E-012
  -5.3999999999999992E-002     7.0806819608970617E-012
  -5.2899999999999989E-002     5.3764384437549051E-012
  -5.1799999999999985E-002    -1.0103262627556009E-012
  -5.0699999999999995E-002    -1.0081622169033633E-011
  -4.9599999999999991E-002    -1.7582159686502230E-011
  -4.8499999999999988E-002    -1.9545533594400588E-011
  -4.7399999999999998E-002    -1.3909917488674761E-011
  -4.6299999999999994E-002     1.6937383299272385E-013
  -4.5199999999999990E-002     2.2812196576182941E-011
  -4.4099999999999986E-002     5.0620695135616955E-011
  -4.2999999999999997E-002     7.2553019148102749E-011
  -4.1899999999999993E-002     7.0975482435731152E-011
  -4.0799999999999989E-002     3.0996663569204941E-011
  -3.9699999999999985E-002    -4.7768344835219523E-011
  -3.8599999999999995E-002    -1.4639935097537915E-010
  -3.7499999999999992E-002    -2.3152847694607459E-010
  -3.6399999999999988E-002    -2.6450702739211351E-010
  -3.5299999999999984E-002    -2.1055435173167325E-010
  -3.4199999999999994E-002    -4.9907519089620322E-011
  -3.3099999999999991E-002     2.0773772979598704E-010
  -3.1999999999999987E-002     5.1289411606703084E-010
  -3.0899999999999997E-002     7.8018080884589835E-010
  -2.9799999999999993E-002     9.0634449945170559E-010
  -2.8699999999999989E-002     7.9278178466424265E-010
  -2.7599999999999986E-002     3.6855810070512973E-010
  -2.6499999999999996E-002    -3.7981309763956972E-010
  -2.5399999999999992E-002    -1.3729903880488337E-009
  -2.4299999999999988E-002    -2.4199209303077396E-009
  -2.3199999999999985E-002    -3.2392792892466105E-009
  -2.2099999999999995E-002    -3.5146894283855090E-009
  -2.0999999999999991E-002    -2.9500306641949692E-009
  -1.9899999999999987E-002    -1.3049282765464909E-009
  -1.8799999999999983E-002     1.5754899607145489E-009
  -1.7699999999999994E-002     5.7239546435994271E-009
  -1.6599999999999990E-002     1.1035679037263435E-008
  -1.5499999999999986E-002     1.7315777256499132E-008
  -1.4399999999999996E-002     2.4378254082080275E-008
  -1.3299999999999992E-002     3.2129623406262908E-008
  -1.2199999999999989E-002     4.0597793571350849E-008
  -1.1099999999999985E-002     4.9950223512951197E-008
  -9.9999999999999950E-003     6.0562548753750889E-008
  -8.8999999999999913E-003     7.3109767129153624E-008
  -7.7999999999999875E-003     8.8576193491007871E-008
  -6.6999999999999837E-003     1.0814451201213160E-007
  -5.5999999999999939E-003     1.3305705692800984E-007
  -4.4999999999999901E-003     1.6457231311051146E-007
  -3.3999999999999864E-003     2.0401995470820111E-007
  -2.2999999999999826E-003     2.5285595484092482E-007
  -1.1999999999999927E-003     3.1267242661670025E-007
  -9.9999999999988987E-005     3.8522281897712674E-007
   1.0000000000000148E-003     4.7251756996047334E-007
   2.1000000000000185E-003     5.7696377098181983E-007
   3.2000000000000084E-003     7.0149764042071183E-007
   4.3000000000000121E-003     8.4973675029687001E-007
   5.4000000000000159E-003     1.0261707075187587E-006
   6.5000000000000058E-003     1.2362637562546297E-006
   7.6000000000000234E-003     1.4863168189549469E-006
   8.7000000000000133E-003     1.7831741843110649E-006
   9.8000000000000032E-003     2.1341184037737548E-006
   1.0900000000000021E-002     2.5471513254160527E-006
   1.2000000000000011E-002     3.0314015475596534E-006
   1.3100000000000001E-002     3.5971929719380569E-006
   1.4200000000000018E-002     4.2558099266898353E-006
   1.5300000000000008E-002     5.0194080358778592E-006
   1.6400000000000026E-002     5.9014228099840693E-006
   1.7500000000000016E-002     6.9171333052508999E-006
   1.8600000000000005E-002     8.0838117355597205E-006
   1.9700000000000023E-002     9.4202132459031418E-006
   2.0800000000000013E-002     1.0946042493742425E-005
   2.1900000000000003E-002     1.2681763109867461E-005
   2.3000000000000020E-002     1.4648730029875878E-005
   2.4100000000000010E-002     1.6869274986675009E-005
   2.5200000000000000E-002     1.9366460037417710E-005
   2.6300000000000018E-002     2.2163936591823585E-005
   2.7400000000000008E-002     2.5285622541559860E-005
   2.8500000000000025E-002     2.8755253879353404E-005
   2.9600000000000015E-002     3.2595915399724618E-005
   3.0700000000000005E-002     3.6829926102655008E-005
   3.1800000000000023E-002     4.1478604543954134E-005
   3.2900000000000013E-002     4.6561704948544502E-005
   3.4000000000000002E-002     5.2095754654146731E-005
   3.5100000000000020E-002     5.8092307881452143E-005
   3.6200000000000010E-002     6.4557374571450055E-005
   3.7300000000000028E-002     7.1492191636934876E-005
   3.8400000000000017E-002     7.8893179306760430E-005
   3.9500000000000007E-002     8.6749889305792749E-005
   4.0600000000000025E-002     9.5042625616770238E-005
   4.1700000000000015E-002     1.0374069825047627E-004
   4.2800000000000005E-002     1.1280378384981304E-004
   4.3900000000000022E-002     1.2218208576086909E-004
   4.5000000000000012E-002     1.3181554095353931E-004
   4.6100000000000002E-002     1.4163184096105397E-004
   4.7200000000000020E-002     1.5154507127590477E-004
   4.8300000000000010E-002     1.6145392146427184E-004
   4.9400000000000027E-002     1.7124296573456377E-004
   5.0500000000000017E-002     1.8078586435876787E-004
   5.1600000000000007E-002     1.8994427227880806E-004
   5.2700000000000025E-002     1.9856911967508495E-004
   5.3800000000000014E-002     2.0649905491154641E-004
   5.4900000000000004E-002     2.1356029901653528E-004
   5.6000000000000022E-002     2.1956927957944572E-004
   5.7100000000000012E-002     2.2433833510149270E-004
   5.8200000000000002E-002     2.2767778136767447E-004
   5.9300000000000019E-002     2.2939949121791869E-004
   6.0400000000000009E-002     2.2931728744879365E-004
   6.1500000000000027E-002     2.2724499285686761E-004
   6.2600000000000017E-002     2.2300178534351289E-004
   6.3700000000000007E-002     2.1642069623339921E-004
   6.4800000000000024E-002     2.0735684665851295E-004
   6.5900000000000014E-002     1.9569108553696424E-004
   6.7000000000000004E-002     1.8132093828171492E-004
   6.8100000000000022E-002     1.6416820290032774E-004
   6.9200000000000012E-002     1.4418351929634809E-004
   7.0300000000000029E-002     1.2135653378209099E-004
   7.1400000000000019E-002     9.5721195975784212E-005
   7.2500000000000009E-002     6.7350214521866292E-005
   7.3600000000000027E-002     3.6358029319671914E-005
   7.4700000000000016E-002     2.9001150778640294E-006
   7.5800000000000006E-002    -3.2827603718033060E-005
   7.6900000000000024E-002    -7.0584850618615746E-005
   7.8000000000000014E-002    -1.1008497676812112E-004
   7.9100000000000004E-002    -1.5099512529559433E-004
   8.0200000000000021E-002    -1.9293939112685621E-004
   8.1300000000000011E-002    -2.3551599588245153E-004
   8.2400000000000029E-002    -2.7830147882923484E-004
   8.3500000000000019E-002    -3.2084624399431050E-004
   8.4600000000000009E-002    -3.6266774986870587E-004
   8.5700000000000026E-002    -4.0326532325707376E-004
   8.6800000000000016E-002    -4.4213785440661013E-004
   8.7900000000000006E-002    -4.7879759222269058E-004
   8.9000000000000024E-002    -5.1277206512168050E-004
   9.0100000000000013E-002    -5.4359796922653913E-004
   9.1200000000000003E-002    -5.7082949206233025E-004
   9.2300000000000021E-002    -5.9405289357528090E-004
   9.3400000000000011E-002    -6.1290222220122814E-004
   9.4500000000000028E-002    -6.2706414610147476E-004
   9.5600000000000018E-002    -6.3628063071519136E-004
   9.6700000000000008E-002    -6.4035190735012293E-004
   9.7800000000000026E-002    -6.3913851045072079E-004
   9.8900000000000016E-002    -6.3256459543481469E-004
  0.10000000000000001         -6.2062032520771027E-004
  0.10110000000000002         -6.0337019385769963E-004
  0.10220000000000001         -5.8096082648262382E-004
  0.10330000000000003         -5.5361184058710933E-004
  0.10440000000000002         -5.2160030463710427E-004
  0.10550000000000001         -4.8524787416681647E-004
  0.10660000000000003         -4.4493045425042510E-004
  0.10770000000000002         -4.0109461406245828E-004
  0.10880000000000001         -3.5424507223069668E-004
  0.10990000000000003         -3.0491434154100716E-004
  0.11100000000000002         -2.5364523753523827E-004
  0.11210000000000001         -2.0099729590583593E-004
  0.11320000000000002         -1.4754204312339425E-004
  0.11430000000000001         -9.3865841336082667E-005
  0.11540000000000003         -4.0548289689468220E-005
  0.11650000000000002          1.1849895599880256E-005
  0.11760000000000001          6.2793951656203717E-005
  0.11870000000000003          1.1178834392921999E-004
  0.11980000000000002          1.5837802493479103E-004
  0.12090000000000001          2.0215530821587890E-004
  0.12200000000000003          2.4275205214507878E-004
  0.12310000000000001          2.7984430198557675E-004
  0.12420000000000003          3.1316498643718660E-004
  0.12530000000000002          3.4252132172696292E-004
  0.12640000000000001          3.6779080983251333E-004
  0.12750000000000003          3.8889684947207570E-004
  0.12860000000000002          4.0580774657428265E-004
  0.12970000000000001          4.1854192386381328E-004
  0.13080000000000003          4.2717930045910180E-004
  0.13190000000000002          4.3185884715057909E-004
  0.13300000000000001          4.3276284122839570E-004
  0.13410000000000000          4.3010024819523096E-004
  0.13520000000000004          4.2410742025822401E-004
  0.13630000000000003          4.1505589615553617E-004
  0.13740000000000002          4.0324337896890938E-004
  0.13850000000000001          3.8897848571650684E-004
  0.13960000000000000          3.7257329677231610E-004
  0.14070000000000005          3.5434635356068611E-004
  0.14180000000000004          3.3462629653513432E-004
  0.14290000000000003          3.1373801175504923E-004
  0.14400000000000002          2.9198700212873518E-004
  0.14510000000000001          2.6965854340232909E-004
  0.14620000000000000          2.4702641530893743E-004
  0.14730000000000004          2.2435378923546523E-004
  0.14840000000000003          2.0188171765767038E-004
  0.14950000000000002          1.7982050485443324E-004
  0.15060000000000001          1.5835526573937386E-004
  0.15170000000000000          1.3765277981292456E-004
  0.15280000000000005          1.1785728565882891E-004
  0.15390000000000004          9.9079974461346865E-005
  0.15500000000000003          8.1402082287240773E-005
  0.15610000000000002          6.4887775806710124E-005
  0.15720000000000001          4.9594622396398336E-005
  0.15830000000000000          3.5560697142500430E-005
  0.15940000000000004          2.2789745344198309E-005
  0.16050000000000003          1.1257755431870464E-005
  0.16160000000000002          9.3419697577701299E-007
  0.16270000000000001         -8.2073993326048367E-006
  0.16380000000000000         -1.6200499885599129E-005
  0.16490000000000005         -2.3099666577763855E-005
  0.16600000000000004         -2.8976854082429782E-005
  0.16710000000000003         -3.3903441362781450E-005
  0.16820000000000002         -3.7945337680866942E-005
  0.16930000000000001         -4.1171882912749425E-005
  0.17040000000000000         -4.3660267692757770E-005
  0.17150000000000004         -4.5487893657991663E-005
  0.17260000000000003         -4.6720731916138902E-005
  0.17370000000000002         -4.7421068302355707E-005
  0.17480000000000001         -4.7658428229624406E-005
  0.17590000000000000         -4.7506731789326295E-005
  0.17700000000000005         -4.7030029236339033E-005
  0.17810000000000004         -4.6274490159703419E-005
  0.17920000000000003         -4.5280918129719794E-005
  0.18030000000000002         -4.4098534999648109E-005
  0.18140000000000001         -4.2779731302289292E-005
  0.18250000000000000         -4.1364102798979729E-005
  0.18360000000000004         -3.9875714719528332E-005
  0.18470000000000003         -3.8338093872880563E-005
  0.18580000000000002         -3.6782010283786803E-005
  0.18690000000000001         -3.5237233532825485E-005
  0.18800000000000000         -3.3717511541908607E-005
  0.18910000000000005         -3.2225656468654051E-005
  0.19020000000000004         -3.0770981538807973E-005
  0.19130000000000003         -2.9373786674113944E-005
  0.19240000000000002         -2.8049838874721900E-005
  0.19350000000000001         -2.6797715690918267E-005
  0.19460000000000005         -2.5607143470551819E-005
  0.19570000000000004         -2.4475684767821804E-005
  0.19680000000000003         -2.3410962967318483E-005
  0.19790000000000002         -2.2416865249397233E-005
  0.19900000000000001         -2.1487085177795961E-005
  0.20010000000000000         -2.0614150344044901E-005
  0.20120000000000005         -1.9798240828095004E-005
  0.20230000000000004         -1.9039520338992588E-005
  0.20340000000000003         -1.8327184079680592E-005
  0.20450000000000002         -1.7644850231590681E-005
  0.20560000000000000         -1.6985988622764125E-005
  0.20670000000000005         -1.6357673302991316E-005
  0.20780000000000004         -1.5764100680826232E-005
  0.20890000000000003         -1.5193813851510640E-005
