 -0.12000000000000000          0.0000000000000000
 -0.11889999999999999          0.0000000000000000
 -0.11780000000000000          0.0000000000000000
 -0.11670000000000000          1.2546763107634806E-011
 -0.11559999999999999          1.3697711367943732E-011
 -0.11449999999999999         -3.8519888667654101E-011
 -0.11340000000000000         -6.0437016502490337E-011
 -0.11230000000000000          8.1728193657149006E-011
 -0.11119999999999999          2.1664815774702362E-010
 -0.11009999999999999         -3.4040614077524012E-011
 -0.10900000000000000         -4.8208054215237439E-010
 -0.10790000000000000         -2.7206706332272290E-010
 -0.10679999999999999          7.1667355383553399E-010
 -0.10569999999999999          1.0246070658581630E-009
 -0.10460000000000000         -4.2161413249530710E-010
 -0.10349999999999999         -1.8818480107540836E-009
 -0.10239999999999999         -6.0493338116529571E-010
 -0.10130000000000000          2.4258657305153974E-009
 -0.10020000000000000          2.5024646799209904E-009
  -9.9099999999999994E-002    -1.8537392731943214E-009
  -9.7999999999999990E-002    -4.8300972110837392E-009
  -9.6899999999999986E-002    -6.5601130083692283E-010
  -9.5799999999999996E-002     6.4044076708569264E-009
  -9.4699999999999993E-002     5.8165898764173107E-009
  -9.3599999999999989E-002    -3.7803706831596173E-009
  -9.2499999999999999E-002    -9.8755315036669344E-009
  -9.1399999999999995E-002    -2.5646533785561587E-009
  -9.0299999999999991E-002     9.5435064295656957E-009
  -8.9200000000000002E-002     9.3253387234426555E-009
  -8.8099999999999984E-002    -4.2171426350989805E-009
  -8.6999999999999994E-002    -1.2694440165716969E-008
  -8.5899999999999990E-002    -3.9120702233219617E-009
  -8.4799999999999986E-002     9.9854604584947992E-009
  -8.3699999999999997E-002     9.7387156117179074E-009
  -8.2599999999999993E-002    -2.9504683141112764E-009
  -8.1499999999999989E-002    -8.7990539299198645E-009
  -8.0399999999999999E-002    -8.1161039000576807E-010
  -7.9299999999999995E-002     5.8461169238910315E-009
  -7.8199999999999992E-002    -3.1187788462894162E-010
  -7.7100000000000002E-002    -7.3376864584417945E-009
  -7.5999999999999984E-002     2.9691941180048920E-012
  -7.4899999999999994E-002     1.1607462546692204E-008
  -7.3799999999999991E-002     4.7746384623792437E-009
  -7.2699999999999987E-002    -1.6708165517798079E-008
  -7.1599999999999997E-002    -2.0920309040661778E-008
  -7.0499999999999993E-002     5.0183723843133521E-009
  -6.9399999999999989E-002     2.8316698319486022E-008
  -6.8300000000000000E-002     1.2550958494728093E-008
  -6.7199999999999996E-002    -2.6887942539133292E-008
  -6.6099999999999992E-002    -3.8679164759969353E-008
  -6.5000000000000002E-002    -6.8538561492914596E-009
  -6.3899999999999985E-002     2.4600396386631473E-008
  -6.2799999999999995E-002     1.2652751735231504E-008
  -6.1699999999999991E-002    -2.5253452662354903E-008
  -6.0599999999999994E-002    -3.9293038156529292E-008
  -5.9499999999999990E-002    -1.9400914652578649E-008
  -5.8399999999999994E-002    -3.7838399080669660E-009
  -5.7299999999999990E-002    -1.5919523477236908E-008
  -5.6199999999999986E-002    -3.1369257413871310E-008
  -5.5099999999999996E-002    -2.4939522447198215E-008
  -5.3999999999999992E-002    -1.7682884490000106E-008
  -5.2899999999999989E-002    -4.2286462331730945E-008
  -5.1799999999999985E-002    -8.0362298149339040E-008
  -5.0699999999999995E-002    -7.9882468639880244E-008
  -4.9599999999999991E-002    -3.7831284771527862E-008
  -4.8499999999999988E-002    -1.9347170976402595E-008
  -4.7399999999999998E-002    -6.9011790060358180E-008
  -4.6299999999999994E-002    -1.3945387422609201E-007
  -4.5199999999999990E-002    -1.5015395149475808E-007
  -4.4099999999999986E-002    -1.0027047636640418E-007
  -4.2999999999999997E-002    -7.1666931944491807E-008
  -4.1899999999999993E-002    -1.1474452321635908E-007
  -4.0799999999999989E-002    -1.8237510346352792E-007
  -3.9699999999999985E-002    -2.0388004884352995E-007
  -3.8599999999999995E-002    -1.8465661355548946E-007
  -3.7499999999999992E-002    -1.8540903568009526E-007
  -3.6399999999999988E-002    -2.2214078398974380E-007
  -3.5299999999999984E-002    -2.4801934728202468E-007
  -3.4199999999999994E-002    -2.3923982439555402E-007
  -3.3099999999999991E-002    -2.4121229103002406E-007
  -3.1999999999999987E-002    -2.9318422889446083E-007
  -3.0899999999999997E-002    -3.5208702797717706E-007
  -2.9799999999999993E-002    -3.4674403082135541E-007
  -2.8699999999999989E-002    -2.9049104455225461E-007
  -2.7599999999999986E-002    -2.7545084435587341E-007
  -2.6499999999999996E-002    -3.4248205338371918E-007
  -2.5399999999999992E-002    -4.1515204429742880E-007
  -2.4299999999999988E-002    -4.0524611222281237E-007
  -2.3199999999999985E-002    -3.3571558333278517E-007
  -2.2099999999999995E-002    -3.0304008191706089E-007
  -2.0999999999999991E-002    -3.3726442438819504E-007
  -1.9899999999999987E-002    -3.6610245501833560E-007
  -1.8799999999999983E-002    -3.3274599786636827E-007
  -1.7699999999999994E-002    -2.7657031864691817E-007
  -1.6599999999999990E-002    -2.5848984819276666E-007
  -1.5499999999999986E-002    -2.6027734634226363E-007
  -1.4399999999999996E-002    -2.1478064127222751E-007
  -1.3299999999999992E-002    -1.2105300584153156E-007
  -1.2199999999999989E-002    -5.5594554737581348E-008
  -1.1099999999999985E-002    -5.3948753020449658E-008
  -9.9999999999999950E-003    -4.6930264119282583E-008
  -8.8999999999999913E-003     4.4146634792241457E-008
  -7.7999999999999875E-003     1.8381598465566640E-007
  -6.6999999999999837E-003     2.7294689175505482E-007
  -5.5999999999999939E-003     2.9075033580738818E-007
  -4.4999999999999901E-003     3.1965078051143792E-007
  -3.3999999999999864E-003     4.1699919961502019E-007
  -2.2999999999999826E-003     5.4522678283319692E-007
  -1.1999999999999927E-003     6.2424891211776412E-007
  -9.9999999999988987E-005     6.5646048597045592E-007
   1.0000000000000148E-003     7.1312780391963315E-007
   2.1000000000000185E-003     8.1592929745966103E-007
   3.2000000000000084E-003     9.0033648803000688E-007
   4.3000000000000121E-003     9.2081410230093752E-007
   5.4000000000000159E-003     9.2340673063517897E-007
   6.5000000000000058E-003     9.7919826202996774E-007
   7.6000000000000234E-003     1.0637889999998151E-006
   8.7000000000000133E-003     1.0917643749053241E-006
   9.8000000000000032E-003     1.0449374485688168E-006
   1.0900000000000021E-002     9.9729800240311306E-007
   1.2000000000000011E-002     1.0084798987008980E-006
   1.3100000000000001E-002     1.0350356660637772E-006
   1.4200000000000018E-002     9.9640317330340622E-007
   1.5300000000000008E-002     8.9759947741185897E-007
   1.6400000000000026E-002     8.1143480201717466E-007
   1.7500000000000016E-002     7.6824164807476336E-007
   1.8600000000000005E-002     7.1639243515164708E-007
   1.9700000000000023E-002     6.0888112329848809E-007
   2.0800000000000013E-002     4.7776330802662414E-007
   2.1900000000000003E-002     3.8106227862044761E-007
   2.3000000000000020E-002     3.0979637699601881E-007
   2.4100000000000010E-002     2.0490459462507715E-007
   2.5200000000000000E-002     5.4819654593529776E-008
   2.6300000000000018E-002    -8.1173894272978941E-008
   2.7400000000000008E-002    -1.6295095406348992E-007
   2.8500000000000025E-002    -2.3006025173799571E-007
   2.9600000000000015E-002    -3.3869071103254100E-007
   3.0700000000000005E-002    -4.7625857746425027E-007
   3.1800000000000023E-002    -5.7864531299856026E-007
   3.2900000000000013E-002    -6.2479097096002079E-007
   3.4000000000000002E-002    -6.6344222204861580E-007
   3.5100000000000020E-002    -7.3643946052470710E-007
   3.6200000000000010E-002    -8.1279353025820456E-007
   3.7300000000000028E-002    -8.5269437022361672E-007
   3.8400000000000017E-002    -8.5383413761519478E-007
   3.9500000000000007E-002    -8.5479183553616167E-007
   4.0600000000000025E-002    -8.7009783555913600E-007
   4.1700000000000015E-002    -8.6965542323014233E-007
   4.2800000000000005E-002    -8.3811966078428668E-007
   4.3900000000000022E-002    -7.9375780615009717E-007
   4.5000000000000012E-002    -7.6569727980313473E-007
   4.6100000000000002E-002    -7.4009284389831009E-007
   4.7200000000000020E-002    -6.8791672447332530E-007
   4.8300000000000010E-002    -6.0877880514453864E-007
   4.9400000000000027E-002    -5.3012473699709517E-007
   5.0500000000000017E-002    -4.7510209810752713E-007
   5.1600000000000007E-002    -4.2494093577261083E-007
   5.2700000000000025E-002    -3.5920135132982978E-007
   5.3800000000000014E-002    -2.7973567284789169E-007
   5.4900000000000004E-002    -2.0865330441210972E-007
   5.6000000000000022E-002    -1.4475892839982407E-007
   5.7100000000000012E-002    -7.9991792745204293E-008
   5.8200000000000002E-002    -1.9565735698279241E-008
   5.9300000000000019E-002     2.1588304477404563E-008
   6.0400000000000009E-002     4.9604388152602041E-008
   6.1500000000000027E-002     9.2475559654303652E-008
   6.2600000000000017E-002     1.5187944768513262E-007
   6.3700000000000007E-002     1.9792257432982296E-007
   6.4800000000000024E-002     2.1004697714488429E-007
   6.5900000000000014E-002     2.0761916630362975E-007
   6.7000000000000004E-002     2.2108761754680017E-007
   6.8100000000000022E-002     2.4539284027014219E-007
   6.9200000000000012E-002     2.5401195102858765E-007
   7.0300000000000029E-002     2.4379804131058336E-007
   7.1400000000000019E-002     2.3944008376020065E-007
   7.2500000000000009E-002     2.4720969804548076E-007
   7.3600000000000027E-002     2.3842508767302206E-007
   7.4700000000000016E-002     1.9809890261512919E-007
   7.5800000000000006E-002     1.6016950610264757E-007
   7.6900000000000024E-002     1.6225813226355967E-007
   7.8000000000000014E-002     1.8576035643036448E-007
   7.9100000000000004E-002     1.7524172335470212E-007
   8.0200000000000021E-002     1.2138870886246877E-007
   8.1300000000000011E-002     7.6690099604093120E-008
   8.2400000000000029E-002     7.7165907441667514E-008
   8.3500000000000019E-002     9.0008811071129458E-008
   8.4600000000000009E-002     6.6539655563246924E-008
   8.5700000000000026E-002     2.3824576089737093E-008
   8.6800000000000016E-002     1.4289347483043002E-008
   8.7900000000000006E-002     3.6018935389847684E-008
   8.9000000000000024E-002     3.0546779328233242E-008
   9.0100000000000013E-002    -2.2084824635726363E-008
   9.1200000000000003E-002    -6.1226451464335696E-008
   9.2300000000000021E-002    -3.4052554553909431E-008
   9.3400000000000011E-002     1.8160253745236332E-008
   9.4500000000000028E-002     1.4389596181274555E-008
   9.5600000000000018E-002    -4.7453994511670317E-008
   9.6700000000000008E-002    -8.4581209591760853E-008
   9.7800000000000026E-002    -5.1067299722262760E-008
   9.8900000000000016E-002    -3.2369968927525861E-009
  0.10000000000000001         -1.1931343024684793E-008
  0.10110000000000002         -5.4778361402441078E-008
  0.10220000000000001         -5.7037837564166693E-008
  0.10330000000000003         -1.5068795988781858E-008
  0.10440000000000002         -2.2516750686207843E-009
  0.10550000000000001         -4.7874731734509623E-008
  0.10660000000000003         -8.0543571812086157E-008
  0.10770000000000002         -3.6387017843253489E-008
  0.10880000000000001          3.3206195126922466E-008
  0.10990000000000003          2.9146988822503772E-008
  0.11100000000000002         -4.5272766868720282E-008
  0.11210000000000001         -8.2125666267529596E-008
  0.11320000000000002         -2.7208686859125919E-008
  0.11430000000000001          4.0234407805428418E-008
  0.11540000000000003          2.6057714208604921E-008
  0.11650000000000002         -3.8483193520733039E-008
  0.11760000000000001         -4.9797101553394896E-008
  0.11870000000000003          6.7923706659200889E-009
  0.11980000000000002          3.7699699362292449E-008
  0.12090000000000001         -7.8476407594507691E-009
  0.12200000000000003         -5.4796707615878404E-008
  0.12310000000000001         -2.0258207555912122E-008
  0.12420000000000003          5.1059462435887326E-008
  0.12530000000000002          4.9637531418511571E-008
  0.12640000000000001         -2.8244393490695074E-008
  0.12750000000000003         -6.8741982772735355E-008
  0.12860000000000002         -1.0501295832909818E-008
  0.12970000000000001          6.0825030345768027E-008
  0.13080000000000003          4.1584485188650433E-008
  0.13190000000000002         -3.4081377719985539E-008
  0.13300000000000001         -4.9377678834616745E-008
  0.13410000000000000          1.5239626449670141E-008
  0.13520000000000004          5.4923166459275308E-008
  0.13630000000000003          6.0120033396060535E-009
  0.13740000000000002         -5.3634085617204619E-008
  0.13850000000000001         -2.6816747933366969E-008
  0.13960000000000000          4.8765560478614134E-008
  0.14070000000000005          5.5531614862047718E-008
  0.14180000000000004         -2.1366060920513519E-008
  0.14290000000000003         -6.7985268970005563E-008
  0.14400000000000002         -1.4047496499358658E-008
  0.14510000000000001          5.9696716903090419E-008
  0.14620000000000000          4.3978861441473782E-008
  0.14730000000000004         -3.3607371108246298E-008
  0.14840000000000003         -5.4088921785933053E-008
  0.14950000000000002          9.5680787737251194E-009
  0.15060000000000001          5.3866902050003773E-008
  0.15170000000000000          8.5722948739430649E-009
  0.15280000000000005         -5.3738819616455658E-008
  0.15390000000000004         -3.2065631927480354E-008
  0.15500000000000003          4.3943479965946608E-008
  0.15610000000000002          5.7603017467044992E-008
  0.15720000000000001         -1.4806567527614334E-008
  0.15830000000000000         -6.5732898235637549E-008
  0.15940000000000004         -1.9232288650528062E-008
  0.16050000000000003          5.4222319079144654E-008
  0.16160000000000002          4.6038525880476300E-008
  0.16270000000000001         -2.7072486474821744E-008
  0.16380000000000000         -5.3158842661105155E-008
  0.16490000000000005          2.3594481923794319E-009
  0.16600000000000004          4.8583391532019959E-008
  0.16710000000000003          1.4357627975414289E-008
  0.16820000000000002         -4.2400685629218060E-008
  0.16930000000000001         -2.8783516015096211E-008
  0.17040000000000000          3.5626030125968100E-008
  0.17150000000000004          4.8780677275317430E-008
  0.17260000000000003         -1.3849268398757886E-008
  0.17370000000000002         -5.8693082394256635E-008
  0.17480000000000001         -1.6876319008929386E-008
  0.17590000000000000          5.0072824109292924E-008
  0.17700000000000005          4.3106528124781107E-008
  0.17810000000000004         -2.5459170771569006E-008
  0.17920000000000003         -5.3164644242542636E-008
  0.18030000000000002         -2.8369553373153167E-009
  0.18140000000000001          4.5916522140032612E-008
  0.18250000000000000          2.1451839415931317E-008
  0.18360000000000004         -3.3512911556954350E-008
  0.18470000000000003         -3.3373144248116660E-008
  0.18580000000000002          1.8273741630991935E-008
  0.18690000000000001          3.8790069822880469E-008
  0.18800000000000000         -2.7522819578962299E-009
  0.18910000000000005         -3.9746364421944236E-008
  0.19020000000000004         -1.4236467116290896E-008
  0.19130000000000003          3.3416039713074497E-008
  0.19240000000000002          2.9194941575383382E-008
  0.19350000000000001         -1.9708133791596083E-008
  0.19460000000000005         -3.7676187503166148E-008
  0.19570000000000004          1.9132480044703470E-009
  0.19680000000000003          3.7238358174818131E-008
  0.19790000000000002          1.4754896859869859E-008
  0.19900000000000001         -2.9464636952525325E-008
  0.20010000000000000         -2.7171322969365974E-008
  0.20120000000000005          1.7525755069414117E-008
  0.20230000000000004          3.6692505034352507E-008
  0.20340000000000003          3.0845690446312801E-009
  0.20450000000000002         -3.0750154422776177E-008
  0.20560000000000000         -1.4658026792346845E-008
  0.20670000000000005          2.4549478894186905E-008
  0.20780000000000004          2.7313294737041360E-008
  0.20890000000000003         -8.4747879824931260E-009
