 -0.12000000000000000          0.0000000000000000
 -0.11889999999999999          0.0000000000000000
 -0.11780000000000000          0.0000000000000000
 -0.11670000000000000          0.0000000000000000
 -0.11559999999999999          0.0000000000000000
 -0.11449999999999999          0.0000000000000000
 -0.11340000000000000          0.0000000000000000
 -0.11230000000000000          4.5173334915543855E-021
 -0.11119999999999999          2.6953383395904554E-021
 -0.11009999999999999         -3.9686148311642383E-020
 -0.10900000000000000         -4.3154532775948567E-020
 -0.10790000000000000          1.2673961825370042E-019
 -0.10679999999999999          1.1275675038395090E-019
 -0.10569999999999999         -2.9436460283678905E-019
 -0.10460000000000000          7.7179652784438657E-019
 -0.10349999999999999          3.4095613503514595E-018
 -0.10239999999999999         -2.6647571734607502E-018
 -0.10130000000000000         -2.4008300202614664E-017
 -0.10020000000000000         -2.3006908735613068E-017
  -9.9099999999999994E-002     5.9794438026845214E-017
  -9.7999999999999990E-002     1.6465776540652784E-016
  -9.6899999999999986E-002     6.5371812494824860E-017
  -9.5799999999999996E-002    -3.2096627411241083E-016
  -9.4699999999999993E-002    -5.9947491586458145E-016
  -9.3599999999999989E-002    -2.6554567599717041E-016
  -9.2499999999999999E-002     5.2617909029585791E-016
  -9.1399999999999995E-002     1.2265268951511580E-015
  -9.0299999999999991E-002     1.9775485519550650E-015
  -8.9200000000000002E-002     2.6896686324695421E-015
  -8.8099999999999984E-002     1.9473947878377427E-016
  -8.6999999999999994E-002    -9.5672506917644784E-015
  -8.5899999999999990E-002    -2.1019358061274800E-014
  -8.4799999999999986E-002    -1.4576915249951000E-014
  -8.3699999999999997E-002     2.3028618467983882E-014
  -8.2599999999999993E-002     6.8656241987170158E-014
  -8.1499999999999989E-002     7.0093887291622359E-014
  -8.0399999999999999E-002     1.8026813528514932E-015
  -7.9299999999999995E-002    -9.8447535930648589E-014
  -7.8199999999999992E-002    -1.7167478105328121E-013
  -7.7100000000000002E-002    -1.9459214513177503E-013
  -7.5999999999999984E-002    -1.4046683466991533E-013
  -7.4899999999999994E-002     9.1882779867675374E-014
  -7.3799999999999991E-002     5.6259548885870259E-013
  -7.2699999999999987E-002     1.0080226583997209E-012
  -7.1599999999999997E-002     8.3523872497145990E-013
  -7.0499999999999993E-002    -2.9889721882454812E-013
  -6.9399999999999989E-002    -1.8545852787515971E-012
  -6.8300000000000000E-002    -2.6645736398572817E-012
  -6.7199999999999996E-002    -2.0365252453163896E-012
  -6.6099999999999992E-002    -3.4666567576627227E-013
  -6.5000000000000002E-002     1.7393223363318389E-012
  -6.3899999999999985E-002     4.1749273309299451E-012
  -6.2799999999999995E-002     6.7709908860291712E-012
  -6.1699999999999991E-002     7.5979621899646688E-012
  -6.0599999999999994E-002     3.6871313294217778E-012
  -5.9499999999999990E-002    -5.3345947451099995E-012
  -5.8399999999999994E-002    -1.5047066023732292E-011
  -5.7299999999999990E-002    -1.9570286363679301E-011
  -5.6199999999999986E-002    -1.7235563670725540E-011
  -5.5099999999999996E-002    -1.0806295962229040E-011
  -5.3999999999999992E-002    -1.1947521964816854E-012
  -5.2899999999999989E-002     1.5830900826352412E-011
  -5.1799999999999985E-002     4.2452201476361751E-011
  -5.0699999999999995E-002     6.8811366327192758E-011
  -4.9599999999999991E-002     7.5453851500206781E-011
  -4.8499999999999988E-002     4.9080958047786893E-011
  -4.7399999999999998E-002    -6.5035741549090975E-012
  -4.6299999999999994E-002    -7.7458955916043237E-011
  -4.5199999999999990E-002    -1.5275553044702406E-010
  -4.4099999999999986E-002    -2.2125655474436456E-010
  -4.2999999999999997E-002    -2.5614360632530975E-010
  -4.1899999999999993E-002    -2.1505953962108748E-010
  -4.0799999999999989E-002    -6.9064892693759816E-011
  -3.9699999999999985E-002     1.6694910731640533E-010
  -3.8599999999999995E-002     4.3755224443664531E-010
  -3.7499999999999992E-002     6.7744637677336073E-010
  -3.6399999999999988E-002     8.2886342234189669E-010
  -3.5299999999999984E-002     8.2946899349067849E-010
  -3.4199999999999994E-002     6.0446841976258270E-010
  -3.3099999999999991E-002     9.7095630147148171E-011
  -3.1999999999999987E-002    -6.8152089527373505E-010
  -3.0899999999999997E-002    -1.6310359729487800E-009
  -2.9799999999999993E-002    -2.5782616042135942E-009
  -2.8699999999999989E-002    -3.2951072981290963E-009
  -2.7599999999999986E-002    -3.5026743727684106E-009
  -2.6499999999999996E-002    -2.8971731680371704E-009
  -2.5399999999999992E-002    -1.2209874222790518E-009
  -2.4299999999999988E-002     1.6695288485024662E-009
  -2.3199999999999985E-002     5.8054987484013054E-009
  -2.2099999999999995E-002     1.1159298374252558E-008
  -2.0999999999999991E-002     1.7666987872644313E-008
  -1.9899999999999987E-002     2.5200606046382745E-008
  -1.8799999999999983E-002     3.3585788372647585E-008
  -1.7699999999999994E-002     4.2738829364452613E-008
  -1.6599999999999990E-002     5.2839965292150737E-008
  -1.5499999999999986E-002     6.4385190512439294E-008
  -1.4399999999999996E-002     7.8097244227137708E-008
  -1.3299999999999992E-002     9.4849283982512134E-008
  -1.2199999999999989E-002     1.1570808311489600E-007
  -1.1099999999999985E-002     1.4199855513652437E-007
  -9.9999999999999950E-003     1.7523110784622986E-007
  -8.8999999999999913E-003     2.1693162466362992E-007
  -7.7999999999999875E-003     2.6858697310672142E-007
  -6.6999999999999837E-003     3.3180492664541816E-007
  -5.5999999999999939E-003     4.0853197447177081E-007
  -4.4999999999999901E-003     5.0113510496885283E-007
  -3.3999999999999864E-003     6.1238222315296298E-007
  -2.2999999999999826E-003     7.4550007411744446E-007
  -1.1999999999999927E-003     9.0435474930927739E-007
  -9.9999999999988987E-005     1.0935959835478570E-006
   1.0000000000000148E-003     1.3186769365347573E-006
   2.1000000000000185E-003     1.5858488495723577E-006
   3.2000000000000084E-003     1.9022555761694093E-006
   4.3000000000000121E-003     2.2760330011806218E-006
   5.4000000000000159E-003     2.7162577680428512E-006
   6.5000000000000058E-003     3.2328573524864623E-006
   7.6000000000000234E-003     3.8367265915439930E-006
   8.7000000000000133E-003     4.5400720409816131E-006
   9.8000000000000032E-003     5.3566204769595060E-006
   1.0900000000000021E-002     6.3014945226314012E-006
   1.2000000000000011E-002     7.3909486673073843E-006
   1.3100000000000001E-002     8.6424206529045478E-006
   1.4200000000000018E-002     1.0074976671603508E-005
   1.5300000000000008E-002     1.1709562386386096E-005
   1.6400000000000026E-002     1.3568735084845684E-005
   1.7500000000000016E-002     1.5676201655878685E-005
   1.8600000000000005E-002     1.8056522094411775E-005
   1.9700000000000023E-002     2.0735056750709191E-005
   2.0800000000000013E-002     2.3737798983347602E-005
   2.1900000000000003E-002     2.7090887670055963E-005
   2.3000000000000020E-002     3.0820167012279853E-005
   2.4100000000000010E-002     3.4950666304212064E-005
   2.5200000000000000E-002     3.9506448956672102E-005
   2.6300000000000018E-002     4.4510252337204292E-005
   2.7400000000000008E-002     4.9982463679043576E-005
   2.8500000000000025E-002     5.5940501624718308E-005
   2.9600000000000015E-002     6.2398095906246454E-005
   3.0700000000000005E-002     6.9364505179692060E-005
   3.1800000000000023E-002     7.6842930866405368E-005
   3.2900000000000013E-002     8.4829727711621672E-005
   3.4000000000000002E-002     9.3312832177616656E-005
   3.5100000000000020E-002     1.0227134771412238E-004
   3.6200000000000010E-002     1.1167450429638848E-004
   3.7300000000000028E-002     1.2148056703153998E-004
   3.8400000000000017E-002     1.3163661060389131E-004
   3.9500000000000007E-002     1.4207676576916128E-004
   4.0600000000000025E-002     1.5272173914127052E-004
   4.1700000000000015E-002     1.6347909695468843E-004
   4.2800000000000005E-002     1.7424247926101089E-004
   4.3900000000000022E-002     1.8489123613107949E-004
   4.5000000000000012E-002     1.9529002020135522E-004
   4.6100000000000002E-002     2.0528875757008791E-004
   4.7200000000000020E-002     2.1472378284670413E-004
   4.8300000000000010E-002     2.2342021111398935E-004
   4.9400000000000027E-002     2.3119215620681643E-004
   5.0500000000000017E-002     2.3784488439559937E-004
   5.1600000000000007E-002     2.4317468341905624E-004
   5.2700000000000025E-002     2.4697589105926454E-004
   5.3800000000000014E-002     2.4904153542593122E-004
   5.4900000000000004E-002     2.4916505208238959E-004
   5.6000000000000022E-002     2.4714559549465775E-004
   5.7100000000000012E-002     2.4279035278595984E-004
   5.8200000000000002E-002     2.3592069919686764E-004
   5.9300000000000019E-002     2.2637640358880162E-004
   6.0400000000000009E-002     2.1401903359219432E-004
   6.1500000000000027E-002     1.9873278506565839E-004
   6.2600000000000017E-002     1.8043167074210942E-004
   6.3700000000000007E-002     1.5906470071058720E-004
   6.4800000000000024E-002     1.3462024799082428E-004
   6.5900000000000014E-002     1.0712703078752384E-004
   6.7000000000000004E-002     7.6657626777887344E-005
   6.8100000000000022E-002     4.3327301682438701E-005
   6.9200000000000012E-002     7.2996672315639444E-006
   7.0300000000000029E-002    -3.1214745831675828E-005
   7.1400000000000019E-002    -7.1953756560105830E-005
   7.2500000000000009E-002    -1.1460594396339729E-004
   7.3600000000000027E-002    -1.5881835133768618E-004
   7.4700000000000016E-002    -2.0419927022885531E-004
   7.5800000000000006E-002    -2.5031762197613716E-004
   7.6900000000000024E-002    -2.9670904041267931E-004
   7.8000000000000014E-002    -3.4287807648070157E-004
   7.9100000000000004E-002    -3.8830732228234410E-004
   8.0200000000000021E-002    -4.3246324639767408E-004
   8.1300000000000011E-002    -4.7481016372330487E-004
   8.2400000000000029E-002    -5.1481364062055945E-004
   8.3500000000000019E-002    -5.5195414461195469E-004
   8.4600000000000009E-002    -5.8572529815137386E-004
   8.5700000000000026E-002    -6.1564263887703419E-004
   8.6800000000000016E-002    -6.4125697826966643E-004
   8.7900000000000006E-002    -6.6216906998306513E-004
   8.9000000000000024E-002    -6.7803717684000731E-004
   9.0100000000000013E-002    -6.8857794394716620E-004
   9.1200000000000003E-002    -6.9356453604996204E-004
   9.2300000000000021E-002    -6.9283205084502697E-004
   9.3400000000000011E-002    -6.8629143061116338E-004
   9.4500000000000028E-002    -6.7393446806818247E-004
   9.5600000000000018E-002    -6.5583409741520882E-004
   9.6700000000000008E-002    -6.3213700195774436E-004
   9.7800000000000026E-002    -6.0306204250082374E-004
   9.8900000000000016E-002    -5.6889426195994020E-004
  0.10000000000000001         -5.2998622413724661E-004
  0.10110000000000002         -4.8675597645342350E-004
  0.10220000000000001         -4.3968122918158770E-004
  0.10330000000000003         -3.8929175934754312E-004
  0.10440000000000002         -3.3615497522987425E-004
  0.10550000000000001         -2.8085737721994519E-004
  0.10660000000000003         -2.2400327725335956E-004
  0.10770000000000002         -1.6622229304630309E-004
  0.10880000000000001         -1.0815030691446736E-004
  0.10990000000000003         -5.0415928853908554E-005
  0.11100000000000002          6.3796978793106973E-006
  0.11210000000000001          6.1666658439207822E-005
  0.11320000000000002          1.1490480392239988E-004
  0.11430000000000001          1.6559250070713460E-004
  0.11540000000000003          2.1326997375581414E-004
  0.11650000000000002          2.5752844521775842E-004
  0.11760000000000001          2.9802351491525769E-004
  0.11870000000000003          3.3447713940404356E-004
  0.11980000000000002          3.6668041138909757E-004
  0.12090000000000001          3.9447427843697369E-004
  0.12200000000000003          4.1776202851906419E-004
  0.12310000000000001          4.3650693260133266E-004
  0.12420000000000003          4.5073308865539730E-004
  0.12530000000000002          4.6052868128754199E-004
  0.12640000000000001          4.6603876398876309E-004
  0.12750000000000003          4.6745192958042026E-004
  0.12860000000000002          4.6498520532622933E-004
  0.12970000000000001          4.5888882596045732E-004
  0.13080000000000003          4.4944870751351118E-004
  0.13190000000000002          4.3698810623027384E-004
  0.13300000000000001          4.2184875928796828E-004
  0.13410000000000000          4.0437586721964180E-004
  0.13520000000000004          3.8491017767228186E-004
  0.13630000000000003          3.6379293305799365E-004
  0.13740000000000002          3.4136569593101740E-004
  0.13850000000000001          3.1796479015611112E-004
  0.13960000000000000          2.9391251155175269E-004
  0.14070000000000005          2.6951113250106573E-004
  0.14180000000000004          2.4504167959094048E-004
  0.14290000000000003          2.2076087770983577E-004
  0.14400000000000002          1.9689736654981971E-004
  0.14510000000000001          1.7365309759043157E-004
  0.14620000000000000          1.5120944590307772E-004
  0.14730000000000004          1.2972667173016816E-004
  0.14840000000000003          1.0933561134152114E-004
  0.14950000000000002          9.0131929027847946E-005
  0.15060000000000001          7.2182148869615048E-005
  0.15170000000000000          5.5535689170937985E-005
  0.15280000000000005          4.0229908336186782E-005
  0.15390000000000004          2.6280607926310040E-005
  0.15500000000000003          1.3677136848855298E-005
  0.15610000000000002          2.3909474293759558E-006
  0.15720000000000001         -7.6125397754367441E-006
  0.15830000000000000         -1.6375835912185721E-005
  0.15940000000000004         -2.3958404199220240E-005
  0.16050000000000003         -3.0435994631261565E-005
  0.16160000000000002         -3.5883902455680072E-005
  0.16270000000000001         -4.0369530324824154E-005
  0.16380000000000000         -4.3960382754448801E-005
  0.16490000000000005         -4.6736833610339090E-005
  0.16600000000000004         -4.8790316213853657E-005
  0.16710000000000003         -5.0204445869894698E-005
  0.16820000000000002         -5.1047296437900513E-005
  0.16930000000000001         -5.1382408855715767E-005
  0.17040000000000000         -5.1280712796142325E-005
  0.17150000000000004         -5.0813534471672028E-005
  0.17260000000000003         -5.0039903726428747E-005
  0.17370000000000002         -4.9007881898432970E-005
  0.17480000000000001         -4.7767487558303401E-005
  0.17590000000000000         -4.6374600060516968E-005
  0.17700000000000005         -4.4874184823129326E-005
  0.17810000000000004         -4.3290845496812835E-005
  0.17920000000000003         -4.1642306314315647E-005
  0.18030000000000002         -3.9959464629646391E-005
  0.18140000000000001         -3.8283717003650963E-005
  0.18250000000000000         -3.6641660699388012E-005
  0.18360000000000004         -3.5036006011068821E-005
  0.18470000000000003         -3.3464177249697968E-005
  0.18580000000000002         -3.1938488973537460E-005
  0.18690000000000001         -3.0479912311420776E-005
  0.18800000000000000         -2.9096558137098327E-005
  0.18910000000000005         -2.7781008611782454E-005
  0.19020000000000004         -2.6528598027653061E-005
  0.19130000000000003         -2.5347191694891080E-005
  0.19240000000000002         -2.4242988729383796E-005
  0.19350000000000001         -2.3205364414025098E-005
  0.19460000000000005         -2.2217071091290563E-005
  0.19570000000000004         -2.1276257029967383E-005
  0.19680000000000003         -2.0394731109263375E-005
  0.19790000000000002         -1.9573961253627203E-005
  0.19900000000000001         -1.8794529751176015E-005
  0.20010000000000000         -1.8035756511380896E-005
  0.20120000000000005         -1.7298254533670843E-005
  0.20230000000000004         -1.6594198314123787E-005
  0.20340000000000003         -1.5920810255920514E-005
  0.20450000000000002         -1.5257111044775229E-005
  0.20560000000000000         -1.4588498743250966E-005
  0.20670000000000005         -1.3922097423346713E-005
  0.20780000000000004         -1.3269229384604841E-005
  0.20890000000000003         -1.2622367648873478E-005
