 -0.12000000000000000          0.0000000000000000
 -0.11889999999999999          0.0000000000000000
 -0.11780000000000000          0.0000000000000000
 -0.11670000000000000          0.0000000000000000
 -0.11559999999999999          0.0000000000000000
 -0.11449999999999999          0.0000000000000000
 -0.11340000000000000          0.0000000000000000
 -0.11230000000000000          0.0000000000000000
 -0.11119999999999999         -1.3774263978462447E-023
 -0.11009999999999999          7.4785951257335142E-023
 -0.10900000000000000          1.3171751898349450E-022
 -0.10790000000000000         -1.1165820485117612E-021
 -0.10679999999999999         -1.2200411183661734E-021
 -0.10569999999999999          9.2650860591123729E-021
 -0.10460000000000000          1.2694163288450949E-020
 -0.10349999999999999         -5.1418936281231348E-020
 -0.10239999999999999         -1.0754822024890323E-019
 -0.10130000000000000          1.7736489412423275E-019
 -0.10020000000000000          6.5581427713466463E-019
  -9.9099999999999994E-002    -1.4722081701566653E-019
  -9.7999999999999990E-002    -2.7449304135615336E-018
  -9.6899999999999986E-002    -2.2943562417123145E-018
  -9.5799999999999996E-002     6.9433118755588741E-018
  -9.4699999999999993E-002     1.4974194203057569E-017
  -9.3599999999999989E-002    -3.7990995191616158E-018
  -9.2499999999999999E-002    -4.5984707331109170E-017
  -9.1399999999999995E-002    -4.3875555587776559E-017
  -9.0299999999999991E-002     5.8752150750358996E-017
  -8.9200000000000002E-002     1.6859331870748773E-016
  -8.8099999999999984E-002     8.5543048483293868E-017
  -8.6999999999999994E-002    -2.1042171146703640E-016
  -8.5899999999999990E-002    -4.2257470533870140E-016
  -8.4799999999999986E-002    -2.6360917339128987E-016
  -8.3699999999999997E-002     2.2213661387892681E-016
  -8.2599999999999993E-002     8.9559271084567894E-016
  -8.1499999999999989E-002     1.6091108192395993E-015
  -8.0399999999999999E-002     1.2609137858317224E-015
  -7.9299999999999995E-002    -2.2427249215872325E-015
  -7.8199999999999992E-002    -8.0433706570182117E-015
  -7.7100000000000002E-002    -8.0304085118263792E-015
  -7.5999999999999984E-002     6.8649784207980291E-015
  -7.4899999999999994E-002     2.8861370352005825E-014
  -7.3799999999999991E-002     2.7703911688044085E-014
  -7.2699999999999987E-002    -1.8341363448642553E-014
  -7.1599999999999997E-002    -7.7845282303590224E-014
  -7.0499999999999993E-002    -7.4424326293801024E-014
  -6.9399999999999989E-002     2.9495994541143059E-014
  -6.8300000000000000E-002     1.5958507302085700E-013
  -6.7199999999999996E-002     1.7743590613721744E-013
  -6.6099999999999992E-002     2.2101063180631798E-014
  -6.5000000000000002E-002    -2.1710515601004038E-013
  -6.3899999999999985E-002    -3.7860941595399544E-013
  -6.2799999999999995E-002    -3.3554056885418126E-013
  -6.1699999999999991E-002    -1.0469249301032005E-014
  -6.0599999999999994E-002     5.8984251944532717E-013
  -5.9499999999999990E-002     1.1826581380880441E-012
  -5.8399999999999994E-002     1.1202781324132216E-012
  -5.7299999999999990E-002    -1.2979786516431613E-013
  -5.6199999999999986E-002    -2.1265289876226667E-012
  -5.5099999999999996E-002    -3.3092808007784136E-012
  -5.3999999999999992E-002    -2.2620939409828678E-012
  -5.2899999999999989E-002     7.0432098738318349E-013
  -5.1799999999999985E-002     3.6538901244942412E-012
  -5.0699999999999995E-002     4.9972526117159077E-012
  -4.9599999999999991E-002     4.8859328041772621E-012
  -4.8499999999999988E-002     4.0149415909962460E-012
  -4.7399999999999998E-002     1.5007733554159297E-012
  -4.6299999999999994E-002    -4.5595025151279334E-012
  -4.5199999999999990E-002    -1.3610479930592501E-011
  -4.4099999999999986E-002    -2.0701542910450677E-011
  -4.2999999999999997E-002    -1.9555751115674092E-011
  -4.1899999999999993E-002    -7.7931810310571947E-012
  -4.0799999999999989E-002     1.1559456516985200E-011
  -3.9699999999999985E-002     3.3111305364208476E-011
  -3.8599999999999995E-002     5.1546978491190387E-011
  -3.7499999999999992E-002     6.0495108922253849E-011
  -3.6399999999999988E-002     5.1945798357211359E-011
  -3.5299999999999984E-002     2.0565099970171197E-011
  -3.4199999999999994E-002    -3.0862250255392354E-011
  -3.3099999999999991E-002    -9.2067263535167143E-011
  -3.1999999999999987E-002    -1.5063472691423385E-010
  -3.0899999999999997E-002    -1.9280714524949616E-010
  -2.9799999999999993E-002    -1.9814315466160082E-010
  -2.8699999999999989E-002    -1.4018552985106680E-010
  -2.7599999999999986E-002    -1.7819506720889722E-012
  -2.6499999999999996E-002     2.0688872837126837E-010
  -2.5399999999999992E-002     4.4721437664207997E-010
  -2.4299999999999988E-002     6.6659777697708478E-010
  -2.3199999999999985E-002     8.0620382592044848E-010
  -2.2099999999999995E-002     7.9368139838109641E-010
  -2.0999999999999991E-002     5.4364868162792845E-010
  -1.9899999999999987E-002    -1.4507456000401042E-011
  -1.8799999999999983E-002    -9.0459878476778499E-010
  -1.7699999999999994E-002    -2.1100174940613670E-009
  -1.6599999999999990E-002    -3.6174745421391208E-009
  -1.5499999999999986E-002    -5.4444662112018705E-009
  -1.4399999999999996E-002    -7.6170785234808136E-009
  -1.3299999999999992E-002    -1.0139813433340805E-008
  -1.2199999999999989E-002    -1.3019116451573609E-008
  -1.1099999999999985E-002    -1.6327964758033886E-008
  -9.9999999999999950E-003    -2.0232144848364442E-008
  -8.8999999999999913E-003    -2.4944235121893144E-008
  -7.7999999999999875E-003    -3.0673430018168801E-008
  -6.6999999999999837E-003    -3.7646632478072206E-008
  -5.5999999999999939E-003    -4.6176516832474590E-008
  -4.4999999999999901E-003    -5.6688442384711379E-008
  -3.3999999999999864E-003    -6.9684645609413565E-008
  -2.2999999999999826E-003    -8.5714837894101947E-008
  -1.1999999999999927E-003    -1.0539488215499659E-007
  -9.9999999999988987E-005    -1.2942238925006677E-007
   1.0000000000000148E-003    -1.5854723756092426E-007
   2.1000000000000185E-003    -1.9357339908765425E-007
   3.2000000000000084E-003    -2.3547244154542568E-007
   4.3000000000000121E-003    -2.8551988862091093E-007
   5.4000000000000159E-003    -3.4527309367149428E-007
   6.5000000000000058E-003    -4.1640547010501905E-007
   7.6000000000000234E-003    -5.0066813628291129E-007
   8.7000000000000133E-003    -6.0008488844687236E-007
   9.8000000000000032E-003    -7.1719983907314599E-007
   1.0900000000000021E-002    -8.5504598246188834E-007
   1.2000000000000011E-002    -1.0168473636440467E-006
   1.3100000000000001E-002    -1.2058551419613650E-006
   1.4200000000000018E-002    -1.4255964515541564E-006
   1.5300000000000008E-002    -1.6802614482003264E-006
   1.6400000000000026E-002    -1.9747217265830841E-006
   1.7500000000000016E-002    -2.3142695226852084E-006
   1.8600000000000005E-002    -2.7043495265388628E-006
   1.9700000000000023E-002    -3.1506967843597522E-006
   2.0800000000000013E-002    -3.6595474739442579E-006
   2.1900000000000003E-002    -4.2377109821245540E-006
   2.3000000000000020E-002    -4.8925162445812020E-006
   2.4100000000000010E-002    -5.6316775953746401E-006
   2.5200000000000000E-002    -6.4631317400198895E-006
   2.6300000000000018E-002    -7.3947790042439010E-006
   2.7400000000000008E-002    -8.4342109403223731E-006
   2.8500000000000025E-002    -9.5888071882654913E-006
   2.9600000000000015E-002    -1.0866308912227396E-005
   3.0700000000000005E-002    -1.2274776054255199E-005
   3.1800000000000023E-002    -1.3821708307659719E-005
   3.2900000000000013E-002    -1.5512945537921041E-005
   3.4000000000000002E-002    -1.7352860595565289E-005
   3.5100000000000020E-002    -1.9344963220646605E-005
   3.6200000000000010E-002    -2.1492640371434391E-005
   3.7300000000000028E-002    -2.3797938411007635E-005
   3.8400000000000017E-002    -2.6259760488756001E-005
   3.9500000000000007E-002    -2.8872787879663520E-005
   4.0600000000000025E-002    -3.1628969736630097E-005
   4.1700000000000015E-002    -3.4518870961619541E-005
   4.2800000000000005E-002    -3.7530433473875746E-005
   4.3900000000000022E-002    -4.0648199501447380E-005
   4.5000000000000012E-002    -4.3852163798874244E-005
   4.6100000000000002E-002    -4.7117428039200604E-005
   4.7200000000000020E-002    -5.0414510042173788E-005
   4.8300000000000010E-002    -5.3709376516053453E-005
   4.9400000000000027E-002    -5.6965334806591272E-005
   5.0500000000000017E-002    -6.0141534049762413E-005
   5.1600000000000007E-002    -6.3193503592628986E-005
   5.2700000000000025E-002    -6.6070111643057317E-005
   5.3800000000000014E-002    -6.8714958615601063E-005
   5.4900000000000004E-002    -7.1069407567847520E-005
   5.6000000000000022E-002    -7.3075563705060631E-005
   5.7100000000000012E-002    -7.4673880590125918E-005
   5.8200000000000002E-002    -7.5802374340128154E-005
   5.9300000000000019E-002    -7.6394855568651110E-005
   6.0400000000000009E-002    -7.6386240834835917E-005
   6.1500000000000027E-002    -7.5712829129770398E-005
   6.2600000000000017E-002    -7.4318530096206814E-005
   6.3700000000000007E-002    -7.2151597123593092E-005
   6.4800000000000024E-002    -6.9164590968284756E-005
   6.5900000000000014E-002    -6.5312306105624884E-005
   6.7000000000000004E-002    -6.0557063989108428E-005
   6.8100000000000022E-002    -5.4870910389581695E-005
   6.9200000000000012E-002    -4.8240413889288902E-005
   7.0300000000000029E-002    -4.0667247958481312E-005
   7.1400000000000019E-002    -3.2162159186555073E-005
   7.2500000000000009E-002    -2.2744685338693671E-005
   7.3600000000000027E-002    -1.2447449989849702E-005
   7.4700000000000016E-002    -1.3197579846746521E-006
   7.5800000000000006E-002     1.0571105121925939E-005
   7.6900000000000024E-002     2.3139988115872256E-005
   7.8000000000000014E-002     3.6289315175963566E-005
   7.9100000000000004E-002     4.9909514928003773E-005
   8.0200000000000021E-002     6.3883642724249512E-005
   8.1300000000000011E-002     7.8083387052174658E-005
   8.2400000000000029E-002     9.2366528406273574E-005
   8.3500000000000019E-002     1.0657394886948168E-004
   8.4600000000000009E-002     1.2054014950990677E-004
   8.5700000000000026E-002     1.3410192332230508E-004
   8.6800000000000016E-002     1.4709922834299505E-004
   8.7900000000000006E-002     1.5937261923681945E-004
   8.9000000000000024E-002     1.7076132644433528E-004
   9.0100000000000013E-002     1.8110524979420006E-004
   9.1200000000000003E-002     1.9025016808882356E-004
   9.2300000000000021E-002     1.9805594638455659E-004
   9.3400000000000011E-002     2.0440304069779813E-004
   9.4500000000000028E-002     2.0919370581395924E-004
   9.5600000000000018E-002     2.1234505402389914E-004
   9.6700000000000008E-002     2.1378317615017295E-004
   9.7800000000000026E-002     2.1344961714930832E-004
   9.8900000000000016E-002     2.1131341054569930E-004
  0.10000000000000001          2.0737556042149663E-004
  0.10110000000000002          2.0166870672255754E-004
  0.10220000000000001          1.9424516358412802E-004
  0.10330000000000003          1.8516895943321288E-004
  0.10440000000000002          1.7451994062867016E-004
  0.10550000000000001          1.6240279364865273E-004
  0.10660000000000003          1.4895130880177021E-004
  0.10770000000000002          1.3432248670142144E-004
  0.10880000000000001          1.1868457659147680E-004
  0.10990000000000003          1.0221193224424496E-004
  0.11100000000000002          8.5080246208235621E-005
  0.11210000000000001          6.7476583353709430E-005
  0.11320000000000002          4.9592457799008116E-005
  0.11430000000000001          3.1625542760593817E-005
  0.11540000000000003          1.3774529179499950E-005
  0.11650000000000002         -3.7651175261999015E-006
  0.11760000000000001         -2.0812010916415602E-005
  0.11870000000000003         -3.7213183532003313E-005
  0.11980000000000002         -5.2831102948402986E-005
  0.12090000000000001         -6.7515757109504193E-005
  0.12200000000000003         -8.1120211689267308E-005
  0.12310000000000001         -9.3534756160806865E-005
  0.12420000000000003         -1.0468723485246301E-004
  0.12530000000000002         -1.1452625039964914E-004
  0.12640000000000001         -1.2300167873036116E-004
  0.12750000000000003         -1.3007408415433019E-004
  0.12860000000000002         -1.3572796888183802E-004
  0.12970000000000001         -1.3997963105794042E-004
  0.13080000000000003         -1.4285984798334539E-004
  0.13190000000000002         -1.4440805534832180E-004
  0.13300000000000001         -1.4468427980318666E-004
  0.13410000000000000         -1.4376477338373661E-004
  0.13520000000000004         -1.4173597446642816E-004
  0.13630000000000003         -1.3867896632291377E-004
  0.13740000000000002         -1.3467812095768750E-004
  0.13850000000000001         -1.2983995839022100E-004
  0.13960000000000000         -1.2428739864844829E-004
  0.14070000000000005         -1.1813767923740670E-004
  0.14180000000000004         -1.1148720659548417E-004
  0.14290000000000003         -1.0442511120345443E-004
  0.14400000000000002         -9.7053329227492213E-005
  0.14510000000000001         -8.9484958152752370E-005
  0.14620000000000000         -8.1821024650707841E-005
  0.14730000000000004         -7.4138712079729885E-005
  0.14840000000000003         -6.6505250288173556E-005
  0.14950000000000002         -5.8991783589590341E-005
  0.15060000000000001         -5.1668324886122718E-005
  0.15170000000000000         -4.4586278818314895E-005
  0.15280000000000005         -3.7781541323056445E-005
  0.15390000000000004         -3.1290146580431610E-005
  0.15500000000000003         -2.5151897716568783E-005
  0.15610000000000002         -1.9393868569750339E-005
  0.15720000000000001         -1.4017844478075858E-005
  0.15830000000000000         -9.0149687821394764E-006
  0.15940000000000004         -4.3876848394575063E-006
  0.16050000000000003         -1.4845440432509349E-007
  0.16160000000000002          3.7052930110803572E-006
  0.16270000000000001          7.2005764195637312E-006
  0.16380000000000000          1.0368313269282226E-005
  0.16490000000000005          1.3225181646703277E-005
  0.16600000000000004          1.5779631212353706E-005
  0.16710000000000003          1.8051166989607736E-005
  0.16820000000000002          2.0072928236913867E-005
  0.16930000000000001          2.1873745936318301E-005
  0.17040000000000000          2.3468504878110252E-005
  0.17150000000000004          2.4872631911421195E-005
  0.17260000000000003          2.6114650609088130E-005
  0.17370000000000002          2.7224858058616519E-005
  0.17480000000000001          2.8215472411829978E-005
  0.17590000000000000          2.9083346817060374E-005
  0.17700000000000005          2.9834514862159267E-005
  0.17810000000000004          3.0493771191686392E-005
  0.17920000000000003          3.1083349313121289E-005
  0.18030000000000002          3.1600604415871203E-005
  0.18140000000000001          3.2026746339397505E-005
  0.18250000000000000          3.2353582355426624E-005
  0.18360000000000004          3.2589774491498247E-005
  0.18470000000000003          3.2739833841333166E-005
  0.18580000000000002          3.2788775570224971E-005
  0.18690000000000001          3.2714451663196087E-005
  0.18800000000000000          3.2504758564755321E-005
  0.18910000000000005          3.2155974622583017E-005
  0.19020000000000004          3.1654271879233420E-005
  0.19130000000000003          3.0973526008892804E-005
  0.19240000000000002          3.0092654924374074E-005
  0.19350000000000001          2.9007378543610685E-005
  0.19460000000000005          2.7717138436855748E-005
  0.19570000000000004          2.6202953449683264E-005
  0.19680000000000003          2.4437351385131478E-005
  0.19790000000000002          2.2410360543290153E-005
  0.19900000000000001          2.0132059944444336E-005
  0.20010000000000000          1.7610333088668995E-005
  0.20120000000000005          1.4837070921203122E-005
  0.20230000000000004          1.1801283108070493E-005
  0.20340000000000003          8.5139690781943500E-006
  0.20450000000000002          5.0032485887641087E-006
  0.20560000000000000          1.2913299087813357E-006
  0.20670000000000005         -2.6114469164895127E-006
  0.20780000000000004         -6.6886564127344172E-006
  0.20890000000000003         -1.0900033885263838E-005
