 -0.12000000000000000          0.0000000000000000
 -0.11889999999999999          0.0000000000000000
 -0.11780000000000000          0.0000000000000000
 -0.11670000000000000          0.0000000000000000
 -0.11559999999999999          0.0000000000000000
 -0.11449999999999999          0.0000000000000000
 -0.11340000000000000         -1.0370384665327475E-019
 -0.11230000000000000         -4.6409876227256865E-020
 -0.11119999999999999          8.2720842650112477E-019
 -0.11009999999999999          8.0862028226977456E-019
 -0.10900000000000000         -2.4883402283185032E-018
 -0.10790000000000000         -2.5798934056964849E-018
 -0.10679999999999999          4.4458095879805804E-018
 -0.10569999999999999         -8.2915699519060062E-018
 -0.10460000000000000         -4.1711803306570549E-017
 -0.10349999999999999          3.4793552522030194E-017
 -0.10239999999999999          2.8669153588801880E-016
 -0.10130000000000000          2.5638893219999620E-016
 -0.10020000000000000         -6.8406153180152721E-016
  -9.9099999999999994E-002    -1.7783005682559623E-015
  -9.7999999999999990E-002    -6.4952386925635152E-016
  -9.6899999999999986E-002     3.2767259923878163E-015
  -9.5799999999999996E-002     5.7871662648666111E-015
  -9.4699999999999993E-002     2.2170111188909601E-015
  -9.3599999999999989E-002    -5.0691186477872484E-015
  -9.2499999999999999E-002    -9.9055200755140613E-015
  -9.1399999999999995E-002    -1.3656571601111840E-014
  -9.0299999999999991E-002    -1.9275620460673312E-014
  -8.9200000000000002E-002    -7.1703193987231011E-015
  -8.8099999999999984E-002     5.4147827985729508E-014
  -8.6999999999999994E-002     1.3642907604419913E-013
  -8.5899999999999990E-002     1.1752887075014429E-013
  -8.4799999999999986E-002    -9.3426372053170142E-014
  -8.3699999999999997E-002    -3.7053083583142576E-013
  -8.2599999999999993E-002    -4.1808898465674205E-013
  -8.1499999999999989E-002    -1.0171621574531220E-013
  -8.0399999999999999E-002     3.5628268456149026E-013
  -7.9299999999999995E-002     6.6289031555588629E-013
  -7.8199999999999992E-002     8.2279587873893001E-013
  -7.7100000000000002E-002     9.0005504134807457E-013
  -7.5999999999999984E-002     4.4932571660778742E-013
  -7.4899999999999994E-002    -1.1745863613341068E-012
  -7.3799999999999991E-002    -3.4557834024950829E-012
  -7.2699999999999987E-002    -4.2359778879008658E-012
  -7.1599999999999997E-002    -1.7172206582052874E-012
  -7.0499999999999993E-002     2.9525650587641783E-012
  -6.9399999999999989E-002     6.3249388365660408E-012
  -6.8300000000000000E-002     6.5535099048885659E-012
  -6.7199999999999996E-002     5.3395517174426033E-012
  -6.6099999999999992E-002     4.4603648031993348E-012
  -6.5000000000000002E-002     1.5831603606200617E-012
  -6.3899999999999985E-002    -7.2067816124510298E-012
  -6.2799999999999995E-002    -1.9912894250184721E-011
  -6.1699999999999991E-002    -2.7178292602569876E-011
  -6.0599999999999994E-002    -2.1546889272805458E-011
  -5.9499999999999990E-002    -6.1066100093265518E-012
  -5.8399999999999994E-002     1.0584709324301667E-011
  -5.7299999999999990E-002     2.7202143315641081E-011
  -5.6199999999999986E-002     5.0021015107759581E-011
  -5.5099999999999996E-002     7.6653031144680028E-011
  -5.3999999999999992E-002     8.5816131978333487E-011
  -5.2899999999999989E-002     5.3101415625755877E-011
  -5.1799999999999985E-002    -2.2090562018517446E-011
  -5.0699999999999995E-002    -1.1234462665710154E-010
  -4.9599999999999991E-002    -1.8649702615558539E-010
  -4.8499999999999988E-002    -2.2949642186631536E-010
  -4.7399999999999998E-002    -2.3298971085772280E-010
  -4.6299999999999994E-002    -1.7724323397860786E-010
  -4.5199999999999990E-002    -3.9997262446522797E-011
  -4.4099999999999986E-002     1.7328671830796338E-010
  -4.2999999999999997E-002     4.1959857810525136E-010
  -4.1899999999999993E-002     6.4424421353237449E-010
  -4.0799999999999989E-002     8.0668860480415105E-010
  -3.9699999999999985E-002     8.7561818906678468E-010
  -3.8599999999999995E-002     8.1776585503234855E-010
  -3.7499999999999992E-002     6.2022093016977919E-010
  -3.6399999999999988E-002     3.2891575574289789E-010
  -3.5299999999999984E-002     4.5457668879089752E-011
  -3.4199999999999994E-002    -1.2486542355638619E-010
  -3.3099999999999991E-002    -1.0975938907753502E-010
  -3.1999999999999987E-002     1.4636107603660520E-010
  -3.0899999999999997E-002     6.9390398982349666E-010
  -2.9799999999999993E-002     1.5184227208919765E-009
  -2.8699999999999989E-002     2.4584221325341105E-009
  -2.7599999999999986E-002     3.2189673149218834E-009
  -2.6499999999999996E-002     3.4917926328148496E-009
  -2.5399999999999992E-002     3.0425157948599235E-009
  -2.4299999999999988E-002     1.6652181855647541E-009
  -2.3199999999999985E-002    -8.9581508877500937E-010
  -2.2099999999999995E-002    -4.8898289861654121E-009
  -2.0999999999999991E-002    -1.0389092253149101E-008
  -1.9899999999999987E-002    -1.7221781334342268E-008
  -1.8799999999999983E-002    -2.5130828973374264E-008
  -1.7699999999999994E-002    -3.4010270155704347E-008
  -1.6599999999999990E-002    -4.3996237764076795E-008
  -1.5499999999999986E-002    -5.5407831212050951E-008
  -1.4399999999999996E-002    -6.8721305979124736E-008
  -1.3299999999999992E-002    -8.4655980003844888E-008
  -1.2199999999999989E-002    -1.0424349028426150E-007
  -1.1099999999999985E-002    -1.2877208632744441E-007
  -9.9999999999999950E-003    -1.5969109767866030E-007
  -8.8999999999999913E-003    -1.9860873123889178E-007
  -7.7999999999999875E-003    -2.4732537440286251E-007
  -6.6999999999999837E-003    -3.0777451343055873E-007
  -5.5999999999999939E-003    -3.8194113471945457E-007
  -4.4999999999999901E-003    -4.7200049380080600E-007
  -3.3999999999999864E-003    -5.8066717656402034E-007
  -2.2999999999999826E-003    -7.1144319235827425E-007
  -1.1999999999999927E-003    -8.6852077174626174E-007
  -9.9999999999988987E-005    -1.0565520369709702E-006
   1.0000000000000148E-003    -1.2807632856493001E-006
   2.1000000000000185E-003    -1.5473484609174193E-006
   3.2000000000000084E-003    -1.8637206267158035E-006
   4.3000000000000121E-003    -2.2382894258043962E-006
   5.4000000000000159E-003    -2.6801376407092903E-006
   6.5000000000000058E-003    -3.1991335163183976E-006
   7.6000000000000234E-003    -3.8063865304138744E-006
   8.7000000000000133E-003    -4.5145029616833199E-006
   9.8000000000000032E-003    -5.3374437811726239E-006
   1.0900000000000021E-002    -6.2903159232519101E-006
   1.2000000000000011E-002    -7.3894107117666863E-006
   1.3100000000000001E-002    -8.6525051301578060E-006
   1.4200000000000018E-002    -1.0098976417793892E-005
   1.5300000000000008E-002    -1.1749677469197195E-005
   1.6400000000000026E-002    -1.3626899090013467E-005
   1.7500000000000016E-002    -1.5754318155813962E-005
   1.8600000000000005E-002    -1.8156713849748485E-005
   1.9700000000000023E-002    -2.0859406504314393E-005
   2.0800000000000013E-002    -2.3887851057224907E-005
   2.1900000000000003E-002    -2.7267618861515075E-005
   2.3000000000000020E-002    -3.1024428608361632E-005
   2.4100000000000010E-002    -3.5183602449251339E-005
   2.5200000000000000E-002    -3.9768863643985242E-005
   2.6300000000000018E-002    -4.4801283365814015E-005
   2.7400000000000008E-002    -5.0299920985708013E-005
   2.8500000000000025E-002    -5.6281369325006381E-005
   2.9600000000000015E-002    -6.2758925196249038E-005
   3.0700000000000005E-002    -6.9740926846861839E-005
   3.1800000000000023E-002    -7.7229764428921044E-005
   3.2900000000000013E-002    -8.5220330220181495E-005
   3.4000000000000002E-002    -9.3700102297589183E-005
   3.5100000000000020E-002    -1.0264717275276780E-004
   3.6200000000000010E-002    -1.1203009489690885E-004
   3.7300000000000028E-002    -1.2180599878774956E-004
   3.8400000000000017E-002    -1.3192142068874091E-004
   3.9500000000000007E-002    -1.4230996021069586E-004
   4.0600000000000025E-002    -1.5289254952222109E-004
   4.1700000000000015E-002    -1.6357607091777027E-004
   4.2800000000000005E-002    -1.7425364057999104E-004
   4.3900000000000022E-002    -1.8480548169463873E-004
   4.5000000000000012E-002    -1.9509755657054484E-004
   4.6100000000000002E-002    -2.0498102821875364E-004
   4.7200000000000020E-002    -2.1429476328194141E-004
   4.8300000000000010E-002    -2.2286652529146522E-004
   4.9400000000000027E-002    -2.3051175230648369E-004
   5.0500000000000017E-002    -2.3703659826423973E-004
   5.1600000000000007E-002    -2.4224178923759609E-004
   5.2700000000000025E-002    -2.4592498084530234E-004
   5.3800000000000014E-002    -2.4788375594653189E-004
   5.4900000000000004E-002    -2.4791448959149420E-004
   5.6000000000000022E-002    -2.4581942125223577E-004
   5.7100000000000012E-002    -2.4140831374097615E-004
   5.8200000000000002E-002    -2.3450398293789476E-004
   5.9300000000000019E-002    -2.2494960285257548E-004
   6.0400000000000009E-002    -2.1260970970615745E-004
   6.1500000000000027E-002    -1.9737376715056598E-004
   6.2600000000000017E-002    -1.7915635544341058E-004
   6.3700000000000007E-002    -1.5790243924129754E-004
   6.4800000000000024E-002    -1.3360082812141627E-004
   6.5900000000000014E-002    -1.0627932351781055E-004
   6.7000000000000004E-002    -7.6010554039385170E-005
   6.8100000000000022E-002    -4.2911513446597382E-005
   6.9200000000000012E-002    -7.1407353061658796E-006
   7.0300000000000029E-002     3.1097839382709935E-005
   7.1400000000000019E-002     7.1551025030203164E-005
   7.2500000000000009E-002     1.1391406587790698E-004
   7.3600000000000027E-002     1.5783458366058767E-004
   7.4700000000000016E-002     2.0292335830163211E-004
   7.5800000000000006E-002     2.4875925737433136E-004
   7.6900000000000024E-002     2.9488909058272839E-004
   7.8000000000000014E-002     3.4082401543855667E-004
   7.9100000000000004E-002     3.8605101872235537E-004
   8.0200000000000021E-002     4.3004035251215100E-004
   8.1300000000000011E-002     4.7226011520251632E-004
   8.2400000000000029E-002     5.1218474982306361E-004
   8.3500000000000019E-002     5.4929614998400211E-004
   8.4600000000000009E-002     5.8308959705755115E-004
   8.5700000000000026E-002     6.1308237491175532E-004
   8.6800000000000016E-002     6.3882675021886826E-004
   8.7900000000000006E-002     6.5992126474156976E-004
   8.9000000000000024E-002     6.7601841874420643E-004
   9.0100000000000013E-002     6.8682973505929112E-004
   9.1200000000000003E-002     6.9212523521855474E-004
   9.2300000000000021E-002     6.9174007512629032E-004
   9.3400000000000011E-002     6.8557390477508307E-004
   9.4500000000000028E-002     6.7360559478402138E-004
   9.5600000000000018E-002     6.5589725272729993E-004
   9.6700000000000008E-002     6.3259364105761051E-004
   9.7800000000000026E-002     6.0391041915863752E-004
   9.8900000000000016E-002     5.7012256002053618E-004
  0.10000000000000001          5.3156638750806451E-004
  0.10110000000000002          4.8864667769521475E-004
  0.10220000000000001          4.4184108264744282E-004
  0.10330000000000003          3.9168135845102370E-004
  0.10440000000000002          3.3873043139465153E-004
  0.10550000000000001          2.8356671100482345E-004
  0.10660000000000003          2.2679024550598115E-004
  0.10770000000000002          1.6902739298529923E-004
  0.10880000000000001          1.1091467604273930E-004
  0.10990000000000003          5.3082050726516172E-005
  0.11100000000000002         -3.8619104998360854E-006
  0.11210000000000001         -5.9333757235435769E-005
  0.11320000000000002         -1.1278838064754382E-004
  0.11430000000000001         -1.6372370009776205E-004
  0.11540000000000003         -2.1168825333006680E-004
  0.11650000000000002         -2.5626845308579504E-004
  0.11760000000000001         -2.9709422960877419E-004
  0.11870000000000003         -3.3386980067007244E-004
  0.11980000000000002         -3.6638099118135870E-004
  0.12090000000000001         -3.9448594907298684E-004
  0.12200000000000003         -4.1808420792222023E-004
  0.12310000000000001         -4.3711860780604184E-004
  0.12420000000000003         -4.5159884029999375E-004
  0.12530000000000002         -4.6161498175933957E-004
  0.12640000000000001         -4.6731397742405534E-004
  0.12750000000000003         -4.6887877397239208E-004
  0.12860000000000002         -4.6652430319227278E-004
  0.12970000000000001         -4.6050723176449537E-004
  0.13080000000000003         -4.5112177031114697E-004
  0.13190000000000002         -4.3868331704288721E-004
  0.13300000000000001         -4.2352118180133402E-004
  0.13410000000000000         -4.0598143823444843E-004
  0.13520000000000004         -3.8642570143565536E-004
  0.13630000000000003         -3.6521023139357567E-004
  0.13740000000000002         -3.4267138107679784E-004
  0.13850000000000001         -3.1913295970298350E-004
  0.13960000000000000         -2.9492235626094043E-004
  0.14070000000000005         -2.7036271058022976E-004
  0.14180000000000004         -2.4574418785050511E-004
  0.14290000000000003         -2.2131192963570356E-004
  0.14400000000000002         -1.9728622282855213E-004
  0.14510000000000001         -1.7388234846293926E-004
  0.14620000000000000         -1.5130206884350628E-004
  0.14730000000000004         -1.2970493116881698E-004
  0.14840000000000003         -1.0920369822997600E-004
  0.14950000000000002         -8.9888715592678636E-005
  0.15060000000000001         -7.1843292971607298E-005
  0.15170000000000000         -5.5131062254076824E-005
  0.15280000000000005         -3.9779399230610579E-005
  0.15390000000000004         -2.5787931008380838E-005
  0.15500000000000003         -1.3149367987352889E-005
  0.15610000000000002         -1.8503202454667189E-006
  0.15720000000000001          8.1454109022160992E-006
  0.15830000000000000          1.6900852642720565E-005
  0.15940000000000004          2.4483526431140490E-005
  0.16050000000000003          3.0948620405979455E-005
  0.16160000000000002          3.6353234463604167E-005
  0.16270000000000001          4.0779341361485422E-005
  0.16380000000000000          4.4326538045424968E-005
  0.16490000000000005          4.7081965021789074E-005
  0.16600000000000004          4.9109359679277986E-005
  0.16710000000000003          5.0472059228923172E-005
  0.16820000000000002          5.1254912250442430E-005
  0.16930000000000001          5.1549228373914957E-005
  0.17040000000000000          5.1423321565380320E-005
  0.17150000000000004          5.0923823437187821E-005
  0.17260000000000003          5.0104099500458688E-005
  0.17370000000000002          4.9035574193112552E-005
  0.17480000000000001          4.7783101763343439E-005
  0.17590000000000000          4.6382541768252850E-005
  0.17700000000000005          4.4854012230644003E-005
  0.17810000000000004          4.3232248572167009E-005
  0.17920000000000003          4.1567465814296156E-005
  0.18030000000000002          3.9896673115435988E-005
  0.18140000000000001          3.8230427890084684E-005
  0.18250000000000000          3.6573699617292732E-005
  0.18360000000000004          3.4947213862324134E-005
  0.18470000000000003          3.3376960345776752E-005
  0.18580000000000002          3.1869705708231777E-005
  0.18690000000000001          3.0416651497944258E-005
  0.18800000000000000          2.9020680813118815E-005
  0.18910000000000005          2.7703255909727886E-005
  0.19020000000000004          2.6475827326066792E-005
  0.19130000000000003          2.5320156055386178E-005
  0.19240000000000002          2.4210396077251062E-005
  0.19350000000000001          2.3147922547650523E-005
  0.19460000000000005          2.2157311832415871E-005
  0.19570000000000004          2.1248129996820353E-005
  0.19680000000000003          2.0396484615048394E-005
  0.19790000000000002          1.9572864403016865E-005
  0.19900000000000001          1.8774589989334345E-005
  0.20010000000000000          1.8016780813923106E-005
  0.20120000000000005          1.7299988030572422E-005
  0.20230000000000004          1.6604464690317400E-005
  0.20340000000000003          1.5916966731310822E-005
  0.20450000000000002          1.5244646419887431E-005
  0.20560000000000000          1.4594066669815220E-005
  0.20670000000000005          1.3949425010650884E-005
  0.20780000000000004          1.3288069567352068E-005
  0.20890000000000003          1.2611013517016545E-005
