 -0.12000000000000000          0.0000000000000000
 -0.11889999999999999          0.0000000000000000
 -0.11780000000000000          0.0000000000000000
 -0.11670000000000000          1.2546758770826116E-011
 -0.11559999999999999          1.3697731317263706E-011
 -0.11449999999999999         -3.8519867850972389E-011
 -0.11340000000000000         -6.0436995685808625E-011
 -0.11230000000000000          8.1728110390422160E-011
 -0.11119999999999999          2.1664800509135773E-010
 -0.11009999999999999         -3.4040520402456309E-011
 -0.10900000000000000         -4.8208020908546700E-010
 -0.10790000000000000         -2.7206739638963029E-010
 -0.10679999999999999          7.1667333179092907E-010
 -0.10569999999999999          1.0246075099473728E-009
 -0.10460000000000000         -4.2161327207246302E-010
 -0.10349999999999999         -1.8818469005310590E-009
 -0.10239999999999999         -6.0493343667644695E-010
 -0.10130000000000000          2.4258637321139531E-009
 -0.10020000000000000          2.5024646799209904E-009
  -9.9099999999999994E-002    -1.8537349433245254E-009
  -9.7999999999999990E-002    -4.8300936583700604E-009
  -9.6899999999999986E-002    -6.5601296617145977E-010
  -9.5799999999999996E-002     6.4044045622324575E-009
  -9.4699999999999993E-002     5.8165876559712615E-009
  -9.3599999999999989E-002    -3.7803609131970006E-009
  -9.2499999999999999E-002    -9.8755217337043177E-009
  -9.1399999999999995E-002    -2.5646735846152069E-009
  -9.0299999999999991E-002     9.5434895541757214E-009
  -8.9200000000000002E-002     9.3253706978657647E-009
  -8.8099999999999984E-002    -4.2171088843190319E-009
  -8.6999999999999994E-002    -1.2694439277538550E-008
  -8.5899999999999990E-002    -3.9121101913508483E-009
  -8.4799999999999986E-002     9.9854222668227521E-009
  -8.3699999999999997E-002     9.7386685382616633E-009
  -8.2599999999999993E-002    -2.9505253795747421E-009
  -8.1499999999999989E-002    -8.7989979746794234E-009
  -8.0399999999999999E-002    -8.1144507779740138E-010
  -7.9299999999999995E-002     5.8461280261212778E-009
  -7.8199999999999992E-002    -3.1210903306266857E-010
  -7.7100000000000002E-002    -7.3377419695930257E-009
  -7.5999999999999984E-002     3.1674864554159798E-012
  -7.4899999999999994E-002     1.1607330208107669E-008
  -7.3799999999999991E-002     4.7740180697530832E-009
  -7.2699999999999987E-002    -1.6707955907691030E-008
  -7.1599999999999997E-002    -2.0919548759934514E-008
  -7.0499999999999993E-002     5.0187098921128381E-009
  -6.9399999999999989E-002     2.8316048172882802E-008
  -6.8300000000000000E-002     1.2550323447158007E-008
  -6.7199999999999996E-002    -2.6888070436825728E-008
  -6.6099999999999992E-002    -3.8678408031955769E-008
  -6.5000000000000002E-002    -6.8551369025726672E-009
  -6.3899999999999985E-002     2.4601028769666300E-008
  -6.2799999999999995E-002     1.2652989767047984E-008
  -6.1699999999999991E-002    -2.5253639179823040E-008
  -6.0599999999999994E-002    -3.9294992149052632E-008
  -5.9499999999999990E-002    -1.9398857631358624E-008
  -5.8399999999999994E-002    -3.7799625651757651E-009
  -5.7299999999999990E-002    -1.5911945538960026E-008
  -5.6199999999999986E-002    -3.1371094166843250E-008
  -5.5099999999999996E-002    -2.4942425014273795E-008
  -5.3999999999999992E-002    -1.7670023666482848E-008
  -5.2899999999999989E-002    -4.2288789359190559E-008
  -5.1799999999999985E-002    -8.0368245392037352E-008
  -5.0699999999999995E-002    -7.9865834834436100E-008
  -4.9599999999999991E-002    -3.7826531240625627E-008
  -4.8499999999999988E-002    -1.9334242651325440E-008
  -4.7399999999999998E-002    -6.9026619087253493E-008
  -4.6299999999999994E-002    -1.3945614796284644E-007
  -4.5199999999999990E-002    -1.5010529352821322E-007
  -4.4099999999999986E-002    -1.0022376528695531E-007
  -4.2999999999999997E-002    -7.1628960540692788E-008
  -4.1899999999999993E-002    -1.1481756700959522E-007
  -4.0799999999999989E-002    -1.8240602628338820E-007
  -3.9699999999999985E-002    -2.0380555554311286E-007
  -3.8599999999999995E-002    -1.8461716422280006E-007
  -3.7499999999999992E-002    -1.8539435586717445E-007
  -3.6399999999999988E-002    -2.2213960448880243E-007
  -3.5299999999999984E-002    -2.4808218768157531E-007
  -3.4199999999999994E-002    -2.3942277493915753E-007
  -3.3099999999999991E-002    -2.4102789097923960E-007
  -3.1999999999999987E-002    -2.9296072057150013E-007
  -3.0899999999999997E-002    -3.5235132145317039E-007
  -2.9799999999999993E-002    -3.4702009088505292E-007
  -2.8699999999999989E-002    -2.9066583806525159E-007
  -2.7599999999999986E-002    -2.7511410394254199E-007
  -2.6499999999999996E-002    -3.4223225497953536E-007
  -2.5399999999999992E-002    -4.1563438912817219E-007
  -2.4299999999999988E-002    -4.0557796410212177E-007
  -2.3199999999999985E-002    -3.3558626455487683E-007
  -2.2099999999999995E-002    -3.0267491979429906E-007
  -2.0999999999999991E-002    -3.3746187000360806E-007
  -1.9899999999999987E-002    -3.6665525726675696E-007
  -1.8799999999999983E-002    -3.3259490805903624E-007
  -1.7699999999999994E-002    -2.7417283376962587E-007
  -1.6599999999999990E-002    -2.5789211122173583E-007
  -1.5499999999999986E-002    -2.6231694505440828E-007
  -1.4399999999999996E-002    -2.1656516935308900E-007
  -1.3299999999999992E-002    -1.2116021252950304E-007
  -1.2199999999999989E-002    -5.4208491917506763E-008
  -1.1099999999999985E-002    -5.2535167327505405E-008
  -9.9999999999999950E-003    -4.6219497562560719E-008
  -8.8999999999999913E-003     4.3425711027111902E-008
  -7.7999999999999875E-003     1.8325084738535224E-007
  -6.6999999999999837E-003     2.7374750288799987E-007
  -5.5999999999999939E-003     2.9017428460065275E-007
  -4.4999999999999901E-003     3.1779154596733861E-007
  -3.3999999999999864E-003     4.1801351358117245E-007
  -2.2999999999999826E-003     5.4568761242990149E-007
  -1.1999999999999927E-003     6.2245209164757398E-007
  -9.9999999999988987E-005     6.5508675106684677E-007
   1.0000000000000148E-003     7.1647951926934184E-007
   2.1000000000000185E-003     8.2024030234606471E-007
   3.2000000000000084E-003     8.9965828919957858E-007
   4.3000000000000121E-003     9.1537287971732439E-007
   5.4000000000000159E-003     9.2197944923100295E-007
   6.5000000000000058E-003     9.8255429747950984E-007
   7.6000000000000234E-003     1.0660974112397525E-006
   8.7000000000000133E-003     1.0895603281824151E-006
   9.8000000000000032E-003     1.0422247669339413E-006
   1.0900000000000021E-002     1.0006613138102693E-006
   1.2000000000000011E-002     1.0137632671103347E-006
   1.3100000000000001E-002     1.0329141559850541E-006
   1.4200000000000018E-002     9.8787018032453489E-007
   1.5300000000000008E-002     8.9185812157666078E-007
   1.6400000000000026E-002     8.1623409187159268E-007
   1.7500000000000016E-002     7.7788774888176704E-007
   1.8600000000000005E-002     7.1906003995536594E-007
   1.9700000000000023E-002     6.0298674497971660E-007
   2.0800000000000013E-002     4.7319244345089828E-007
   2.1900000000000003E-002     3.8295061699500366E-007
   2.3000000000000020E-002     3.1287575552596536E-007
   2.4100000000000010E-002     2.0387301447044592E-007
   2.5200000000000000E-002     5.3918153497534149E-008
   2.6300000000000018E-002    -7.8326451102839201E-008
   2.7400000000000008E-002    -1.5997926539057516E-007
   2.8500000000000025E-002    -2.3197230802907143E-007
   2.9600000000000015E-002    -3.4506376778153935E-007
   3.0700000000000005E-002    -4.7753087528690230E-007
   3.1800000000000023E-002    -5.7102460004898603E-007
   3.2900000000000013E-002    -6.1609648582816590E-007
   3.4000000000000002E-002    -6.6541872456582496E-007
   3.5100000000000020E-002    -7.4633663871281897E-007
   3.6200000000000010E-002    -8.2317473015791620E-007
   3.7300000000000028E-002    -8.4987158288640785E-007
   3.8400000000000017E-002    -8.4310664760778309E-007
   3.9500000000000007E-002    -8.5153135387372458E-007
   4.0600000000000025E-002    -8.7698663264745846E-007
   4.1700000000000015E-002    -8.7628347955615027E-007
   4.2800000000000005E-002    -8.3397526395856403E-007
   4.3900000000000022E-002    -7.8752390209047007E-007
   4.5000000000000012E-002    -7.6786511726822937E-007
   4.6100000000000002E-002    -7.4512109904389945E-007
   4.7200000000000020E-002    -6.8499531380439294E-007
   4.8300000000000010E-002    -5.9820627029694151E-007
   4.9400000000000027E-002    -5.3059420679346658E-007
   5.0500000000000017E-002    -4.8924795237326180E-007
   5.1600000000000007E-002    -4.3442514652269892E-007
   5.2700000000000025E-002    -3.5043004231738450E-007
   5.3800000000000014E-002    -2.6628387672644749E-007
   5.4900000000000004E-002    -2.0582760384968424E-007
   5.6000000000000022E-002    -1.5808033992925630E-007
   5.7100000000000012E-002    -9.0951239428704866E-008
   5.8200000000000002E-002    -1.5406945053086929E-008
   5.9300000000000019E-002     3.2067983823935720E-008
   6.0400000000000009E-002     5.2208307010914723E-008
   6.1500000000000027E-002     8.5432276364372228E-008
   6.2600000000000017E-002     1.4849155149931903E-007
   6.3700000000000007E-002     2.0351104978999501E-007
   6.4800000000000024E-002     2.1562964036547783E-007
   6.5900000000000014E-002     2.0578465864673490E-007
   6.7000000000000004E-002     2.1746163270108809E-007
   6.8100000000000022E-002     2.4783739149825124E-007
   6.9200000000000012E-002     2.5765621103346348E-007
   7.0300000000000029E-002     2.3911954372124455E-007
   7.1400000000000019E-002     2.2918639785984851E-007
   7.2500000000000009E-002     2.4479402327415301E-007
   7.3600000000000027E-002     2.4819789246066648E-007
   7.4700000000000016E-002     2.0729247296458198E-007
   7.5800000000000006E-002     1.5663368913010345E-007
   7.6900000000000024E-002     1.5264603803188947E-007
   7.8000000000000014E-002     1.8392786671483918E-007
   7.9100000000000004E-002     1.8299867576843099E-007
   8.0200000000000021E-002     1.2701219986865908E-007
   8.1300000000000011E-002     7.3120560273309820E-008
   8.2400000000000029E-002     7.1512594956857356E-008
   8.3500000000000019E-002     9.0723190737662662E-008
   8.4600000000000009E-002     7.0488091807874298E-008
   8.5700000000000026E-002     2.0882307438796488E-008
   8.6800000000000016E-002     5.8141136349831868E-009
   8.7900000000000006E-002     3.5976949419591620E-008
   8.9000000000000024E-002     4.3491798606964949E-008
   9.0100000000000013E-002    -1.1785441067502234E-008
   9.1200000000000003E-002    -6.7334973152810562E-008
   9.2300000000000021E-002    -4.8696538357262398E-008
   9.3400000000000011E-002     1.4875926268587136E-008
   9.4500000000000028E-002     2.6079984394300482E-008
   9.5600000000000018E-002    -3.8031849669550866E-008
   9.6700000000000008E-002    -8.9661462254753133E-008
   9.7800000000000026E-002    -6.2129288380674552E-008
   9.8900000000000016E-002    -7.1947829916041428E-009
  0.10000000000000001         -8.8023623945332474E-009
  0.10110000000000002         -5.4067189836359830E-008
  0.10220000000000001         -5.9662134788140975E-008
  0.10330000000000003         -1.1576515746014593E-008
  0.10440000000000002          8.4509217401773640E-009
  0.10550000000000001         -4.2869498173558895E-008
  0.10660000000000003         -8.9329965646811615E-008
  0.10770000000000002         -4.7490924970361448E-008
  0.10880000000000001          3.6224584221145051E-008
  0.10990000000000003          4.2677321232531540E-008
  0.11100000000000002         -4.0206877827131393E-008
  0.11210000000000001         -9.3512241505777638E-008
  0.11320000000000002         -3.9820069019924631E-008
  0.11430000000000001          4.2709050518396907E-008
  0.11540000000000003          3.8733141138891369E-008
  0.11650000000000002         -3.2834559959837861E-008
  0.11760000000000001         -5.5229396167533196E-008
  0.11870000000000003          2.4471193960096116E-009
  0.11980000000000002          4.2045183334948888E-008
  0.12090000000000001         -4.0276146862083806E-009
  0.12200000000000003         -6.1533633299859503E-008
  0.12310000000000001         -3.0855709098887019E-008
  0.12420000000000003          5.1002395196064754E-008
  0.12530000000000002          6.0719408168097289E-008
  0.12640000000000001         -2.0980085224664435E-008
  0.12750000000000003         -7.3895392915801494E-008
  0.12860000000000002         -1.8675171631343801E-008
  0.12970000000000001          6.1940731654885894E-008
  0.13080000000000003          4.8517240003320694E-008
  0.13190000000000002         -3.3371968299888977E-008
  0.13300000000000001         -5.5728378356434405E-008
  0.13410000000000000          1.2775545066290306E-008
  0.13520000000000004          6.0541331947661092E-008
  0.13630000000000003          9.4720258303482296E-009
  0.13740000000000002         -6.0988220695890050E-008
  0.13850000000000001         -3.5983962476393572E-008
  0.13960000000000000          5.2961524943384575E-008
  0.14070000000000005          7.1199913520558766E-008
  0.14180000000000004         -1.3374785723385685E-008
  0.14290000000000003         -7.8218285182174441E-008
  0.14400000000000002         -2.9515975441540832E-008
  0.14510000000000001          5.7963898569823868E-008
  0.14620000000000000          5.6310653917535092E-008
  0.14730000000000004         -2.3885101896325978E-008
  0.14840000000000003         -5.7400345809810460E-008
  0.14950000000000002          6.1654048533199557E-010
  0.15060000000000001          5.0998696821125122E-008
  0.15170000000000000          1.1889320639113521E-008
  0.15280000000000005         -5.1565528735864063E-008
  0.15390000000000004         -3.1959221047372921E-008
  0.15500000000000003          4.6786325924585981E-008
  0.15610000000000002          6.1800413675427990E-008
  0.15720000000000001         -1.7733047030787930E-008
  0.15830000000000000         -7.7168301970687025E-008
  0.15940000000000004         -2.7159828164258215E-008
  0.16050000000000003          6.0507289845190826E-008
  0.16160000000000002          5.9702180976728414E-008
  0.16270000000000001         -2.2916132991213090E-008
  0.16380000000000000         -6.2987624005472753E-008
  0.16490000000000005         -6.9932317714460623E-009
  0.16600000000000004          5.3363432783726239E-008
  0.16710000000000003          2.7705516103537775E-008
  0.16820000000000002         -3.7065323255092153E-008
  0.16930000000000001         -3.6684689064259146E-008
  0.17040000000000000          2.5877431752974189E-008
  0.17150000000000004          4.7930981850186072E-008
  0.17260000000000003         -9.3921999066992612E-009
  0.17370000000000002         -5.8897850152561659E-008
  0.17480000000000001         -2.2019188250510524E-008
  0.17590000000000000          4.8754252190974512E-008
  0.17700000000000005          4.9262403933880705E-008
  0.17810000000000004         -1.9154482444605492E-008
  0.17920000000000003         -5.3990316217777945E-008
  0.18030000000000002         -7.4094268498470228E-009
  0.18140000000000001          4.5377166912885514E-008
  0.18250000000000000          2.4972273138246237E-008
  0.18360000000000004         -3.3024569745521148E-008
  0.18470000000000003         -3.8130796298219138E-008
  0.18580000000000002          1.4813212878550530E-008
  0.18690000000000001          4.1454306654031825E-008
  0.18800000000000000          8.4891016438604083E-010
  0.18910000000000005         -4.2514610498756156E-008
  0.19020000000000004         -2.0225332519885342E-008
  0.19130000000000003          3.4712577701156988E-008
  0.19240000000000002          3.9426431897027214E-008
  0.19350000000000001         -1.2889124434423138E-008
  0.19460000000000005         -4.4774619567533591E-008
  0.19570000000000004         -1.2050085373971342E-008
  0.19680000000000003          3.3434059076853373E-008
  0.19790000000000002          2.6245743356412277E-008
  0.19900000000000001         -1.6287039272810944E-008
  0.20010000000000000         -2.7216715992040008E-008
  0.20120000000000005          6.3056107002523731E-009
  0.20230000000000004          2.8757247250155160E-008
  0.20340000000000003          6.0451630368163478E-009
  0.20450000000000002         -2.3607110932744035E-008
  0.20560000000000000         -1.2700767548778913E-008
  0.20670000000000005          2.1139310746320916E-008
  0.20780000000000004          2.4189530378748714E-008
  0.20890000000000003         -9.6341308264413783E-009
