 -0.12000000000000000          0.0000000000000000
 -0.11889999999999999          0.0000000000000000
 -0.11780000000000000          0.0000000000000000
 -0.11670000000000000          0.0000000000000000
 -0.11559999999999999          0.0000000000000000
 -0.11449999999999999          0.0000000000000000
 -0.11340000000000000          0.0000000000000000
 -0.11230000000000000          0.0000000000000000
 -0.11119999999999999          0.0000000000000000
 -0.11009999999999999          0.0000000000000000
 -0.10900000000000000          3.7337474201100635E-029
 -0.10790000000000000         -1.5412331116230077E-029
 -0.10679999999999999         -4.7066145611127484E-028
 -0.10569999999999999          3.4943850225312188E-029
 -0.10460000000000000          2.2726641641460085E-027
 -0.10349999999999999         -2.3659198105761773E-027
 -0.10239999999999999         -5.7739618548042435E-027
 -0.10130000000000000          4.9473448648790688E-026
 -0.10020000000000000          7.3761391236800962E-026
  -9.9099999999999994E-002    -3.5826211687844746E-025
  -9.7999999999999990E-002    -9.5600899394660535E-025
  -9.6899999999999986E-002     7.2430452234605688E-025
  -9.5799999999999996E-002     5.5817569121381546E-024
  -9.4699999999999993E-002     4.8780894348069386E-024
  -9.3599999999999989E-002    -1.3090440691632518E-023
  -9.2499999999999999E-002    -3.3913111382789572E-023
  -9.1399999999999995E-002    -1.4169964497130359E-023
  -9.0299999999999991E-002     5.5987092963330826E-023
  -8.9200000000000002E-002     1.2020262363506650E-022
  -8.8099999999999984E-002     1.4259948282867109E-022
  -8.6999999999999994E-002     8.8054717900897396E-023
  -8.5899999999999990E-002    -3.6373914382794757E-022
  -8.4799999999999986E-002    -1.5562618655683319E-021
  -8.3699999999999997E-002    -2.2292374124945963E-021
  -8.2599999999999993E-002     1.1398419594010010E-021
  -8.1499999999999989E-002     9.5910477270401173E-021
  -8.0399999999999999E-002     1.4230810411600886E-020
  -7.9299999999999995E-002    -2.0212770928666662E-022
  -7.8199999999999992E-002    -3.4533265459834511E-020
  -7.7100000000000002E-002    -5.9679601317886301E-020
  -7.5999999999999984E-002    -3.5590554147867866E-020
  -7.4899999999999994E-002     5.0935869265848915E-020
  -7.3799999999999991E-002     1.7517758301539819E-019
  -7.2699999999999987E-002     2.7621098692097060E-019
  -7.1599999999999997E-002     2.1148621071431878E-019
  -7.0499999999999993E-002    -2.4874861643360422E-019
  -6.9399999999999989E-002    -1.1344285792797243E-018
  -6.8300000000000000E-002    -1.7642918741531276E-018
  -6.7199999999999996E-002    -7.9612075603348575E-019
  -6.6099999999999992E-002     2.4487949979790275E-018
  -6.5000000000000002E-002     6.2714443491800280E-018
  -6.3899999999999985E-002     6.7751005620931532E-018
  -6.2799999999999995E-002     7.9459791652577563E-019
  -6.1699999999999991E-002    -1.0857172364954566E-017
  -6.0599999999999994E-002    -2.2700521036723427E-017
  -5.9499999999999990E-002    -2.5839889837043881E-017
  -5.8399999999999994E-002    -9.5859132231075446E-018
  -5.7299999999999990E-002     3.2789317058871359E-017
  -5.6199999999999986E-002     8.9371028599952466E-017
  -5.5099999999999996E-002     1.1655931713404761E-016
  -5.3999999999999992E-002     5.5178522054615553E-017
  -5.2899999999999989E-002    -1.1382570358524157E-016
  -5.1799999999999985E-002    -3.1578529121141150E-016
  -5.0699999999999995E-002    -3.9751610909690978E-016
  -4.9599999999999991E-002    -2.2280119063538661E-016
  -4.8499999999999988E-002     2.2402896489243172E-016
  -4.7399999999999998E-002     7.9938358526254250E-016
  -4.6299999999999994E-002     1.2179048409019380E-015
  -4.5199999999999990E-002     1.0986547780271493E-015
  -4.4099999999999986E-002     1.1228390509789173E-016
  -4.2999999999999997E-002    -1.6862904496901614E-015
  -4.1899999999999993E-002    -3.5227636525767729E-015
  -4.0799999999999989E-002    -4.0350849662181953E-015
  -3.9699999999999985E-002    -2.1037206739539342E-015
  -3.8599999999999995E-002     2.1420535734984012E-015
  -3.7499999999999992E-002     7.0666624712534352E-015
  -3.6399999999999988E-002     1.0296900119122383E-014
  -3.5299999999999984E-002     9.7682194228959282E-015
  -3.4199999999999994E-002     4.2955276922246322E-015
  -3.3099999999999991E-002    -6.0232148655085978E-015
  -3.1999999999999987E-002    -1.8899688603957014E-014
  -3.0899999999999997E-002    -2.9128490662251941E-014
  -2.9799999999999993E-002    -2.9913734250069934E-014
  -2.8699999999999989E-002    -1.6592372549702195E-014
  -2.7599999999999986E-002     1.0003699664430307E-014
  -2.6499999999999996E-002     4.3557032844898300E-014
  -2.5399999999999992E-002     7.4719215732189925E-014
  -2.4299999999999988E-002     9.2169937589321738E-014
  -2.3199999999999985E-002     8.1799726768614495E-014
  -2.2099999999999995E-002     2.9473717574630270E-014
  -2.0999999999999991E-002    -6.8365147256384956E-014
  -1.9899999999999987E-002    -1.9201580971940635E-013
  -1.8799999999999983E-002    -2.9645415896423222E-013
  -1.7699999999999994E-002    -3.2548025689568827E-013
  -1.6599999999999990E-002    -2.3350895869689303E-013
  -1.5499999999999986E-002    -3.0123140699905458E-015
  -1.4399999999999996E-002     3.4366362837087716E-013
  -1.3299999999999992E-002     7.3275489408802796E-013
  -1.2199999999999989E-002     1.0337126120363305E-012
  -1.1099999999999985E-002     1.0800298372651285E-012
  -9.9999999999999950E-003     7.2678365062306405E-013
  -8.8999999999999913E-003    -7.5428311058049757E-014
  -7.7999999999999875E-003    -1.2279986055796499E-012
  -6.6999999999999837E-003    -2.4742837986813093E-012
  -5.5999999999999939E-003    -3.4267835964663096E-012
  -4.4999999999999901E-003    -3.6274598776142586E-012
  -3.3999999999999864E-003    -2.6573697669424190E-012
  -2.2999999999999826E-003    -3.0402091434622580E-013
  -1.1999999999999927E-003     3.2564840581061905E-012
  -9.9999999999988987E-005     7.3510416503941300E-012
   1.0000000000000148E-003     1.0849135825830025E-011
   2.1000000000000185E-003     1.2364874749093424E-011
   3.2000000000000084E-003     1.0590572689650468E-011
   4.3000000000000121E-003     4.7172175020315787E-012
   5.4000000000000159E-003    -5.1288448314756874E-012
   6.5000000000000058E-003    -1.7563402121556493E-011
   7.6000000000000234E-003    -2.9900582010355947E-011
   8.7000000000000133E-003    -3.8495172327568383E-011
   9.8000000000000032E-003    -3.9456410361182748E-011
   1.0900000000000021E-002    -2.9622863190192916E-011
   1.2000000000000011E-002    -7.6443166033279830E-012
   1.3100000000000001E-002     2.5038988243908378E-011
   1.4200000000000018E-002     6.3623946389146369E-011
   1.5300000000000008E-002     1.0011137752119481E-010
   1.6400000000000026E-002     1.2439602126157467E-010
   1.7500000000000016E-002     1.2618810163456118E-010
   1.8600000000000005E-002     9.7445017332997708E-011
   1.9700000000000023E-002     3.4873656046263690E-011
   2.0800000000000013E-002    -5.8033709782190357E-011
   2.1900000000000003E-002    -1.7009466057871236E-010
   2.3000000000000020E-002    -2.8332305945788505E-010
   2.4100000000000010E-002    -3.7591396662151055E-010
   2.5200000000000000E-002    -4.2700701308184819E-010
   2.6300000000000018E-002    -4.2232750629978000E-010
   2.7400000000000008E-002    -3.5952166244079820E-010
   2.8500000000000025E-002    -2.5193308550441884E-010
   2.9600000000000015E-002    -1.2955705952499841E-010
   3.0700000000000005E-002    -3.6093732169728554E-011
   3.1800000000000023E-002    -2.1662878088579696E-011
   3.2900000000000013E-002    -1.3178565183569191E-010
   3.4000000000000002E-002    -3.9439337906621574E-010
   3.5100000000000020E-002    -8.0728934648277573E-010
   3.6200000000000010E-002    -1.3287073663548199E-009
   3.7300000000000028E-002    -1.8733210538357525E-009
   3.8400000000000017E-002    -2.3153827743982447E-009
   3.9500000000000007E-002    -2.4991946290242595E-009
   4.0600000000000025E-002    -2.2556154721797839E-009
   4.1700000000000015E-002    -1.4214789345601275E-009
   4.2800000000000005E-002     1.4193592134947863E-010
   4.3900000000000022E-002     2.5351822863228790E-009
   4.5000000000000012E-002     5.8151541360018655E-009
   4.6100000000000002E-002     1.0000625216832759E-008
   4.7200000000000020E-002     1.5089936411527560E-008
   4.8300000000000010E-002     2.1089524793183045E-008
   4.9400000000000027E-002     2.8050008538116344E-008
   5.0500000000000017E-002     3.6104740530618074E-008
   5.1600000000000007E-002     4.5506908463721629E-008
   5.2700000000000025E-002     5.6659434477523973E-008
   5.3800000000000014E-002     7.0135250496150547E-008
   5.4900000000000004E-002     8.6684721622987126E-008
   5.6000000000000022E-002     1.0723437071646913E-007
   5.7100000000000012E-002     1.3287905176184722E-007
   5.8200000000000002E-002     1.6487322795910586E-007
   5.9300000000000019E-002     2.0462826455514005E-007
   6.0400000000000009E-002     2.5372375489496335E-007
   6.1500000000000027E-002     3.1393261679113493E-007
   6.2600000000000017E-002     3.8726182083337335E-007
   6.3700000000000007E-002     4.7602893005205260E-007
   6.4800000000000024E-002     5.8293272786613670E-007
   6.5900000000000014E-002     7.1113225885710563E-007
   6.7000000000000004E-002     8.6432680745929247E-007
   6.8100000000000022E-002     1.0468237405802938E-006
   6.9200000000000012E-002     1.2636041901714634E-006
   7.0300000000000029E-002     1.5203685279630008E-006
   7.1400000000000019E-002     1.8235635934615857E-006
   7.2500000000000009E-002     2.1804205516673392E-006
   7.3600000000000027E-002     2.5989850200858200E-006
   7.4700000000000016E-002     3.0881758448231267E-006
   7.5800000000000006E-002     3.6578226172423456E-006
   7.6900000000000024E-002     4.3187369556108024E-006
   7.8000000000000014E-002     5.0827698032662738E-006
   7.9100000000000004E-002     5.9628587223414797E-006
   8.0200000000000021E-002     6.9730363065900747E-006
   8.1300000000000011E-002     8.1284233601763844E-006
   8.2400000000000029E-002     9.4450997494277544E-006
   8.3500000000000019E-002     1.0940145330096129E-005
   8.4600000000000009E-002     1.2631550816877279E-005
   8.5700000000000026E-002     1.4537848073814530E-005
   8.6800000000000016E-002     1.6678091924404725E-005
   8.7900000000000006E-002     1.9071412680204958E-005
   8.9000000000000024E-002     2.1737045244663022E-005
   9.0100000000000013E-002     2.4693952582310885E-005
   9.1200000000000003E-002     2.7960299121332355E-005
   9.2300000000000021E-002     3.1553106964565814E-005
   9.3400000000000011E-002     3.5487715649651363E-005
   9.4500000000000028E-002     3.9777616620995104E-005
   9.5600000000000018E-002     4.4433207222027704E-005
   9.6700000000000008E-002     4.9461537855677307E-005
   9.7800000000000026E-002     5.4866093705641106E-005
   9.8900000000000016E-002     6.0645128542091697E-005
  0.10000000000000001          6.6791311837732792E-005
  0.10110000000000002          7.3290888394694775E-005
  0.10220000000000001          8.0123209045268595E-005
  0.10330000000000003          8.7259984866250306E-005
  0.10440000000000002          9.4663999334443361E-005
  0.10550000000000001          1.0228891915176064E-004
  0.10660000000000003          1.1007834837073460E-004
  0.10770000000000002          1.1796609032899141E-004
  0.10880000000000001          1.2587559467647225E-004
  0.10990000000000003          1.3371990644373000E-004
  0.11100000000000002          1.4140052371658385E-004
  0.11210000000000001          1.4880980597808957E-004
  0.11320000000000002          1.5582916967105120E-004
  0.11430000000000001          1.6233191126957536E-004
  0.11540000000000003          1.6818165022414178E-004
  0.11650000000000002          1.7323529755230993E-004
  0.11760000000000001          1.7734445282258093E-004
  0.11870000000000003          1.8035573884844780E-004
  0.11980000000000002          1.8211381393484771E-004
  0.12090000000000001          1.8246500985696912E-004
  0.12200000000000003          1.8125740461982787E-004
  0.12310000000000001          1.7834598838817328E-004
  0.12420000000000003          1.7359369667246938E-004
  0.12530000000000002          1.6687458264641464E-004
  0.12640000000000001          1.5808049647603184E-004
  0.12750000000000003          1.4711807307321578E-004
  0.12860000000000002          1.3391692482400686E-004
  0.12970000000000001          1.1843066022265702E-004
  0.13080000000000003          1.0063911759061739E-004
  0.13190000000000002          8.0553763837087899E-005
  0.13300000000000001          5.8214965974912047E-005
  0.13410000000000000          3.3698473998811096E-005
  0.13520000000000004          7.1159952312882524E-006
  0.13630000000000003         -2.1385323634603992E-005
  0.13740000000000002         -5.1622682804008946E-005
  0.13850000000000001         -8.3377090049907565E-005
  0.13960000000000000         -1.1639661533990875E-004
  0.14070000000000005         -1.5039446589071304E-004
  0.14180000000000004         -1.8505321349948645E-004
  0.14290000000000003         -2.2002887271810323E-004
  0.14400000000000002         -2.5495578302070498E-004
  0.14510000000000001         -2.8945005033165216E-004
  0.14620000000000000         -3.2311337417922914E-004
  0.14730000000000004         -3.5553955240175128E-004
  0.14840000000000003         -3.8631938514299691E-004
  0.14950000000000002         -4.1504998807795346E-004
  0.15060000000000001         -4.4134017662145197E-004
  0.15170000000000000         -4.6481646131724119E-004
  0.15280000000000005         -4.8512907233089209E-004
  0.15390000000000004         -5.0195871153846383E-004
  0.15500000000000003         -5.1502248970791698E-004
  0.15610000000000002         -5.2407925250008702E-004
  0.15720000000000001         -5.2893493557348847E-004
  0.15830000000000000         -5.2944809431210160E-004
  0.15940000000000004         -5.2553223213180900E-004
  0.16050000000000003         -5.1715486915782094E-004
  0.16160000000000002         -5.0434202421456575E-004
  0.16270000000000001         -4.8717868048697710E-004
  0.16380000000000000         -4.6580928028561175E-004
  0.16490000000000005         -4.4043301022611558E-004
  0.16600000000000004         -4.1130409226752818E-004
  0.16710000000000003         -3.7872703978791833E-004
  0.16820000000000002         -3.4304987639188766E-004
  0.16930000000000001         -3.0465971212834120E-004
  0.17040000000000000         -2.6398064801469445E-004
  0.17150000000000004         -2.2146149422042072E-004
  0.17260000000000003         -1.7757473688106984E-004
  0.17370000000000002         -1.3280328130349517E-004
  0.17480000000000001         -8.7634849478490651E-005
  0.17590000000000000         -4.2555468098726124E-005
  0.17700000000000005          1.9619299109763233E-006
  0.17810000000000004          4.5456097723217681E-005
  0.17920000000000003          8.7492007878609002E-005
  0.18030000000000002          1.2766207510139793E-004
  0.18140000000000001          1.6559650248382241E-004
  0.18250000000000000          2.0096500520594418E-004
  0.18360000000000004          2.3348029935732484E-004
  0.18470000000000003          2.6290109963156283E-004
  0.18580000000000002          2.8903418569825590E-004
  0.18690000000000001          3.1173598836176097E-004
  0.18800000000000000          3.3091293880715966E-004
  0.18910000000000005          3.4652123576961458E-004
  0.19020000000000004          3.5856605973094702E-004
  0.19130000000000003          3.6709557753056288E-004
  0.19240000000000002          3.7220143713057041E-004
  0.19350000000000001          3.7401213194243610E-004
  0.19460000000000005          3.7269090535119176E-004
  0.19570000000000004          3.6843473208136857E-004
  0.19680000000000003          3.6146529600955546E-004
  0.19790000000000002          3.5202447907067835E-004
  0.19900000000000001          3.4036912256851792E-004
  0.20010000000000000          3.2676674891263247E-004
  0.20120000000000005          3.1149224378168583E-004
  0.20230000000000004          2.9482369427569211E-004
  0.20340000000000003          2.7703645173460245E-004
  0.20450000000000002          2.5839958107098937E-004
  0.20560000000000000          2.3917057842481881E-004
  0.20670000000000005          2.1959305740892887E-004
  0.20780000000000004          1.9989525026176125E-004
  0.20890000000000003          1.8028919294010848E-004
