 -0.12000000000000000          0.0000000000000000
 -0.11889999999999999          0.0000000000000000
 -0.11780000000000000          0.0000000000000000
 -0.11670000000000000          1.2546758770826116E-011
 -0.11559999999999999          1.3697731317263706E-011
 -0.11449999999999999         -3.8519867850972389E-011
 -0.11340000000000000         -6.0436995685808625E-011
 -0.11230000000000000          8.1728110390422160E-011
 -0.11119999999999999          2.1664800509135773E-010
 -0.11009999999999999         -3.4040520402456309E-011
 -0.10900000000000000         -4.8208020908546700E-010
 -0.10790000000000000         -2.7206739638963029E-010
 -0.10679999999999999          7.1667333179092907E-010
 -0.10569999999999999          1.0246075099473728E-009
 -0.10460000000000000         -4.2161327207246302E-010
 -0.10349999999999999         -1.8818469005310590E-009
 -0.10239999999999999         -6.0493343667644695E-010
 -0.10130000000000000          2.4258637321139531E-009
 -0.10020000000000000          2.5024646799209904E-009
  -9.9099999999999994E-002    -1.8537349433245254E-009
  -9.7999999999999990E-002    -4.8300936583700604E-009
  -9.6899999999999986E-002    -6.5601296617145977E-010
  -9.5799999999999996E-002     6.4044045622324575E-009
  -9.4699999999999993E-002     5.8165876559712615E-009
  -9.3599999999999989E-002    -3.7803609131970006E-009
  -9.2499999999999999E-002    -9.8755217337043177E-009
  -9.1399999999999995E-002    -2.5646735846152069E-009
  -9.0299999999999991E-002     9.5434895541757214E-009
  -8.9200000000000002E-002     9.3253706978657647E-009
  -8.8099999999999984E-002    -4.2171088843190319E-009
  -8.6999999999999994E-002    -1.2694439277538550E-008
  -8.5899999999999990E-002    -3.9121101913508483E-009
  -8.4799999999999986E-002     9.9854222668227521E-009
  -8.3699999999999997E-002     9.7386685382616633E-009
  -8.2599999999999993E-002    -2.9505253795747421E-009
  -8.1499999999999989E-002    -8.7989979746794234E-009
  -8.0399999999999999E-002    -8.1144507779740138E-010
  -7.9299999999999995E-002     5.8461280261212778E-009
  -7.8199999999999992E-002    -3.1210903306266857E-010
  -7.7100000000000002E-002    -7.3377419695930257E-009
  -7.5999999999999984E-002     3.1674864554159798E-012
  -7.4899999999999994E-002     1.1607330208107669E-008
  -7.3799999999999991E-002     4.7740180697530832E-009
  -7.2699999999999987E-002    -1.6707955907691030E-008
  -7.1599999999999997E-002    -2.0919548759934514E-008
  -7.0499999999999993E-002     5.0187098921128381E-009
  -6.9399999999999989E-002     2.8316048172882802E-008
  -6.8300000000000000E-002     1.2550323447158007E-008
  -6.7199999999999996E-002    -2.6888070436825728E-008
  -6.6099999999999992E-002    -3.8678408031955769E-008
  -6.5000000000000002E-002    -6.8551369025726672E-009
  -6.3899999999999985E-002     2.4601028769666300E-008
  -6.2799999999999995E-002     1.2652989767047984E-008
  -6.1699999999999991E-002    -2.5253639179823040E-008
  -6.0599999999999994E-002    -3.9294992149052632E-008
  -5.9499999999999990E-002    -1.9398857631358624E-008
  -5.8399999999999994E-002    -3.7799625651757651E-009
  -5.7299999999999990E-002    -1.5911945538960026E-008
  -5.6199999999999986E-002    -3.1371094166843250E-008
  -5.5099999999999996E-002    -2.4942425014273795E-008
  -5.3999999999999992E-002    -1.7670023666482848E-008
  -5.2899999999999989E-002    -4.2288789359190559E-008
  -5.1799999999999985E-002    -8.0368245392037352E-008
  -5.0699999999999995E-002    -7.9865834834436100E-008
  -4.9599999999999991E-002    -3.7826531240625627E-008
  -4.8499999999999988E-002    -1.9334242651325440E-008
  -4.7399999999999998E-002    -6.9026619087253493E-008
  -4.6299999999999994E-002    -1.3945614796284644E-007
  -4.5199999999999990E-002    -1.5010529352821322E-007
  -4.4099999999999986E-002    -1.0022376528695531E-007
  -4.2999999999999997E-002    -7.1628960540692788E-008
  -4.1899999999999993E-002    -1.1481756700959522E-007
  -4.0799999999999989E-002    -1.8240602628338820E-007
  -3.9699999999999985E-002    -2.0380555554311286E-007
  -3.8599999999999995E-002    -1.8461716422280006E-007
  -3.7499999999999992E-002    -1.8539435586717445E-007
  -3.6399999999999988E-002    -2.2213960448880243E-007
  -3.5299999999999984E-002    -2.4808218768157531E-007
  -3.4199999999999994E-002    -2.3942277493915753E-007
  -3.3099999999999991E-002    -2.4102789097923960E-007
  -3.1999999999999987E-002    -2.9296072057150013E-007
  -3.0899999999999997E-002    -3.5235132145317039E-007
  -2.9799999999999993E-002    -3.4702009088505292E-007
  -2.8699999999999989E-002    -2.9066583806525159E-007
  -2.7599999999999986E-002    -2.7511410394254199E-007
  -2.6499999999999996E-002    -3.4223225497953536E-007
  -2.5399999999999992E-002    -4.1563438912817219E-007
  -2.4299999999999988E-002    -4.0557796410212177E-007
  -2.3199999999999985E-002    -3.3558626455487683E-007
  -2.2099999999999995E-002    -3.0267491979429906E-007
  -2.0999999999999991E-002    -3.3746187000360806E-007
  -1.9899999999999987E-002    -3.6665525726675696E-007
  -1.8799999999999983E-002    -3.3259490805903624E-007
  -1.7699999999999994E-002    -2.7417283376962587E-007
  -1.6599999999999990E-002    -2.5789211122173583E-007
  -1.5499999999999986E-002    -2.6231694505440828E-007
  -1.4399999999999996E-002    -2.1656516935308900E-007
  -1.3299999999999992E-002    -1.2116021252950304E-007
  -1.2199999999999989E-002    -5.4208491917506763E-008
  -1.1099999999999985E-002    -5.2535167327505405E-008
  -9.9999999999999950E-003    -4.6219497562560719E-008
  -8.8999999999999913E-003     4.3425711027111902E-008
  -7.7999999999999875E-003     1.8325084738535224E-007
  -6.6999999999999837E-003     2.7374750288799987E-007
  -5.5999999999999939E-003     2.9017428460065275E-007
  -4.4999999999999901E-003     3.1779154596733861E-007
  -3.3999999999999864E-003     4.1801351358117245E-007
  -2.2999999999999826E-003     5.4542533689527772E-007
  -1.1999999999999927E-003     6.2250859400592162E-007
  -9.9999999999988987E-005     6.5575477492529899E-007
   1.0000000000000148E-003     7.1668529244561796E-007
   2.1000000000000185E-003     8.1921285755015560E-007
   3.2000000000000084E-003     9.0047848289032117E-007
   4.3000000000000121E-003     9.1659882173189544E-007
   5.4000000000000159E-003     9.2162150622243644E-007
   6.5000000000000058E-003     9.8279917892796220E-007
   7.6000000000000234E-003     1.0666610705811763E-006
   8.7000000000000133E-003     1.0899356084337342E-006
   9.8000000000000032E-003     1.0416320037620608E-006
   1.0900000000000021E-002     9.9861961189162685E-007
   1.2000000000000011E-002     1.0119011903952924E-006
   1.3100000000000001E-002     1.0345220289309509E-006
   1.4200000000000018E-002     9.9139799658587435E-007
   1.5300000000000008E-002     8.9342677256354364E-007
   1.6400000000000026E-002     8.1311605981682078E-007
   1.7500000000000016E-002     7.7354167160592624E-007
   1.8600000000000005E-002     7.2010141138889594E-007
   1.9700000000000023E-002     6.0903846588189481E-007
   2.0800000000000013E-002     4.7681436399216182E-007
   2.1900000000000003E-002     3.7919147644061013E-007
   2.3000000000000020E-002     3.0624866553807806E-007
   2.4100000000000010E-002     2.0180941362468729E-007
   2.5200000000000000E-002     5.5877524829384129E-008
   2.6300000000000018E-002    -7.5504352992084023E-008
   2.7400000000000008E-002    -1.5911020057046699E-007
   2.8500000000000025E-002    -2.3225929624004493E-007
   2.9600000000000015E-002    -3.4572170193314378E-007
   3.0700000000000005E-002    -4.7784095613678801E-007
   3.1800000000000023E-002    -5.7092745464615291E-007
   3.2900000000000013E-002    -6.1833821973777958E-007
   3.4000000000000002E-002    -6.6777789697880507E-007
   3.5100000000000020E-002    -7.4620339773900923E-007
   3.6200000000000010E-002    -8.1859133160833153E-007
   3.7300000000000028E-002    -8.4470701722239028E-007
   3.8400000000000017E-002    -8.4602208971773507E-007
   3.9500000000000007E-002    -8.5753777057107072E-007
   4.0600000000000025E-002    -8.7649834767944412E-007
   4.1700000000000015E-002    -8.6872796600800939E-007
   4.2800000000000005E-002    -8.3054675314997439E-007
   4.3900000000000022E-002    -7.9523010754201096E-007
   4.5000000000000012E-002    -7.7289632827159949E-007
   4.6100000000000002E-002    -7.4099409630434820E-007
   4.7200000000000020E-002    -6.7909758172390866E-007
   4.8300000000000010E-002    -6.0224056142033078E-007
   4.9400000000000027E-002    -5.3690934009864577E-007
   5.0500000000000017E-002    -4.8431536470161518E-007
   5.1600000000000007E-002    -4.2319473436691624E-007
   5.2700000000000025E-002    -3.4819407801478519E-007
   5.3800000000000014E-002    -2.7847059413943498E-007
   5.4900000000000004E-002    -2.1878094003113802E-007
   5.6000000000000022E-002    -1.5254489937888138E-007
   5.7100000000000012E-002    -7.5647562880476471E-008
   5.8200000000000002E-002    -1.2205953581201356E-008
   5.9300000000000019E-002     1.9513183957542424E-008
   6.0400000000000009E-002     4.2351754103719941E-008
   6.1500000000000027E-002     9.1550354852643068E-008
   6.2600000000000017E-002     1.6003056657609704E-007
   6.3700000000000007E-002     2.0441521542124974E-007
   6.4800000000000024E-002     2.0741620687658724E-007
   6.5900000000000014E-002     2.0403419398462574E-007
   6.7000000000000004E-002     2.2583232350825710E-007
   6.8100000000000022E-002     2.5374535539413046E-007
   6.9200000000000012E-002     2.5143708626274019E-007
   7.0300000000000029E-002     2.2946431954551372E-007
   7.1400000000000019E-002     2.2895837048508838E-007
   7.2500000000000009E-002     2.5112981916208810E-007
   7.3600000000000027E-002     2.4827733113852446E-007
   7.4700000000000016E-002     2.0015356483327196E-007
   7.5800000000000006E-002     1.5538040543106035E-007
   7.6900000000000024E-002     1.6232523591952486E-007
   7.8000000000000014E-002     1.9225980452119984E-007
   7.9100000000000004E-002     1.7826319265168422E-007
   8.0200000000000021E-002     1.1547211187235007E-007
   8.1300000000000011E-002     7.1983130567332410E-008
   8.2400000000000029E-002     8.3209300782982609E-008
   8.3500000000000019E-002     9.8034874440600106E-008
   8.4600000000000009E-002     6.1721401323211467E-008
   8.5700000000000026E-002     6.8221006621627112E-009
   8.6800000000000016E-002     3.2031779451102693E-009
   8.7900000000000006E-002     4.5859025021854904E-008
   8.9000000000000024E-002     5.0461629541587172E-008
   9.0100000000000013E-002    -1.3793092001890273E-008
   9.1200000000000003E-002    -7.1122215672403399E-008
   9.2300000000000021E-002    -4.5894150701997205E-008
   9.3400000000000011E-002     1.9333219469785945E-008
   9.4500000000000028E-002     2.3328599496608149E-008
   9.5600000000000018E-002    -4.4480827909865184E-008
   9.6700000000000008E-002    -8.8340492254701530E-008
   9.7800000000000026E-002    -5.3377195996517912E-008
   9.8900000000000016E-002    -4.0753902474932602E-009
  0.10000000000000001         -1.8595024187106901E-008
  0.10110000000000002         -6.5275877147996653E-008
  0.10220000000000001         -5.6829815520131888E-008
  0.10330000000000003          2.6977886591339484E-009
  0.10440000000000002          1.6717969231194729E-008
  0.10550000000000001         -4.9146297698143826E-008
  0.10660000000000003         -1.0005334161178325E-007
  0.10770000000000002         -4.9484949471434447E-008
  0.10880000000000001          4.1557282060011858E-008
  0.10990000000000003          4.5473502296999868E-008
  0.11100000000000002         -4.2960731860830492E-008
  0.11210000000000001         -9.4526988902998710E-008
  0.11320000000000002         -3.6228655631020956E-008
  0.11430000000000001          4.3524778448045254E-008
  0.11540000000000003          3.2142207118113220E-008
  0.11650000000000002         -3.9210910074416461E-008
  0.11760000000000001         -5.2307164821741026E-008
  0.11870000000000003          1.2153839712425452E-008
  0.11980000000000002          4.6505917339345615E-008
  0.12090000000000001         -9.0392120455362601E-009
  0.12200000000000003         -6.7299950501364947E-008
  0.12310000000000001         -2.8785462902192194E-008
  0.12420000000000003          5.6937206949214669E-008
  0.12530000000000002          6.0682488367547194E-008
  0.12640000000000001         -2.7477863540070757E-008
  0.12750000000000003         -7.7691240107924386E-008
  0.12860000000000002         -1.5156173205355117E-008
  0.12970000000000001          6.6530013498322660E-008
  0.13080000000000003          4.7477644926630092E-008
  0.13190000000000002         -3.7063951907612136E-008
  0.13300000000000001         -5.4655956205351686E-008
  0.13410000000000000          1.8660761824662586E-008
  0.13520000000000004          6.3382771031683660E-008
  0.13630000000000003          4.9768140719663734E-009
  0.13740000000000002         -6.7119579227892245E-008
  0.13850000000000001         -3.7002784836204228E-008
  0.13960000000000000          5.5826564704375414E-008
  0.14070000000000005          7.2437941867065092E-008
  0.14180000000000004         -1.4335951092903088E-008
  0.14290000000000003         -7.7266840037282236E-008
  0.14400000000000002         -2.5844208551006886E-008
  0.14510000000000001          5.9139836139365798E-008
  0.14620000000000000          5.1585310245627625E-008
  0.14730000000000004         -2.9903397091857187E-008
  0.14840000000000003         -5.7323990887425680E-008
  0.14950000000000002          6.9717640549527005E-009
  0.15060000000000001          5.6162139827620194E-008
  0.15170000000000000          1.0379014980799184E-008
  0.15280000000000005         -5.6923916247342277E-008
  0.15390000000000004         -3.4813815830148087E-008
  0.15500000000000003          4.8567933674803498E-008
  0.15610000000000002          6.5177488295375952E-008
  0.15720000000000001         -1.5917263951337191E-008
  0.15830000000000000         -7.7396776987370686E-008
  0.15940000000000004         -2.8961776976643705E-008
  0.16050000000000003          5.7511865492188008E-008
  0.16160000000000002          5.7221527072215395E-008
  0.16270000000000001         -2.1917522019521130E-008
  0.16380000000000000         -5.7967564970340391E-008
  0.16490000000000005         -2.1286461482361574E-009
  0.16600000000000004          5.2791602200841226E-008
  0.16710000000000003          2.1613409728615807E-008
  0.16820000000000002         -4.2796145294232701E-008
  0.16930000000000001         -3.6705070982634425E-008
  0.17040000000000000          3.0775517245729134E-008
  0.17150000000000004          5.2414257822874788E-008
  0.17260000000000003         -9.2259737627387040E-009
  0.17370000000000002         -6.1676246332353912E-008
  0.17480000000000001         -2.3815573513275012E-008
  0.17590000000000000          4.9928964074297255E-008
  0.17700000000000005          5.1790461697009960E-008
  0.17810000000000004         -1.8064186591004727E-008
  0.17920000000000003         -5.5229573803217136E-008
  0.18030000000000002         -9.6233545576751567E-009
  0.18140000000000001          4.4063742876687684E-008
  0.18250000000000000          2.5234839995391667E-008
  0.18360000000000004         -3.1903951480671822E-008
  0.18470000000000003         -3.7326742585719330E-008
  0.18580000000000002          1.4924490088219500E-008
  0.18690000000000001          4.1427380637060196E-008
  0.18800000000000000          1.3861478631582713E-009
  0.18910000000000005         -4.1604526046512547E-008
  0.19020000000000004         -2.0026797997729773E-008
  0.19130000000000003          3.3361644113938382E-008
  0.19240000000000002          3.7141980158139631E-008
  0.19350000000000001         -1.4048958441037485E-008
  0.19460000000000005         -4.3081882949991268E-008
  0.19570000000000004         -8.2190254602210189E-009
  0.19680000000000003          3.6094739641612250E-008
  0.19790000000000002          2.4466906722864223E-008
  0.19900000000000001         -2.2147382594539522E-008
  0.20010000000000000         -3.2514225978275135E-008
  0.20120000000000005          6.3472782585449750E-009
  0.20230000000000004          3.3980171565417550E-008
  0.20340000000000003          1.1139437816609643E-008
  0.20450000000000002         -2.3477110033809367E-008
  0.20560000000000000         -1.6679800651786536E-008
  0.20670000000000005          1.8368940146729074E-008
  0.20780000000000004          2.6194538094159725E-008
  0.20890000000000003         -4.9434665250203125E-009
