 -0.12000000000000000          0.0000000000000000
 -0.11889999999999999          0.0000000000000000
 -0.11780000000000000          0.0000000000000000
 -0.11670000000000000          1.2546758770826116E-011
 -0.11559999999999999          1.8168402546314688E-011
 -0.11449999999999999         -2.8160881612726563E-011
 -0.11340000000000000         -7.4961550855512371E-011
 -0.11230000000000000         -7.1864558574830095E-012
 -0.11119999999999999          9.8632872702619778E-011
 -0.11009999999999999          3.4899878126326556E-011
 -0.10900000000000000         -4.0868759765277929E-011
 -0.10790000000000000          3.0829411246102723E-010
 -0.10679999999999999          7.4258349469502605E-010
 -0.10569999999999999         -4.0189275518631717E-011
 -0.10460000000000000         -2.2186257275791377E-009
 -0.10349999999999999         -3.2006566286213456E-009
 -0.10239999999999999         -2.7628824228465021E-010
 -0.10130000000000000          4.7190176211131529E-009
 -0.10020000000000000          6.1720055732905621E-009
  -9.9099999999999994E-002     1.9703463305376090E-009
  -9.7999999999999990E-002    -2.6980122580511079E-009
  -9.6899999999999986E-002    -2.4106245888333433E-009
  -9.5799999999999996E-002    -3.5083735916430214E-010
  -9.4699999999999993E-002    -4.1651788684760049E-009
  -9.3599999999999989E-002    -1.2471414123638169E-008
  -9.2499999999999999E-002    -1.2972199314731370E-008
  -9.1399999999999995E-002     9.2079066593697689E-010
  -9.0299999999999991E-002     1.7741387026148914E-008
  -8.9200000000000002E-002     2.1626483714953793E-008
  -8.8099999999999984E-002     1.6275841119295364E-008
  -8.6999999999999994E-002     2.3412782823584166E-008
  -8.5899999999999990E-002     5.3338808925218473E-008
  -8.4799999999999986E-002     8.8167240619441145E-008
  -8.3699999999999997E-002     1.0448649589989145E-007
  -8.2599999999999993E-002     1.0566873243078589E-007
  -8.1499999999999989E-002     1.1758101692294076E-007
  -8.0399999999999999E-002     1.5362556382569892E-007
  -7.9299999999999995E-002     2.0025757407893252E-007
  -7.8199999999999992E-002     2.4293808564834762E-007
  -7.7100000000000002E-002     2.9085018127261719E-007
  -7.5999999999999984E-002     3.6206037634656241E-007
  -7.4899999999999994E-002     4.5507712798098510E-007
  -7.3799999999999991E-002     5.5578124147359631E-007
  -7.2699999999999987E-002     6.7041531792710884E-007
  -7.1599999999999997E-002     8.2784498545152019E-007
  -7.0499999999999993E-002     1.0399912753200624E-006
  -6.9399999999999989E-002     1.2819219818993588E-006
  -6.8300000000000000E-002     1.5320098327720189E-006
  -6.7199999999999996E-002     1.8184381360697444E-006
  -6.6099999999999992E-002     2.1972241484036203E-006
  -6.5000000000000002E-002     2.6851027996599441E-006
  -6.3899999999999985E-002     3.2458503937959904E-006
  -6.2799999999999995E-002     3.8575453800149262E-006
  -6.1699999999999991E-002     4.5664933168154676E-006
  -6.0599999999999994E-002     5.4460479077533819E-006
  -5.9499999999999990E-002     6.5167419052158948E-006
  -5.8399999999999994E-002     7.7444046837626956E-006
  -5.7299999999999990E-002     9.1200681708869524E-006
  -5.6199999999999986E-002     1.0704527085181326E-005
  -5.5099999999999996E-002     1.2574139873322565E-005
  -5.3999999999999992E-002     1.4752454262634274E-005
  -5.2899999999999989E-002     1.7229805962415412E-005
  -5.1799999999999985E-002     2.0034747649333440E-005
  -5.0699999999999995E-002     2.3242824681801721E-005
  -4.9599999999999991E-002     2.6911933673545718E-005
  -4.8499999999999988E-002     3.1053103157319129E-005
  -4.7399999999999998E-002     3.5688743082573637E-005
  -4.6299999999999994E-002     4.0903054468799382E-005
  -4.5199999999999990E-002     4.6792014472885057E-005
  -4.4099999999999986E-002     5.3380237659439445E-005
  -4.2999999999999997E-002     6.0640664742095396E-005
  -4.1899999999999993E-002     6.8603272666223347E-005
  -4.0799999999999989E-002     7.7392469393089414E-005
  -3.9699999999999985E-002     8.7123858975246549E-005
  -3.8599999999999995E-002     9.7799071227200329E-005
  -3.7499999999999992E-002     1.0935123282251880E-004
  -3.6399999999999988E-002     1.2177728785900399E-004
  -3.5299999999999984E-002     1.3516789476852864E-004
  -3.4199999999999994E-002     1.4959424152038991E-004
  -3.3099999999999991E-002     1.6501893696840852E-004
  -3.1999999999999987E-002     1.8135092977900058E-004
  -3.0899999999999997E-002     1.9854697166010737E-004
  -2.9799999999999993E-002     2.1659923368133605E-004
  -2.8699999999999989E-002     2.3543875431641936E-004
  -2.7599999999999986E-002     2.5491439737379551E-004
  -2.6499999999999996E-002     2.7488201158121228E-004
  -2.5399999999999992E-002     2.9525178251788020E-004
  -2.4299999999999988E-002     3.1590246362611651E-004
  -2.3199999999999985E-002     3.3658905886113644E-004
  -2.2099999999999995E-002     3.5699279396794736E-004
  -2.0999999999999991E-002     3.7685310235247016E-004
  -1.9899999999999987E-002     3.9598543662577868E-004
  -1.8799999999999983E-002     4.1415257146582007E-004
  -1.7699999999999994E-002     4.3097257730551064E-004
  -1.6599999999999990E-002     4.4600621913559735E-004
  -1.5499999999999986E-002     4.5889522880315781E-004
  -1.4399999999999996E-002     4.6935281716287136E-004
  -1.3299999999999992E-002     4.7703247400932014E-004
  -1.2199999999999989E-002     4.8148733912967145E-004
  -1.1099999999999985E-002     4.8228359082713723E-004
  -9.9999999999999950E-003     4.7909727436490357E-004
  -8.8999999999999913E-003     4.7165038995444775E-004
  -7.7999999999999875E-003     4.5959794078953564E-004
  -6.6999999999999837E-003     4.4255817192606628E-004
  -5.5999999999999939E-003     4.2025287984870374E-004
  -4.4999999999999901E-003     3.9255229057744145E-004
  -3.3999999999999864E-003     3.5936830681748688E-004
  -2.2999999999999826E-003     3.2056940835900605E-004
  -1.1999999999999927E-003     2.7605082141235471E-004
  -9.9999999999988987E-005     2.2586896375287324E-004
   1.0000000000000148E-003     1.7022872634697706E-004
   2.1000000000000185E-003     1.0937461047433317E-004
   3.2000000000000084E-003     4.3548250687308609E-005
   4.3000000000000121E-003    -2.6912721295957454E-005
   5.4000000000000159E-003    -1.0149233276024461E-004
   6.5000000000000058E-003    -1.7956484225578606E-004
   7.6000000000000234E-003    -2.6050370070151985E-004
   8.7000000000000133E-003    -3.4367589978501201E-004
   9.8000000000000032E-003    -4.2832765029743314E-004
   1.0900000000000021E-002    -5.1354954484850168E-004
   1.2000000000000011E-002    -5.9838569723069668E-004
   1.3100000000000001E-002    -6.8193784682080150E-004
   1.4200000000000018E-002    -7.6332909520715475E-004
   1.5300000000000008E-002    -8.4160629194229841E-004
   1.6400000000000026E-002    -9.1574172256514430E-004
   1.7500000000000016E-002    -9.8475895356386900E-004
   1.8600000000000005E-002    -1.0477987816557288E-003
   1.9700000000000023E-002    -1.1040513636544347E-003
   2.0800000000000013E-002    -1.1526923626661301E-003
   2.1900000000000003E-002    -1.1929449392482638E-003
   2.3000000000000020E-002    -1.2241896474733949E-003
   2.4100000000000010E-002    -1.2459781719371676E-003
   2.5200000000000000E-002    -1.2579396134242415E-003
   2.6300000000000018E-002    -1.2597409076988697E-003
   2.7400000000000008E-002    -1.2511680833995342E-003
   2.8500000000000025E-002    -1.2322129914537072E-003
   2.9600000000000015E-002    -1.2030481593683362E-003
   3.0700000000000005E-002    -1.1639437871053815E-003
   3.1800000000000023E-002    -1.1152430670335889E-003
   3.2900000000000013E-002    -1.0574255138635635E-003
   3.4000000000000002E-002    -9.9113560281693935E-004
   3.5100000000000020E-002    -9.1713387519121170E-004
   3.6200000000000010E-002    -8.3623267710208893E-004
   3.7300000000000028E-002    -7.4930919799953699E-004
   3.8400000000000017E-002    -6.5736559918150306E-004
   3.9500000000000007E-002    -5.6148524163290858E-004
   4.0600000000000025E-002    -4.6275823842734098E-004
   4.1700000000000015E-002    -3.6223468487150967E-004
   4.2800000000000005E-002    -2.6095824432559311E-004
   4.3900000000000022E-002    -1.6003195196390152E-004
   4.5000000000000012E-002    -6.0561684222193435E-005
   4.6100000000000002E-002     3.6433790228329599E-005
   4.7200000000000020E-002     1.3003119966015220E-004
   4.8300000000000010E-002     2.1938059944659472E-004
   4.9400000000000027E-002     3.0367841827683151E-004
   5.0500000000000017E-002     3.8222226430661976E-004
   5.1600000000000007E-002     4.5442418195307255E-004
   5.2700000000000025E-002     5.1978480769321322E-004
   5.3800000000000014E-002     5.7790044229477644E-004
   5.4900000000000004E-002     6.2848383095115423E-004
   5.6000000000000022E-002     6.7138281883671880E-004
   5.7100000000000012E-002     7.0656201569363475E-004
   5.8200000000000002E-002     7.3406047886237502E-004
   5.9300000000000019E-002     7.5399398338049650E-004
   6.0400000000000009E-002     7.6657871250063181E-004
   6.1500000000000027E-002     7.7213370241224766E-004
   6.2600000000000017E-002     7.7103724470362067E-004
   6.3700000000000007E-002     7.6371285831555724E-004
   6.4800000000000024E-002     7.5064849806949496E-004
   6.5900000000000014E-002     7.3239818448200822E-004
   6.7000000000000004E-002     7.0953252725303173E-004
   6.8100000000000022E-002     6.8260543048381805E-004
   6.9200000000000012E-002     6.5217207884415984E-004
   7.0300000000000029E-002     6.1882653972133994E-004
   7.1400000000000019E-002     5.8317987713962793E-004
   7.2500000000000009E-002     5.4580066353082657E-004
   7.3600000000000027E-002     5.0719641149044037E-004
   7.4700000000000016E-002     4.6785920858383179E-004
   7.5800000000000006E-002     4.2828742880374193E-004
   7.6900000000000024E-002     3.8893436430953443E-004
   7.8000000000000014E-002     3.5016061156056821E-004
   7.9100000000000004E-002     3.1227339059114456E-004
   8.0200000000000021E-002     2.7559464797377586E-004
   8.1300000000000011E-002     2.4044603924266994E-004
   8.2400000000000029E-002     2.0705690258182585E-004
   8.3500000000000019E-002     1.7553351062815636E-004
   8.4600000000000009E-002     1.4594940876122564E-004
   8.5700000000000026E-002     1.1842735693790019E-004
   8.6800000000000016E-002     9.3093927716836333E-005
   8.7900000000000006E-002     6.9974892539903522E-005
   8.9000000000000024E-002     4.8998852435033768E-005
   9.0100000000000013E-002     3.0103468816378154E-005
   9.1200000000000003E-002     1.3285274690133519E-005
   9.2300000000000021E-002    -1.4905067473591771E-006
   9.3400000000000011E-002    -1.4356303836393636E-005
   9.4500000000000028E-002    -2.5483226636424661E-005
   9.5600000000000018E-002    -3.4964326914632693E-005
   9.6700000000000008E-002    -4.2830859456444159E-005
   9.7800000000000026E-002    -4.9184560339199379E-005
   9.8900000000000016E-002    -5.4237400036072358E-005
  0.10000000000000001         -5.8186145906802267E-005
  0.10110000000000002         -6.1104823544155806E-005
  0.10220000000000001         -6.3016370404511690E-005
  0.10330000000000003         -6.4035179093480110E-005
  0.10440000000000002         -6.4360996475443244E-005
  0.10550000000000001         -6.4135536376852542E-005
  0.10660000000000003         -6.3380466599483043E-005
  0.10770000000000002         -6.2118597270455211E-005
  0.10880000000000001         -6.0483474953798577E-005
  0.10990000000000003         -5.8638215705286711E-005
  0.11100000000000002         -5.6626075092935935E-005
  0.11210000000000001         -5.4392439778894186E-005
  0.11320000000000002         -5.1954204536741599E-005
  0.11430000000000001         -4.9460872105555609E-005
  0.11540000000000003         -4.7041998186614364E-005
  0.11650000000000002         -4.4669053750112653E-005
  0.11760000000000001         -4.2243045754730701E-005
  0.11870000000000003         -3.9778988139005378E-005
  0.11980000000000002         -3.7411864468595013E-005
  0.12090000000000001         -3.5216326068621129E-005
  0.12200000000000003         -3.3118958526756614E-005
  0.12310000000000001         -3.1036022846819833E-005
  0.12420000000000003         -2.9018408895353787E-005
  0.12530000000000002         -2.7176749426871538E-005
  0.12640000000000001         -2.5505285520921461E-005
  0.12750000000000003         -2.3885178961791098E-005
  0.12860000000000002         -2.2268759494181722E-005
  0.12970000000000001         -2.0758696336997673E-005
  0.13080000000000003         -1.9452778360573575E-005
  0.13190000000000002         -1.8287310012965463E-005
  0.13300000000000001         -1.7124077203334309E-005
  0.13410000000000000         -1.5951973182382062E-005
  0.13520000000000004         -1.4895296772010624E-005
  0.13630000000000003         -1.4017294233781286E-005
  0.13740000000000002         -1.3219139873399399E-005
  0.13850000000000001         -1.2388424693199340E-005
  0.13960000000000000         -1.1566157809284050E-005
  0.14070000000000005         -1.0872773600567598E-005
  0.14180000000000004         -1.0310984180250671E-005
  0.14290000000000003         -9.7522561190999113E-006
  0.14400000000000002         -9.1310221250751056E-006
  0.14510000000000001         -8.5455194493988529E-006
  0.14620000000000000         -8.1054095062427223E-006
  0.14730000000000004         -7.7584081736858934E-006
  0.14840000000000003         -7.3634341788419988E-006
  0.14950000000000002         -6.8986910264356993E-006
  0.15060000000000001         -6.4881865000643302E-006
  0.15170000000000000         -6.2076355789031368E-006
  0.15280000000000005         -5.9696985772461630E-006
  0.15390000000000004         -5.6606895668664947E-006
  0.15500000000000003         -5.3127432693145238E-006
  0.15610000000000002         -5.0467288019717671E-006
  0.15720000000000001         -4.8788142521516420E-006
  0.15830000000000000         -4.6934305828472134E-006
  0.15940000000000004         -4.4238308873900678E-006
  0.16050000000000003         -4.1573148337192833E-006
  0.16160000000000002         -4.0002132664085366E-006
  0.16270000000000001         -3.9102815208025277E-006
  0.16380000000000000         -3.7575516671495279E-006
  0.16490000000000005         -3.5205539461458102E-006
  0.16600000000000004         -3.3175315365951974E-006
  0.16710000000000003         -3.2257917155220639E-006
  0.16820000000000002         -3.1664121706853621E-006
  0.16930000000000001         -3.0272985895862803E-006
  0.17040000000000000         -2.8322779144218657E-006
  0.17150000000000004         -2.6984080250258557E-006
  0.17260000000000003         -2.6531583898758981E-006
  0.17370000000000002         -2.5947629183065146E-006
  0.17480000000000001         -2.4530118025722913E-006
  0.17590000000000000         -2.2973083559918450E-006
  0.17700000000000005         -2.2269334749580594E-006
  0.17810000000000004         -2.2156791601446457E-006
  0.17920000000000003         -2.1518851553992135E-006
  0.18030000000000002         -2.0096545085834805E-006
  0.18140000000000001         -1.8874993656936567E-006
  0.18250000000000000         -1.8572427507024258E-006
  0.18360000000000004         -1.8566628341432079E-006
  0.18470000000000003         -1.7872887383418856E-006
  0.18580000000000002         -1.6628376897642738E-006
  0.18690000000000001         -1.5822042769286782E-006
  0.18800000000000000         -1.5756069160488551E-006
  0.18910000000000005         -1.5627647371729836E-006
  0.19020000000000004         -1.4815661870670738E-006
  0.19130000000000003         -1.3827682323608315E-006
  0.19240000000000002         -1.3465323718264699E-006
  0.19350000000000001         -1.3554832776208059E-006
  0.19460000000000005         -1.3227128192738746E-006
  0.19570000000000004         -1.2284466492928914E-006
  0.19680000000000003         -1.1518991414050106E-006
  0.19790000000000002         -1.1497095329104923E-006
  0.19900000000000001         -1.1689749044307973E-006
  0.20010000000000000         -1.1272120445937617E-006
  0.20120000000000005         -1.0351940318287234E-006
  0.20230000000000004         -9.7756162631412735E-007
  0.20340000000000003         -9.8575264928513207E-007
  0.20450000000000002         -9.9664930530707352E-007
  0.20560000000000000         -9.5245377451647073E-007
  0.20670000000000005         -8.8371501760775573E-007
  0.20780000000000004         -8.5423522477867664E-007
  0.20890000000000003         -8.6175907654251205E-007
