 -0.12000000000000000          0.0000000000000000
 -0.11889999999999999          0.0000000000000000
 -0.11780000000000000          0.0000000000000000
 -0.11670000000000000          0.0000000000000000
 -0.11559999999999999          0.0000000000000000
 -0.11449999999999999          0.0000000000000000
 -0.11340000000000000          0.0000000000000000
 -0.11230000000000000          0.0000000000000000
 -0.11119999999999999          0.0000000000000000
 -0.11009999999999999          2.4000243043723909E-024
 -0.10900000000000000         -1.4065601354813240E-023
 -0.10790000000000000         -2.0158546838852304E-023
 -0.10679999999999999          2.3609311899202873E-022
 -0.10569999999999999          1.4395363514768624E-022
 -0.10460000000000000         -2.2927538167668016E-021
 -0.10349999999999999         -1.7718426825148928E-021
 -0.10239999999999999          1.5905067592260830E-020
 -0.10130000000000000          2.0831343345907520E-020
 -0.10020000000000000         -7.9272446876061666E-020
  -9.9099999999999994E-002    -1.7510800937106424E-019
  -9.7999999999999990E-002     2.4450885050517539E-019
  -9.6899999999999986E-002     1.0396053501451674E-018
  -9.5799999999999996E-002    -4.3665520368178932E-020
  -9.4699999999999993E-002    -4.2844874482465074E-018
  -9.3599999999999989E-002    -4.3870268249301120E-018
  -9.2499999999999999E-002     1.0761616460592440E-017
  -9.1399999999999995E-002     2.7231455781541839E-017
  -9.0299999999999991E-002    -3.8409858774297698E-018
  -8.9200000000000002E-002    -8.9253747623982248E-017
  -8.8099999999999984E-002    -9.5308848674213319E-017
  -8.6999999999999994E-002     1.3636464150674766E-016
  -8.5899999999999990E-002     4.2458881733837411E-016
  -8.4799999999999986E-002     1.7978695174968192E-016
  -8.3699999999999997E-002    -8.1178118299503007E-016
  -8.2599999999999993E-002    -1.4590206043926367E-015
  -8.1499999999999989E-002    -9.5570098781437167E-017
  -8.0399999999999999E-002     2.9471609309624554E-015
  -7.9299999999999995E-002     4.1579661534587448E-015
  -7.8199999999999992E-002     1.5542489452321915E-016
  -7.7100000000000002E-002    -7.2640402062050004E-015
  -7.5999999999999984E-002    -1.1160693307304004E-014
  -7.4899999999999994E-002    -5.5982342954321185E-015
  -7.3799999999999991E-002     9.6390621450326980E-015
  -7.2699999999999987E-002     2.9311097413152812E-014
  -7.1599999999999997E-002     4.0210724154684727E-014
  -7.0499999999999993E-002     1.6085613066150681E-014
  -6.9399999999999989E-002    -6.4578320447226945E-014
  -6.8300000000000000E-002    -1.6458466805136657E-013
  -6.7199999999999996E-002    -1.5898694578735106E-013
  -6.6099999999999992E-002     6.9542089372199439E-014
  -6.5000000000000002E-002     4.3670790724967268E-013
  -6.3899999999999985E-002     5.9355791766010912E-013
  -6.2799999999999995E-002     1.9792662246578135E-013
  -6.1699999999999991E-002    -6.5364722098490424E-013
  -6.0599999999999994E-002    -1.3335564206726214E-012
  -5.9499999999999990E-002    -1.1716839521183631E-012
  -5.8399999999999994E-002    -7.9708409198107205E-014
  -5.7299999999999990E-002     1.3725808684084129E-012
  -5.6199999999999986E-002     2.4587777560508561E-012
  -5.5099999999999996E-002     2.6846090454835103E-012
  -5.3999999999999992E-002     1.6823726656581273E-012
  -5.2899999999999989E-002    -8.1627456530175557E-013
  -5.1799999999999985E-002    -4.3534785151844169E-012
  -5.0699999999999995E-002    -7.1745413429691318E-012
  -4.9599999999999991E-002    -7.0335412841182610E-012
  -4.8499999999999988E-002    -3.1000874610442875E-012
  -4.7399999999999998E-002     3.2307266670944523E-012
  -4.6299999999999994E-002     9.8256281583219973E-012
  -4.5199999999999990E-002     1.5510913733973730E-011
  -4.4099999999999986E-002     1.9168090725774078E-011
  -4.2999999999999997E-002     1.7401262722427369E-011
  -4.1899999999999993E-002     5.4186065356898183E-012
  -4.0799999999999989E-002    -1.7505817975771443E-011
  -3.9699999999999985E-002    -4.3707110847224229E-011
  -3.8599999999999995E-002    -6.0405846991073986E-011
  -3.7499999999999992E-002    -5.8461256668973505E-011
  -3.6399999999999988E-002    -3.7237452704674823E-011
  -3.5299999999999984E-002    -1.0055228134506211E-012
  -3.4199999999999994E-002     4.6557029065308342E-011
  -3.3099999999999991E-002     1.0134671574180132E-010
  -3.1999999999999987E-002     1.5312356937968730E-010
  -3.0899999999999997E-002     1.8410363511467409E-010
  -2.9799999999999993E-002     1.7434037546948389E-010
  -2.8699999999999989E-002     1.0730485250354249E-010
  -2.7599999999999986E-002    -2.7165630855918721E-011
  -2.6499999999999996E-002    -2.2586200965069025E-010
  -2.5399999999999992E-002    -4.5923675973114086E-010
  -2.4299999999999988E-002    -6.6683930599609198E-010
  -2.3199999999999985E-002    -7.7470735382334510E-010
  -2.2099999999999995E-002    -7.2147410268286194E-010
  -2.0999999999999991E-002    -4.6297984890308896E-010
  -1.9899999999999987E-002     4.8682863296178880E-011
  -1.8799999999999983E-002     8.7559570705053602E-010
  -1.7699999999999994E-002     2.0656962806953061E-009
  -1.6599999999999990E-002     3.6150249460575878E-009
  -1.5499999999999986E-002     5.4777915536874389E-009
  -1.4399999999999996E-002     7.6281718719428682E-009
  -1.3299999999999992E-002     1.0106933956421926E-008
  -1.2199999999999989E-002     1.3000411414054724E-008
  -1.1099999999999985E-002     1.6389732238053512E-008
  -9.9999999999999950E-003     2.0351510698901620E-008
  -8.8999999999999913E-003     2.5020783667173419E-008
  -7.7999999999999875E-003     3.0640244119695126E-008
  -6.6999999999999837E-003     3.7540651476319908E-008
  -5.5999999999999939E-003     4.6092466732261528E-008
  -4.4999999999999901E-003     5.6698233663610154E-008
  -3.3999999999999864E-003     6.9820039527712652E-008
  -2.2999999999999826E-003     8.5982627240355214E-008
  -1.1999999999999927E-003     1.0575477205065908E-007
  -9.9999999999988987E-005     1.2977100993794011E-007
   1.0000000000000148E-003     1.5880002024459827E-007
   2.1000000000000185E-003     1.9377591797820060E-007
   3.2000000000000084E-003     2.3574837371143076E-007
   4.3000000000000121E-003     2.8586370603989053E-007
   5.4000000000000159E-003     3.4549370298009308E-007
   6.5000000000000058E-003     4.1639992787168012E-007
   7.6000000000000234E-003     5.0070940460500424E-007
   8.7000000000000133E-003     6.0067424101362121E-007
   9.8000000000000032E-003     7.1852849714559852E-007
   1.0900000000000021E-002     8.5670740190835204E-007
   1.2000000000000011E-002     1.0182333198827109E-006
   1.3100000000000001E-002     1.2068134083165205E-006
   1.4200000000000018E-002     1.4265557410908514E-006
   1.5300000000000008E-002     1.6816582046885742E-006
   1.6400000000000026E-002     1.9765016077144537E-006
   1.7500000000000016E-002     2.3160114324127790E-006
   1.8600000000000005E-002     2.7058745217800606E-006
   1.9700000000000023E-002     3.1522893095825566E-006
   2.0800000000000013E-002     3.6617500427382765E-006
   2.1900000000000003E-002     4.2409201341797598E-006
   2.3000000000000020E-002     4.8967058319249190E-006
   2.4100000000000010E-002     5.6363792282354552E-006
   2.5200000000000000E-002     6.4675505200284533E-006
   2.6300000000000018E-002     7.3983260335808154E-006
   2.7400000000000008E-002     8.4371940829441883E-006
   2.8500000000000025E-002     9.5924078777898103E-006
   2.9600000000000015E-002     1.0871335689444095E-005
   3.0700000000000005E-002     1.2280633200134616E-005
   3.1800000000000023E-002     1.3826796021021437E-005
   3.2900000000000013E-002     1.5516592611675151E-005
   3.4000000000000002E-002     1.7356438547722064E-005
   3.5100000000000020E-002     1.9350598449818790E-005
   3.6200000000000010E-002     2.1500492948689498E-005
   3.7300000000000028E-002     2.3805729142623022E-005
   3.8400000000000017E-002     2.6264757252647541E-005
   3.9500000000000007E-002     2.8874661438749172E-005
   4.0600000000000025E-002     3.1629977456759661E-005
   4.1700000000000015E-002     3.4521002817200497E-005
   4.2800000000000005E-002     3.7533674912992865E-005
   4.3900000000000022E-002     4.0650742448633537E-005
   4.5000000000000012E-002     4.3851810914929956E-005
   4.6100000000000002E-002     4.7113229811657220E-005
   4.7200000000000020E-002     5.0408245442667976E-005
   4.8300000000000010E-002     5.3703781304648146E-005
   4.9400000000000027E-002     5.6961183872772381E-005
   5.0500000000000017E-002     6.0137099353596568E-005
   5.1600000000000007E-002     6.3184328610077500E-005
   5.2700000000000025E-002     6.6053296905010939E-005
   5.3800000000000014E-002     6.8693327193614095E-005
   5.4900000000000004E-002     7.1048540121410042E-005
   5.6000000000000022E-002     7.3057803092524409E-005
   5.7100000000000012E-002     7.4656207289081067E-005
   5.8200000000000002E-002     7.5778436439577490E-005
   5.9300000000000019E-002     7.6362739491742104E-005
   6.0400000000000009E-002     7.6350122981239110E-005
   6.1500000000000027E-002     7.5680552981793880E-005
   6.2600000000000017E-002     7.4292220233473927E-005
   6.3700000000000007E-002     7.2126720624510199E-005
   6.4800000000000024E-002     6.9133297074586153E-005
   6.5900000000000014E-002     6.5273648942820728E-005
   6.7000000000000004E-002     6.0515842051245272E-005
   6.8100000000000022E-002     5.4835447372170165E-005
   6.9200000000000012E-002     4.8215297283604741E-005
   7.0300000000000029E-002     4.0647948480909690E-005
   7.1400000000000019E-002     3.2142117561306804E-005
   7.2500000000000009E-002     2.2719301341567189E-005
   7.3600000000000027E-002     1.2420065104379319E-005
   7.4700000000000016E-002     1.3003468666283879E-006
   7.5800000000000006E-002    -1.0573864528851118E-005
   7.6900000000000024E-002    -2.3127020540414378E-005
   7.8000000000000014E-002    -3.6272238503443077E-005
   7.9100000000000004E-002    -4.9900118028745055E-005
   8.0200000000000021E-002    -6.3879073422867805E-005
   8.1300000000000011E-002    -7.8068995208013803E-005
   8.2400000000000029E-002    -9.2330148618202657E-005
   8.3500000000000019E-002    -1.0652024502633139E-004
   8.4600000000000009E-002    -1.2048327334923670E-004
   8.5700000000000026E-002    -1.3405253412202001E-004
   8.6800000000000016E-002    -1.4705471403431147E-004
   8.7900000000000006E-002    -1.5932232781779021E-004
   8.9000000000000024E-002    -1.7069636669475585E-004
   9.0100000000000013E-002    -1.8102413741871715E-004
   9.1200000000000003E-002    -1.9016164878848940E-004
   9.2300000000000021E-002    -1.9797495042439550E-004
   9.3400000000000011E-002    -2.0434038015082479E-004
   9.4500000000000028E-002    -2.0914355991408229E-004
   9.5600000000000018E-002    -2.1228766127023846E-004
   9.6700000000000008E-002    -2.1370637114159763E-004
   9.7800000000000026E-002    -2.1336377540137619E-004
   9.8900000000000016E-002    -2.1124415798112750E-004
  0.10000000000000001         -2.0733861310873181E-004
  0.10110000000000002         -2.0165312162134796E-004
  0.10220000000000001         -1.9422486366238445E-004
  0.10330000000000003         -1.8513275426812470E-004
  0.10440000000000002         -1.7448241123929620E-004
  0.10550000000000001         -1.6238640819210559E-004
  0.10660000000000003         -1.4896382344886661E-004
  0.10770000000000002         -1.3435570872388780E-004
  0.10880000000000001         -1.1872405593749136E-004
  0.10990000000000003         -1.0224532888969406E-004
  0.11100000000000002         -8.5107334598433226E-005
  0.11210000000000001         -6.7506291088648140E-005
  0.11320000000000002         -4.9639795179245993E-005
  0.11430000000000001         -3.1698280508862808E-005
  0.11540000000000003         -1.3863601452612784E-005
  0.11650000000000002          3.6842304780293489E-006
  0.11760000000000001          2.0758176106028259E-005
  0.11870000000000003          3.7173929740674794E-005
  0.11980000000000002          5.2773048082599416E-005
  0.12090000000000001          6.7428467446006835E-005
  0.12200000000000003          8.1030142609961331E-005
  0.12310000000000001          9.3472903245128691E-005
  0.12420000000000003          1.0465637024026364E-004
  0.12530000000000002          1.1450325109763071E-004
  0.12640000000000001          1.2296989734750241E-004
  0.12750000000000003          1.3003777712583542E-004
  0.12860000000000002          1.3570451119448990E-004
  0.12970000000000001          1.3997695350553840E-004
  0.13080000000000003          1.4287859085015953E-004
  0.13190000000000002          1.4445080887526274E-004
  0.13300000000000001          1.4475107309408486E-004
  0.13410000000000000          1.4384684618562460E-004
  0.13520000000000004          1.4182172890286893E-004
  0.13630000000000003          1.3877595483791083E-004
  0.13740000000000002          1.3481461792252958E-004
  0.13850000000000001          1.3003425556235015E-004
  0.13960000000000000          1.2452898954506963E-004
  0.14070000000000005          1.1840288061648607E-004
  0.14180000000000004          1.1177592386957258E-004
  0.14290000000000003          1.0476773604750633E-004
  0.14400000000000002          9.7479678515810519E-005
  0.14510000000000001          8.9998429757542908E-005
  0.14620000000000000          8.2411366747692227E-005
  0.14730000000000004          7.4810857768170536E-005
  0.14840000000000003          6.7282664531376213E-005
  0.14950000000000002          5.9896225138800219E-005
  0.15060000000000001          5.2710929594468325E-005
  0.15170000000000000          4.5785338443238288E-005
  0.15280000000000005          3.9171420212369412E-005
  0.15390000000000004          3.2904565159697086E-005
  0.15500000000000003          2.7004465664504096E-005
  0.15610000000000002          2.1489942810148932E-005
  0.15720000000000001          1.6387843061238527E-005
  0.15830000000000000          1.1718962014128920E-005
  0.15940000000000004          7.4827130447374657E-006
  0.16050000000000003          3.6612882468034513E-006
  0.16160000000000002          2.3868756215961184E-007
  0.16270000000000001         -2.7883570510311984E-006
  0.16380000000000000         -5.4247607295110356E-006
  0.16490000000000005         -7.6891565186087973E-006
  0.16600000000000004         -9.6106068667722866E-006
  0.16710000000000003         -1.1211779565201141E-005
  0.16820000000000002         -1.2511522072600201E-005
  0.16930000000000001         -1.3533384844777174E-005
  0.17040000000000000         -1.4309151083580218E-005
  0.17150000000000004         -1.4866737728880253E-005
  0.17260000000000003         -1.5221084140648600E-005
  0.17370000000000002         -1.5385701772174798E-005
  0.17480000000000001         -1.5387251551146619E-005
  0.17590000000000000         -1.5260775398928672E-005
  0.17700000000000005         -1.5030789654701948E-005
  0.17810000000000004         -1.4703812666994054E-005
  0.17920000000000003         -1.4283934433478862E-005
  0.18030000000000002         -1.3789777767669875E-005
  0.18140000000000001         -1.3248088180262130E-005
  0.18250000000000000         -1.2674869140028022E-005
  0.18360000000000004         -1.2072889148839749E-005
  0.18470000000000003         -1.1445807103882544E-005
  0.18580000000000002         -1.0807163562276401E-005
  0.18690000000000001         -1.0170959285460413E-005
  0.18800000000000000         -9.5396135293412954E-006
  0.18910000000000005         -8.9095137809636071E-006
  0.19020000000000004         -8.2865171862067655E-006
  0.19130000000000003         -7.6852620622958057E-006
  0.19240000000000002         -7.1130361902760342E-006
  0.19350000000000001         -6.5627864387352020E-006
  0.19460000000000005         -6.0261918406467885E-006
  0.19570000000000004         -5.5087180044210982E-006
  0.19680000000000003         -5.0236062634212431E-006
  0.19790000000000002         -4.5740644054603763E-006
  0.19900000000000001         -4.1506941670377273E-006
  0.20010000000000000         -3.7477536807273282E-006
  0.20120000000000005         -3.3730491395544959E-006
  0.20230000000000004         -3.0356668503372930E-006
  0.20340000000000003         -2.7317169042362366E-006
  0.20450000000000002         -2.4499277060385793E-006
  0.20560000000000000         -2.1885598471271805E-006
  0.20670000000000005         -1.9584847450460074E-006
  0.20780000000000004         -1.7663949165580561E-006
  0.20890000000000003         -1.6048014686020906E-006
