  -4.80000019       0.00000000
  -4.76000023       0.00000000
  -4.71999979       0.00000000
  -4.67999983       0.00000000
  -4.63999987       0.00000000
  -4.59999990       0.00000000
  -4.55999994       0.00000000
  -4.51999998       0.00000000
  -4.48000002       0.00000000
  -4.44000006       0.00000000
  -4.40000010      -1.44607552E-32
  -4.36000013      -2.63586835E-31
  -4.32000017      -2.48215243E-30
  -4.28000021      -1.60684488E-29
  -4.23999977      -8.03034666E-29
  -4.19999981      -3.29942518E-28
  -4.15999985      -1.15924988E-27
  -4.11999989      -3.57754006E-27
  -4.07999992      -9.88585387E-27
  -4.03999996      -2.48111022E-26
  -4.00000000      -5.71573360E-26
  -3.96000004      -1.21782744E-25
  -3.92000008      -2.41140407E-25
  -3.88000011      -4.44529382E-25
  -3.83999991      -7.61396318E-25
  -3.79999995      -1.20254193E-24
  -3.75999999      -1.72066735E-24
  -3.72000003      -2.14151419E-24
  -3.68000007      -2.06315999E-24
  -3.64000010      -7.40044911E-25
  -3.59999990       2.99392514E-24
  -3.55999994       1.06515234E-23
  -3.51999998       2.36919195E-23
  -3.48000002       4.25836425E-23
  -3.44000006       6.51792032E-23
  -3.40000010       8.44855073E-23
  -3.35999990       8.63978639E-23
  -3.31999993       4.86951657E-23
  -3.27999997      -5.65872205E-23
  -3.24000001      -2.54767161E-22
  -3.20000005      -5.51870176E-22
  -3.16000009      -9.09578586E-22
  -3.11999989      -1.21599852E-21
  -3.07999992      -1.26308349E-21
  -3.03999996      -7.49133062E-22
  -3.00000000       6.69632948E-22
  -2.96000004       3.25551592E-21
  -2.92000008       6.98418237E-21
  -2.88000011       1.12782417E-20
  -2.83999991       1.47468079E-20
  -2.79999995       1.50548939E-20
  -2.75999999       9.09509721E-21
  -2.72000003      -6.35343979E-21
  -2.68000007      -3.33516476E-20
  -2.64000010      -7.09437139E-20
  -2.59999990      -1.13016201E-19
  -2.55999994      -1.46522509E-19
  -2.51999998      -1.51070632E-19
  -2.48000002      -1.01078750E-19
  -2.44000006       2.84140999E-20
  -2.40000010       2.51816345E-19
  -2.35999990       5.59695373E-19
  -2.31999993       9.04680302E-19
  -2.27999997       1.19114318E-18
  -2.24000001       1.27496129E-18
  -2.20000005       9.80226190E-19
  -2.16000009       1.38263278E-19
  -2.11999989      -1.34999236E-18
  -2.07999992      -3.43454386E-18
  -2.03999996      -5.83572158E-18
  -2.00000000      -7.98836690E-18
  -1.96000004      -9.04410000E-18
  -1.91999996      -7.96565169E-18
  -1.88000000      -3.73739846E-18
  -1.84000003       4.30682546E-18
  -1.79999995       1.60735470E-17
  -1.75999999       3.02966645E-17
  -1.72000003       4.42450969E-17
  -1.67999995       5.37039932E-17
  -1.63999999       5.33810917E-17
  -1.60000002       3.78429969E-17
  -1.55999994       2.98501131E-18
  -1.51999998      -5.21135102E-17
  -1.48000002      -1.23279147E-16
  -1.44000006      -1.99786432E-16
  -1.39999998      -2.63974536E-16
  -1.36000001      -2.92557716E-16
  -1.32000005      -2.60072467E-16
  -1.27999997      -1.44529311E-16
  -1.24000001       6.52230987E-17
  -1.20000005       3.61584204E-16
  -1.15999997       7.11551827E-16
  -1.12000000       1.05359877E-15
  -1.08000004       1.30038383E-15
  -1.03999996       1.34907594E-15
  -1.00000000       1.09987440E-15
 -0.959999979       4.81487409E-16
 -0.920000017      -5.19887171E-16
 -0.879999995      -1.83374226E-15
 -0.839999974      -3.28792017E-15
 -0.800000012      -4.60853305E-15
 -0.759999990      -5.44368593E-15
 -0.720000029      -5.41426552E-15
 -0.680000007      -4.18984847E-15
 -0.639999986      -1.58119748E-15
 -0.600000024       2.36601756E-15
 -0.560000002       7.29718884E-15
 -0.519999981       1.25179035E-14
 -0.479999989       1.70276865E-14
 -0.439999998       1.96322112E-14
 -0.400000006       1.91346742E-14
 -0.360000014       1.45896326E-14
 -0.319999993       5.58355564E-15
 -0.280000001      -7.51043616E-15
 -0.239999995      -2.33662848E-14
 -0.200000003      -3.96890840E-14
 -0.159999996      -5.33968960E-14
 -0.119999997      -6.10186611E-14
  -7.99999982E-02  -5.92854962E-14
  -3.99999991E-02  -4.58453330E-14
   2.77555756E-16  -1.99857373E-14
   3.99999991E-02   1.67824484E-14
   7.99999982E-02   6.04373119E-14
  0.119999997       1.04588904E-13
  0.159999996       1.41132304E-13
  0.200000003       1.61403836E-13
  0.239999995       1.57727808E-13
  0.280000001       1.25133641E-13
  0.319999993       6.29368722E-14
  0.360000014      -2.41653638E-14
  0.400000006      -1.25813531E-13
  0.439999998      -2.26755368E-13
  0.479999989      -3.08738956E-13
  0.519999981      -3.53388678E-13
  0.560000002      -3.45693309E-13
  0.600000024      -2.77532500E-13
  0.639999986      -1.50542203E-13
  0.680000007       2.23888680E-14
  0.720000029       2.17562323E-13
  0.759999990       4.03140574E-13
  0.800000012       5.43933117E-13
  0.839999974       6.07730988E-13
  0.879999995       5.72192413E-13
  0.920000017       4.30976137E-13
  0.959999979       1.97721356E-13
   1.00000000      -9.33518196E-14
   1.03999996      -3.90984256E-13
   1.08000004      -6.34613130E-13
   1.12000000      -7.65490752E-13
   1.15999997      -7.39516467E-13
   1.20000005      -5.39428962E-13
   1.24000001      -1.83679718E-13
   1.27999997       2.70530831E-13
   1.32000005       7.31860156E-13
   1.36000001       1.08765622E-12
   1.39999998       1.22401926E-12
   1.44000006       1.05041139E-12
   1.48000002       5.24665110E-13
   1.51999998      -3.26670359E-13
   1.55999994      -1.39778098E-12
   1.60000002      -2.50703082E-12
   1.63999999      -3.41663763E-12
   1.67999995      -3.86804738E-12
   1.72000003      -3.62929283E-12
   1.75999999      -2.54753835E-12
   1.79999995      -5.97704395E-13
   1.84000003       2.08295924E-12
   1.88000000       5.18373452E-12
   1.91999996       8.23947941E-12
   1.96000004       1.06822199E-11
   2.00000000       1.19220684E-11
   2.03999996       1.14482868E-11
   2.07999992       8.93602033E-12
   2.11999989       4.34067929E-12
   2.16000009      -2.03894388E-12
   2.20000005      -9.54535149E-12
   2.24000001      -1.72056640E-11
   2.27999997      -2.38359731E-11
   2.31999993      -2.81988669E-11
   2.35999990      -2.91959616E-11
   2.40000010      -2.60684946E-11
   2.44000006      -1.85737484E-11
   2.48000002      -7.10442902E-12
   2.51999998       7.27686314E-12
   2.55999994       2.29056548E-11
   2.59999990       3.76890533E-11
   2.64000010       4.93705181E-11
   2.68000007       5.58551226E-11
   2.72000003       5.55505884E-11
   2.75999999       4.76715924E-11
   2.79999995       3.24543135E-11
   2.83999991       1.12368118E-11
   2.88000011      -1.36227115E-11
   2.92000008      -3.89946513E-11
   2.96000004      -6.13723586E-11
   3.00000000      -7.73651004E-11
   3.03999996      -8.42220182E-11
   3.07999992      -8.03074829E-11
   3.11999989      -6.54481816E-11
   3.16000009      -4.10847224E-11
   3.20000005      -1.01852155E-11
   3.24000001       2.30879534E-11
   3.27999997       5.39284832E-11
   3.31999993       7.75866038E-11
   3.35999990       9.01223887E-11
   3.40000010       8.90971949E-11
   3.44000006       7.40875070E-11
   3.48000002       4.69228753E-11
   3.51999998       1.15840419E-11
   3.55999994      -2.62548195E-11
   3.59999990      -6.00011082E-11
   3.64000010      -8.31437003E-11
   3.68000007      -9.03411790E-11
   3.72000003      -7.84347587E-11
   3.75999999      -4.72182050E-11
   3.79999995       1.81447359E-13
   3.83999991       5.74127100E-11
   3.88000011       1.15532556E-10
   3.92000008       1.64121106E-10
   3.96000004       1.92758046E-10
   4.00000000       1.92674182E-10
   4.03999996       1.58346461E-10
   4.07999992       8.87907595E-11
   4.11999989      -1.16726646E-11
   4.15999985      -1.33350483E-10
   4.19999981      -2.61888067E-10
   4.23999977      -3.79740600E-10
   4.28000021      -4.68270811E-10
   4.32000017      -5.10239628E-10
   4.36000013      -4.92378194E-10
   4.40000010      -4.07691186E-10
   4.44000006      -2.57147942E-10
   4.48000002      -5.04724977E-11
   4.51999998       1.94156788E-10
   4.55999994       4.51554710E-10
   4.59999990       6.92030488E-10
   4.63999987       8.84701756E-10
   4.67999983       1.00125352E-09
   4.71999979       1.01969044E-09
   4.76000023       9.27599220E-10
   4.80000019       7.24470595E-10
   4.84000015       4.22720775E-10
   4.88000011       4.71988837E-11
   4.92000008      -3.66854741E-10
   4.96000004      -7.77238995E-10
   5.00000000      -1.13926857E-09
   5.03999996      -1.41080470E-09
   5.07999992      -1.55725544E-09
   5.11999989      -1.55593816E-09
   5.15999985      -1.39924639E-09
   5.19999981      -1.09619014E-09
   5.23999977      -6.72057299E-10
   5.28000021      -1.66165817E-10
   5.32000017       3.72094244E-10
   5.36000013       8.88514040E-10
   5.40000010       1.33003042E-09
   5.44000006       1.65071168E-09
   5.48000002       1.81705262E-09
   5.51999998       1.81192794E-09
   5.55999994       1.63669822E-09
   5.59999990       1.31117051E-09
   5.63999987       8.71370920E-10
   5.67999983       3.65350444E-10
   5.71999979      -1.52506272E-10
   5.76000023      -6.28000152E-10
   5.80000019      -1.01367215E-09
   5.84000015      -1.27456956E-09
   5.88000011      -1.39246914E-09
   5.92000008      -1.36797151E-09
   5.96000004      -1.22012700E-09
   6.00000000      -9.83556570E-10
   6.03999996      -7.03358094E-10
   6.07999992      -4.28389407E-10
   6.11999989      -2.03770847E-10
   6.15999985      -6.36021444E-11
   6.19999981      -2.49253552E-11
   6.23999977      -8.38682596E-11
   6.28000021      -2.14676305E-10
   6.32000017      -3.72003928E-10
   6.36000013      -4.96422348E-10
   6.40000010      -5.22659360E-10
   6.44000006      -3.89671184E-10
   6.48000002      -5.13149523E-11
   6.51999998       5.13807608E-10
   6.55999994       1.29479016E-09
   6.59999990       2.24443686E-09
   6.63999987       3.27979488E-09
   6.67999983       4.28764491E-09
   6.71999979       5.13478682E-09
   6.76000023       5.68231906E-09
   6.80000019       5.80253756E-09
   6.84000015       5.39661027E-09
   6.88000011       4.41094894E-09
   6.92000008       2.85017254E-09
   6.96000004       7.84826204E-10
   7.00000000      -1.64749014E-09
   7.03999996      -4.24822044E-09
   7.07999992      -6.77101042E-09
   7.11999989      -8.94090935E-09
   7.15999985      -1.04778630E-08
   7.19999981      -1.11221654E-08
   7.23999977      -1.06592521E-08
   7.28000021      -8.94121666E-09
   7.32000017      -5.90276228E-09
   7.36000013      -1.56991264E-09
   7.40000010       3.93937194E-09
   7.44000006       1.04225943E-08
   7.48000002       1.76071033E-08
   7.51999998       2.51696317E-08
   7.55999994       3.27585319E-08
   7.59999990       4.00159763E-08
   7.63999987       4.65972896E-08
   7.67999983       5.21850083E-08
   7.71999979       5.64956970E-08
   7.76000023       5.92783316E-08
   7.80000019       6.03038472E-08
   7.84000015       5.93461813E-08
   7.88000011       5.61557165E-08
   7.92000008       5.04265572E-08
   7.96000004       4.17590051E-08
   8.00000000       2.96187892E-08
   8.03999996       1.32940041E-08
   8.07999992      -8.14966850E-09
   8.11999989      -3.59154377E-08
   8.15999985      -7.15242052E-08
   8.19999981      -1.16866900E-07
   8.23999977      -1.74262055E-07
   8.27999973      -2.46520443E-07
   8.31999969      -3.37019316E-07
   8.35999966      -4.49788104E-07
   8.39999962      -5.89608419E-07
   8.43999958      -7.62130355E-07
   8.47999954      -9.74008117E-07
   8.52000046      -1.23305733E-06
   8.56000042      -1.54843644E-06
   8.60000038      -1.93085589E-06
   8.64000034      -2.39281849E-06
   8.68000031      -2.94889423E-06
   8.72000027      -3.61603202E-06
   8.76000023      -4.41391603E-06
   8.80000019      -5.36536345E-06
   8.84000015      -6.49677668E-06
   8.88000011      -7.83864289E-06
   8.92000008      -9.42609131E-06
   8.96000004      -1.12995085E-05
   9.00000000      -1.35052096E-05
   9.03999996      -1.60961699E-05
   9.07999992      -1.91328236E-05
   9.11999989      -2.26839184E-05
   9.15999985      -2.68274234E-05
   9.19999981      -3.16515143E-05
   9.23999977      -3.72555878E-05
   9.27999973      -4.37513445E-05
   9.31999969      -5.12639017E-05
   9.35999966      -5.99329251E-05
   9.39999962      -6.99137890E-05
   9.43999958      -8.13787192E-05
   9.47999954      -9.45178908E-05
   9.52000046      -1.09540459E-04
   9.56000042      -1.26675513E-04
   9.60000038      -1.46172839E-04
   9.64000034      -1.68303566E-04
   9.68000031      -1.93360480E-04
   9.72000027      -2.21658120E-04
   9.76000023      -2.53532518E-04
   9.80000019      -2.89340533E-04
   9.84000015      -3.29458737E-04
   9.88000011      -3.74281750E-04
   9.92000008      -4.24220052E-04
   9.96000004      -4.79697163E-04
   10.0000000      -5.41146204E-04
   10.0400000      -6.09005627E-04
   10.0799999      -6.83714228E-04
   10.1199999      -7.65705423E-04
   10.1599998      -8.55400867E-04
   10.1999998      -9.53202776E-04
   10.2399998      -1.05948595E-03
   10.2799997      -1.17458880E-03
   10.3199997      -1.29880349E-03
   10.3599997      -1.43236585E-03
   10.3999996      -1.57544401E-03
   10.4399996      -1.72812759E-03
   10.4799995      -1.89041544E-03
   10.5200005      -2.06220360E-03
   10.5600004      -2.24327436E-03
   10.6000004      -2.43328419E-03
   10.6400003      -2.63175229E-03
   10.6800003      -2.83805025E-03
   10.7200003      -3.05139367E-03
   10.7600002      -3.27083305E-03
   10.8000002      -3.49524827E-03
   10.8400002      -3.72334314E-03
   10.8800001      -3.95364314E-03
   10.9200001      -4.18449612E-03
   10.9600000      -4.41407412E-03
   11.0000000      -4.64037852E-03
   11.0400000      -4.86124959E-03
   11.0799999      -5.07437764E-03
   11.1199999      -5.27731935E-03
   11.1599998      -5.46751497E-03
   11.1999998      -5.64231118E-03
   11.2399998      -5.79898572E-03
   11.2799997      -5.93477767E-03
   11.3199997      -6.04691682E-03
   11.3599997      -6.13265997E-03
   11.3999996      -6.18932536E-03
   11.4399996      -6.21433323E-03
   11.4799995      -6.20524259E-03
   11.5200005      -6.15979452E-03
   11.5600004      -6.07594941E-03
   11.6000004      -5.95192891E-03
   11.6400003      -5.78625361E-03
   11.6800003      -5.57777891E-03
   11.7200003      -5.32572856E-03
   11.7600002      -5.02972398E-03
   11.8000002      -4.68981126E-03
   11.8400002      -4.30648122E-03
   11.8800001      -3.88068426E-03
   11.9200001      -3.41384020E-03
   11.9600000      -2.90784170E-03
   12.0000000      -2.36504967E-03
   12.0400000      -1.78828288E-03
   12.0799999      -1.18080014E-03
   12.1199999      -5.46275638E-04
   12.1599998       1.11232868E-04
   12.1999998       7.87321944E-04
   12.2399998       1.47728680E-03
   12.2799997       2.17617094E-03
   12.3199997       2.87882076E-03
   12.3599997       3.57994321E-03
   12.3999996       4.27416759E-03
   12.4399996       4.95610898E-03
   12.4799995       5.62043209E-03
   12.5200005       6.26191543E-03
   12.5600004       6.87551405E-03
   12.6000004       7.45642092E-03
   12.6400003       8.00012331E-03
   12.6800003       8.50245450E-03
   12.7200003       8.95964354E-03
   12.7600002       9.36835539E-03
   12.8000002       9.72572714E-03
   12.8400002       1.00293923E-02
   12.8800001       1.02775050E-02
   12.9200001       1.04687493E-02
   12.9600000       1.06023457E-02
   13.0000000       1.06780455E-02
   13.0400000       1.06961206E-02
   13.0799999       1.06573459E-02
   13.1199999       1.05629750E-02
   13.1599998       1.04147075E-02
   13.1999998       1.02146557E-02
   13.2399998       9.96530522E-03
   13.2799997       9.66946874E-03
   13.3199997       9.33024567E-03
   13.3599997       8.95097014E-03
   13.3999996       8.53517000E-03
   13.4399996       8.08651373E-03
   13.4799995       7.60877272E-03
   13.5200005       7.10577238E-03
   13.5600004       6.58135628E-03
   13.6000004       6.03934750E-03
   13.6400003       5.48351696E-03
   13.6800003       4.91755549E-03
   13.7200003       4.34504868E-03
   13.7600002       3.76945641E-03
   13.8000002       3.19409836E-03
   13.8400002       2.62214150E-03
   13.8800001       2.05659121E-03
   13.9200001       1.50028709E-03
   13.9600000       9.55899013E-04
   14.0000000       4.25927719E-04
   14.0400000      -8.72944147E-05
   14.0799999      -5.81601227E-04
   14.1199999      -1.05498999E-03
   14.1599998      -1.50561868E-03
   14.1999998      -1.93180388E-03
   14.2399998      -2.33201962E-03
   14.2799997      -2.70489696E-03
   14.3199997      -3.04922462E-03
   14.3599997      -3.36395251E-03
   14.3999996      -3.64819518E-03
   14.4399996      -3.90123739E-03
   14.4799995      -4.12253896E-03
   14.5200005      -4.31174552E-03
   14.5600004      -4.46869200E-03
   14.6000004      -4.59341193E-03
   14.6400003      -4.68614511E-03
   14.6800003      -4.74734092E-03
   14.7200003      -4.77766385E-03
   14.7600002      -4.77799401E-03
   14.8000002      -4.74942615E-03
   14.8400002      -4.69326368E-03
   14.8800001      -4.61101299E-03
   14.9200001      -4.50437050E-03
   14.9600000      -4.37520677E-03
   15.0000000      -4.22554649E-03
   15.0400000      -4.05754754E-03
   15.0799999      -3.87347466E-03
   15.1199999      -3.67566873E-03
   15.1599998      -3.46651790E-03
   15.1999998      -3.24842450E-03
   15.2399998      -3.02377227E-03
   15.2799997      -2.79489253E-03
   15.3199997      -2.56403279E-03
   15.3599997      -2.33332557E-03
   15.3999996      -2.10476061E-03
   15.4399996      -1.88016088E-03
   15.4799995      -1.66116015E-03
   15.5200005      -1.44918764E-03
   15.5600004      -1.24545605E-03
   15.6000004      -1.05095527E-03
   15.6400003      -8.66451184E-04
   15.6800003      -6.92490721E-04
   15.7200003      -5.29411540E-04
   15.7600002      -3.77356919E-04
   15.8000002      -2.36295426E-04
   15.8400002      -1.06044601E-04
   15.8800001       1.37019515E-05
   15.9200001       1.23344988E-04
   15.9600000       2.23348427E-04
   16.0000000       3.14207573E-04
   16.0400009       3.96417745E-04
   16.0799999       4.70444560E-04
   16.1200008       5.36696636E-04
   16.1599998       5.95502090E-04
   16.2000008       6.47089328E-04
   16.2399998       6.91572961E-04
   16.2800007       7.28946005E-04
   16.3199997       7.59077666E-04
   16.3600006       7.81717827E-04
   16.3999996       7.96508219E-04
   16.4400005       8.02999304E-04
   16.4799995       8.00673093E-04
   16.5200005       7.88970792E-04
   16.5599995       7.67325109E-04
   16.6000004       7.35195237E-04
   16.6399994       6.92104164E-04
   16.6800003       6.37676916E-04
   16.7199993       5.71677869E-04
   16.7600002       4.94046602E-04
   16.7999992       4.04930703E-04
   16.8400002       3.04713671E-04
   16.8799992       1.94037668E-04
   16.9200001       7.38194503E-05
   16.9599991      -5.47411655E-05
   17.0000000      -1.90161198E-04
   17.0400009      -3.30682960E-04
   17.0799999      -4.74291533E-04
   17.1200008      -6.18741091E-04
   17.1599998      -7.61589967E-04
   17.2000008      -9.00243584E-04
   17.2399998      -1.03200471E-03
   17.2800007      -1.15412986E-03
   17.3199997      -1.26389100E-03
   17.3600006      -1.35863991E-03
   17.3999996      -1.43587519E-03
   17.4400005      -1.49330846E-03
   17.4799995      -1.52892992E-03
   17.5200005      -1.54106913E-03
   17.5599995      -1.52845192E-03
   17.6000004      -1.49024883E-03
   17.6399994      -1.42611610E-03
   17.6800003      -1.33622601E-03
   17.7199993      -1.22128695E-03
   17.7600002      -1.08254992E-03
   17.7999992      -9.21804283E-04
   17.8400002      -7.41359720E-04
   17.8799992      -5.44015027E-04
   17.9200001      -3.33015138E-04
   17.9599991      -1.11995796E-04
   18.0000000       1.15082352E-04
   18.0400009       3.44009226E-04
   18.0799999       5.70408825E-04
   18.1200008       7.89829006E-04
   18.1599998       9.97835421E-04
   18.2000008       1.19010790E-03
   18.2399998       1.36253599E-03
   18.2800007       1.51131360E-03
   18.3199997       1.63302792E-03
   18.3600006       1.72474247E-03
   18.3999996       1.78407109E-03
   18.4400005       1.80924125E-03
   18.4799995       1.79914595E-03
   18.5200005       1.75338099E-03
   18.5599995       1.67226885E-03
   18.6000004       1.55686587E-03
   18.6399994       1.40895438E-03
   18.6800003       1.23101950E-03
   18.7199993       1.02620933E-03
   18.7600002       7.98281340E-04
   18.7999992       5.51534467E-04
   18.8400002       2.90729164E-04
   18.8799992       2.09962509E-05
   18.9200001      -2.52262806E-04
   18.9599991      -5.23482624E-04
   19.0000000      -7.87045457E-04
   19.0400009      -1.03739486E-03
   19.0799999      -1.26914971E-03
   19.1200008      -1.47721544E-03
   19.1599998      -1.65689131E-03
   19.2000008      -1.80397020E-03
   19.2399998      -1.91482960E-03
   19.2800007      -1.98651198E-03
   19.3199997      -2.01679347E-03
   19.3600006      -2.00423645E-03
   19.3999996      -1.94822950E-03
   19.4400005      -1.84901024E-03
   19.4799995      -1.70767237E-03
   19.5200005      -1.52615609E-03
   19.5599995      -1.30722183E-03
   19.6000004      -1.05440815E-03
   19.6399994      -7.71974912E-04
   19.6800003      -4.64831421E-04
   19.7199993      -1.38452349E-04
   19.7600002       2.01218092E-04
   19.7999992       5.47871459E-04
   19.8400002       8.94948316E-04
   19.8799992       1.23575737E-03
   19.9200001       1.56359817E-03
   19.9599991       1.87188527E-03
   20.0000000       2.15427275E-03
   20.0400009       2.40477454E-03
   20.0799999       2.61788093E-03
   20.1200008       2.78866896E-03
   20.1599998       2.91290320E-03
   20.2000008       2.98712589E-03
   20.2399998       3.00873676E-03
   20.2800007       2.97605898E-03
   20.3199997       2.88839010E-03
   20.3600006       2.74603907E-03
   20.3999996       2.55034608E-03
   20.4400005       2.30368692E-03
   20.4799995       2.00946117E-03
   20.5200005       1.67206163E-03
   20.5599995       1.29682990E-03
   20.6000004       8.89995194E-04
   20.6399994       4.58597671E-04
   20.6800003       1.03984148E-05
   20.7199993      -4.46224032E-04
   20.7600002      -9.02388361E-04
   20.7999992      -1.34883553E-03
   20.8400002      -1.77606184E-03
   20.8799992      -2.17445847E-03
   20.9200001      -2.53445562E-03
   20.9599991      -2.84666917E-03
   21.0000000      -3.10204760E-03
   21.0400009      -3.29201808E-03
   21.0799999      -3.40862642E-03
   21.1200008      -3.44467349E-03
   21.1599998      -3.39384237E-03
   21.2000008      -3.25081497E-03
   21.2399998      -3.01137753E-03
   21.2800007      -2.67251255E-03
   21.3199997      -2.23247427E-03
   21.3600006      -1.69084885E-03
   21.3999996      -1.04859611E-03
   21.4400005      -3.08072864E-04
   21.4799995       5.26963559E-04
   21.5200005       1.45137019E-03
   21.5599995       2.45865388E-03
   21.6000004       3.54102580E-03
   21.6399994       4.68947412E-03
   21.6800003       5.89385442E-03
   21.7199993       7.14299781E-03
   21.7600002       8.42483435E-03
   21.7999992       9.72652901E-03
   21.8400002       1.10346302E-02
   21.8799992       1.23352278E-02
   21.9200001       1.36141190E-02
   21.9599991       1.48569774E-02
   22.0000000       1.60495285E-02
   22.0400009       1.71777271E-02
   22.0799999       1.82279218E-02
   22.1200008       1.91870313E-02
   22.1599998       2.00426970E-02
   22.2000008       2.07834356E-02
   22.2399998       2.13987846E-02
   22.2800007       2.18794234E-02
   22.3199997       2.22172849E-02
   22.3600006       2.24056542E-02
   22.3999996       2.24392451E-02
   22.4400005       2.23142561E-02
   22.4799995       2.20284164E-02
   22.5200005       2.15810053E-02
   22.5599995       2.09728535E-02
   22.6000004       2.02063248E-02
   22.6399994       1.92852840E-02
   22.6800003       1.82150416E-02
   22.7199993       1.70022883E-02
   22.7600002       1.56550091E-02
   22.7999992       1.41823832E-02
   22.8400002       1.25946794E-02
   22.8799992       1.09031321E-02
   22.9200001       9.11981612E-03
   22.9599991       7.25751370E-03
   23.0000000       5.32957260E-03
   23.0400009       3.34976730E-03
   23.0799999       1.33215729E-03
   23.1200008      -7.09053187E-04
   23.1599998      -2.75965221E-03
   23.2000008      -4.80555277E-03
   23.2399998      -6.83292001E-03
   23.2800007      -8.82828981E-03
   23.3199997      -1.07786814E-02
   23.3600006      -1.26716979E-02
   23.3999996      -1.44956205E-02
   23.4400005      -1.62394866E-02
   23.4799995      -1.78931672E-02
   23.5200005      -1.94474161E-02
   23.5599995      -2.08939295E-02
   23.6000004      -2.22253781E-02
   23.6399994      -2.34354325E-02
   23.6800003      -2.45187823E-02
   23.7199993      -2.54711434E-02
   23.7600002      -2.62892526E-02
   23.7999992      -2.69708559E-02
   23.8400002      -2.75146943E-02
   23.8799992      -2.79204659E-02
   23.9200001      -2.81888042E-02
   23.9599991      -2.83212326E-02
   24.0000000      -2.83201169E-02
   24.0400009      -2.81886235E-02
   24.0799999      -2.79306602E-02
   24.1200008      -2.75508221E-02
   24.1599998      -2.70543341E-02
   24.2000008      -2.64469907E-02
   24.2399998      -2.57350914E-02
   24.2800007      -2.49253809E-02
   24.3199997      -2.40249857E-02
   24.3600006      -2.30413526E-02
   24.3999996      -2.19821800E-02
   24.4400005      -2.08553672E-02
   24.4799995      -1.96689479E-02
   24.5200005      -1.84310339E-02
   24.5599995      -1.71497557E-02
   24.6000004      -1.58332177E-02
   24.6399994      -1.44894365E-02
   24.6800003      -1.31263006E-02
   24.7199993      -1.17515223E-02
   24.7600002      -1.03725949E-02
   24.7999992      -8.99675582E-03
   24.8400002      -7.63094798E-03
   24.8799992      -6.28179265E-03
   24.9200001      -4.95555904E-03
   24.9599991      -3.65814124E-03
   25.0000000      -2.39503616E-03
   25.0400009      -1.17132731E-03
   25.0799999       8.32842215E-06
   25.1200008       1.13971124E-03
   25.1599998       2.21904484E-03
   25.2000008       3.24299955E-03
   25.2399998       4.20869328E-03
   25.2800007       5.11368876E-03
   25.3199997       5.95598854E-03
   25.3600006       6.73402613E-03
   25.3999996       7.44665787E-03
   25.4400005       8.09315126E-03
   25.4799995       8.67316779E-03
   25.5200005       9.18675028E-03
   25.5599995       9.63430572E-03
   25.6000004       1.00165857E-02
   25.6399994       1.03346696E-02
   25.6800003       1.05899414E-02
   25.7199993       1.07840700E-02
   25.7600002       1.09189888E-02
   25.7999992       1.09968716E-02
   25.8400002       1.10201119E-02
   25.8799992       1.09912995E-02
   25.9200001       1.09131979E-02
   25.9599991       1.07887229E-02
   26.0000000       1.06209163E-02
   26.0400009       1.04129286E-02
   26.0799999       1.01679927E-02
   26.1200008       9.88940429E-03
   26.1599998       9.58050136E-03
   26.2000008       9.24463943E-03
   26.2399998       8.88517685E-03
   26.2800007       8.50545056E-03
   26.3199997       8.10875837E-03
   26.3600006       7.69834174E-03
   26.3999996       7.27736764E-03
   26.4400005       6.84891129E-03
   26.4799995       6.41594222E-03
   26.5200005       5.98130701E-03
   26.5599995       5.54771861E-03
   26.6000004       5.11774095E-03
   26.6399994       4.69378056E-03
   26.6800003       4.27807448E-03
   26.7199993       3.87268281E-03
   26.7600002       3.47948074E-03
   26.7999992       3.10015352E-03
   26.8400002       2.73619057E-03
   26.8799992       2.38888408E-03
   26.9200001       2.05932604E-03
   26.9599991       1.74840866E-03
   27.0000000       1.45682530E-03
   27.0400009       1.18507352E-03
   27.0799999       9.33458970E-04
   27.1200008       7.02100806E-04
   27.1599998       4.90938604E-04
   27.2000008       2.99740641E-04
   27.2399998       1.28113214E-04
   27.2800007      -2.44887378E-05
   27.3199997      -1.58749972E-04
   27.3600006      -2.75482249E-04
   27.3999996      -3.75610864E-04
   27.4400005      -4.60160314E-04
   27.4799995      -5.30239427E-04
   27.5200005      -5.87025890E-04
   27.5599995      -6.31750736E-04
   27.6000004      -6.65682135E-04
   27.6399994      -6.90109679E-04
   27.6800003      -7.06328428E-04
   27.7199993      -7.15623377E-04
   27.7600002      -7.19254429E-04
   27.7999992      -7.18442025E-04
   27.8400002      -7.14353519E-04
   27.8799992      -7.08090258E-04
   27.9200001      -7.00676406E-04
   27.9599991      -6.93048351E-04
   28.0000000      -6.86045794E-04
   28.0400009      -6.80404541E-04
   28.0799999      -6.76750380E-04
   28.1200008      -6.75594958E-04
   28.1599998      -6.77333504E-04
   28.2000008      -6.82243786E-04
   28.2399998      -6.90487388E-04
   28.2800007      -7.02112098E-04
   28.3199997      -7.17056391E-04
   28.3600006      -7.35155074E-04
   28.3999996      -7.56146736E-04
   28.4400005      -7.79681955E-04
   28.4799995      -8.05333024E-04
   28.5200005      -8.32604361E-04
   28.5599995      -8.60943866E-04
   28.6000004      -8.89754505E-04
   28.6399994      -9.18406702E-04
   28.6800003      -9.46250279E-04
   28.7199993      -9.72626905E-04
   28.7600002      -9.96882096E-04
   28.7999992      -1.01837667E-03
   28.8400002      -1.03649800E-03
   28.8799992      -1.05066970E-03
   28.9200001      -1.06036174E-03
   28.9599991      -1.06509821E-03
   29.0000000      -1.06446422E-03
   29.0400009      -1.05811225E-03
   29.0799999      -1.04576617E-03
   29.1200008      -1.02722447E-03
   29.1599998      -1.00236211E-03
   29.2000008      -9.71130736E-04
   29.2399998      -9.33558098E-04
   29.2800007      -8.89746065E-04
   29.3199997      -8.39867454E-04
   29.3600006      -7.84162607E-04
   29.3999996      -7.22934434E-04
   29.4400005      -6.56543300E-04
   29.4799995      -5.85401489E-04