  -4.80000019       0.00000000
  -4.76000023       0.00000000
  -4.71999979       0.00000000
  -4.67999983       0.00000000
  -4.63999987       0.00000000
  -4.59999990       0.00000000
  -4.55999994       0.00000000
  -4.51999998       0.00000000
  -4.48000002       0.00000000
  -4.44000006       0.00000000
  -4.40000010      -1.16394037E-35
  -4.36000013      -2.33767026E-34
  -4.32000017      -2.44205425E-33
  -4.28000021      -1.76493145E-32
  -4.23999977      -9.90519853E-32
  -4.19999981      -4.59462938E-31
  -4.15999985      -1.83109934E-30
  -4.11999989      -6.43562732E-30
  -4.07999992      -2.03211203E-29
  -4.03999996      -5.84391604E-29
  -4.00000000      -1.54629545E-28
  -3.96000004      -3.79355332E-28
  -3.92000008      -8.67835589E-28
  -3.88000011      -1.85875389E-27
  -3.83999991      -3.73689728E-27
  -3.79999995      -7.05964181E-27
  -3.75999999      -1.25260588E-26
  -3.72000003      -2.08212594E-26
  -3.68000007      -3.22475430E-26
  -3.64000010      -4.60589659E-26
  -3.59999990      -5.94798041E-26
  -3.55999994      -6.65476342E-26
  -3.51999998      -5.72044642E-26
  -3.48000002      -1.74430890E-26
  -3.44000006       6.83031086E-26
  -3.40000010       2.11191943E-25
  -3.35999990       4.07531164E-25
  -3.31999993       6.24404804E-25
  -3.27999997       7.84619841E-25
  -3.24000001       7.58076200E-25
  -3.20000005       3.70740245E-25
  -3.16000009      -5.55252616E-25
  -3.11999989      -2.11919633E-24
  -3.07999992      -4.21635386E-24
  -3.03999996      -6.38949841E-24
  -3.00000000      -7.70795596E-24
  -2.96000004      -6.75834887E-24
  -2.92000008      -1.85455657E-24
  -2.88000011       8.43310846E-24
  -2.83999991       2.43911011E-23
  -2.79999995       4.40123359E-23
  -2.75999999       6.18779086E-23
  -2.72000003       6.86006696E-23
  -2.68000007       5.15484630E-23
  -2.64000010      -2.41478153E-24
  -2.59999990      -1.01718710E-22
  -2.55999994      -2.42661768E-22
  -2.51999998      -4.01166694E-22
  -2.48000002      -5.26524138E-22
  -2.44000006      -5.41227395E-22
  -2.40000010      -3.51558071E-22
  -2.35999990       1.27358438E-22
  -2.31999993       9.31408197E-22
  -2.27999997       1.99716842E-21
  -2.24000001       3.11374956E-21
  -2.20000005       3.89684342E-21
  -2.16000009       3.81022372E-21
  -2.11999989       2.25900158E-21
  -2.07999992      -1.23172737E-21
  -2.03999996      -6.76186183E-21
  -2.00000000      -1.37676604E-20
  -1.96000004      -2.07817319E-20
  -1.91999996      -2.53582476E-20
  -1.88000000      -2.42938891E-20
  -1.84000003      -1.42513849E-20
  -1.79999995       7.18265644E-21
  -1.75999999       4.01043430E-20
  -1.72000003       8.08349135E-20
  -1.67999995       1.20850467E-19
  -1.63999999       1.46681612E-19
  -1.60000002       1.41376023E-19
  -1.55999994       8.79385467E-20
  -1.51999998      -2.52496058E-20
  -1.48000002      -1.97667331E-19
  -1.44000006      -4.09956037E-19
  -1.39999998      -6.19434822E-19
  -1.36000001      -7.60422588E-19
  -1.32000005      -7.51826268E-19
  -1.27999997      -5.13492011E-19
  -1.24000001       9.10070249E-21
  -1.20000005       8.14967032E-19
  -1.15999997       1.81888683E-18
  -1.12000000       2.83293747E-18
  -1.08000004       3.56886538E-18
  -1.03999996       3.67088901E-18
  -1.00000000       2.78427671E-18
 -0.959999979       6.57234650E-19
 -0.920000017      -2.73710632E-18
 -0.879999995      -7.08371090E-18
 -0.839999974      -1.16489753E-17
 -0.800000012      -1.52845441E-17
 -0.759999990      -1.65475347E-17
 -0.720000029      -1.39570152E-17
 -0.680000007      -6.37801789E-18
 -0.639999986       6.51431202E-18
 -0.600000024       2.37800381E-17
 -0.560000002       4.28949892E-17
 -0.519999981       5.97099002E-17
 -0.479999989       6.88182638E-17
 -0.439999998       6.44100331E-17
 -0.400000006       4.15936224E-17
 -0.360000014      -1.95995669E-18
 -0.319999993      -6.43391073E-17
 -0.280000001      -1.38092311E-16
 -0.239999995      -2.09788038E-16
 -0.200000003      -2.60887418E-16
 -0.159999996      -2.70231356E-16
 -0.119999997      -2.18160271E-16
  -7.99999982E-02  -9.18880532E-17
  -3.99999991E-02   1.08696403E-16
   2.77555756E-16   3.66040074E-16
   3.99999991E-02   6.42251986E-16
   7.99999982E-02   8.80241033E-16
  0.119999997       1.00979827E-15
  0.159999996       9.58992280E-16
  0.200000003       6.70130804E-16
  0.239999995       1.18215677E-16
  0.280000001      -6.71477693E-16
  0.319999993      -1.61101728E-15
  0.360000014      -2.54723030E-15
  0.400000006      -3.27283811E-15
  0.439999998      -3.55343874E-15
  0.479999989      -3.16961889E-15
  0.519999981      -1.96987655E-15
  0.560000002       7.37309424E-17
  0.600000024       2.81847122E-15
  0.639999986       5.92525974E-15
  0.680000007       8.86668583E-15
  0.720000029       1.09775131E-14
  0.759999990       1.15499668E-14
  0.800000012       9.96732299E-15
  0.839999974       5.85928053E-15
  0.879999995      -7.46769075E-16
  0.920000017      -9.31106558E-15
  0.959999979      -1.87375479E-14
   1.00000000      -2.74298169E-14
   1.03999996      -3.34637882E-14
   1.08000004      -3.48746605E-14
   1.12000000      -3.00320072E-14
   1.15999997      -1.80522118E-14
   1.20000005       8.23608039E-16
   1.24000001       2.49696029E-14
   1.27999997       5.13148009E-14
   1.32000005       7.55453304E-14
   1.36000001       9.25966592E-14
   1.39999998       9.74136407E-14
   1.44000006       8.58988512E-14
   1.48000002       5.59146472E-14
   1.51999998       8.16201964E-15
   1.55999994      -5.32581046E-14
   1.60000002      -1.20780136E-13
   1.63999999      -1.83931510E-13
   1.67999995      -2.30549981E-13
   1.72000003      -2.48582784E-13
   1.75999999      -2.28265079E-13
   1.79999995      -1.64361756E-13
   1.84000003      -5.80788130E-14
   1.88000000       8.17705617E-14
   1.91999996       2.38708088E-13
   1.96000004       3.89875822E-13
   2.00000000       5.08702184E-13
   2.03999996       5.68745843E-13
   2.07999992       5.48262824E-13
   2.11999989       4.34828633E-13
   2.16000009       2.29213133E-13
   2.20000005      -5.23080894E-14
   2.24000001      -3.77890265E-13
   2.27999997      -7.02713224E-13
   2.31999993      -9.74244557E-13
   2.35999990      -1.13971690E-12
   2.40000010      -1.15489964E-12
   2.44000006      -9.92866921E-13
   2.48000002      -6.51250863E-13
   2.51999998      -1.56492888E-13
   2.55999994       4.36110810E-13
   2.59999990       1.04722654E-12
   2.64000010       1.58308024E-12
   2.68000007       1.94890545E-12
   2.72000003       2.06450742E-12
   2.75999999       1.87958438E-12
   2.79999995       1.38614066E-12
   2.83999991       6.25447448E-13
   2.88000011      -3.12417898E-13
   2.92000008      -1.29740543E-12
   2.96000004      -2.17633875E-12
   3.00000000      -2.79595617E-12
   3.03999996      -3.02900175E-12
   3.07999992      -2.79924217E-12
   3.11999989      -2.10089867E-12
   3.16000009      -1.00832927E-12
   3.20000005       3.27070321E-13
   3.24000001       1.69396886E-12
   3.27999997       2.85112190E-12
   3.31999993       3.56681156E-12
   3.35999990       3.66203248E-12
   3.40000010       3.05028659E-12
   3.44000006       1.76640354E-12
   3.48000002      -2.23525744E-14
   3.51999998      -2.02750620E-12
   3.55999994      -3.87427937E-12
   3.59999990      -5.15757749E-12
   3.64000010      -5.51234969E-12
   3.68000007      -4.68807241E-12
   3.72000003      -2.61482914E-12
   3.75999999       5.52008526E-13
   3.79999995       4.41978702E-12
   3.83999991       8.38663947E-12
   3.88000011       1.17112474E-11
   3.92000008       1.36190269E-11
   3.96000004       1.34324444E-11
   4.00000000       1.07071513E-11
   4.03999996       5.35180884E-12
   4.07999992      -2.29119631E-12
   4.11999989      -1.14239677E-11
   4.15999985      -2.08432733E-11
   4.19999981      -2.90658643E-11
   4.23999977      -3.45202755E-11
   4.28000021      -3.57842818E-11
   4.32000017      -3.18368248E-11
   4.36000013      -2.22861903E-11
   4.40000010      -7.53468642E-12
   4.44000006       1.11555340E-11
   4.48000002       3.17201751E-11
   4.51999998       5.14825058E-11
   4.55999994       6.74640691E-11
   4.59999990       7.67850783E-11
   4.63999987       7.71049613E-11
   4.67999983       6.70412614E-11
   4.71999979       4.65003556E-11
   4.76000023       1.68590662E-11
   4.80000019      -1.90484972E-11
   4.84000015      -5.71599955E-11
   4.88000011      -9.26206820E-11
   4.92000008      -1.20384439E-10
   4.96000004      -1.35908951E-10
   5.00000000      -1.35851760E-10
   5.03999996      -1.18664661E-10
   5.07999992      -8.49878640E-11
   5.11999989      -3.77662415E-11
   5.15999985       1.79562840E-11
   5.19999981       7.55638677E-11
   5.23999977       1.27669070E-10
   5.28000021       1.67092409E-10
   5.32000017       1.87892202E-10
   5.36000013       1.86296881E-10
   5.40000010       1.61393968E-10
   5.44000006       1.15454341E-10
   5.48000002       5.38149594E-11
   5.51999998      -1.56964441E-11
   5.55999994      -8.37440534E-11
   5.59999990      -1.40757989E-10
   5.63999987      -1.78330947E-10
   5.67999983      -1.90537711E-10
   5.71999979      -1.74974063E-10
   5.76000023      -1.33339062E-10
   5.80000019      -7.14396806E-11
   5.84000015       1.42467125E-12
   5.88000011       7.36510922E-11
   5.92000008       1.32959019E-10
   5.96000004       1.68242031E-10
   6.00000000       1.71385073E-10
   6.03999996       1.38774159E-10
   6.07999992       7.22507193E-11
   6.11999989      -2.06721272E-11
   6.15999985      -1.27419214E-10
   6.19999981      -2.31762054E-10
   6.23999977      -3.15882903E-10
   6.28000021      -3.62846114E-10
   6.32000017      -3.59154873E-10
   6.36000013      -2.97038366E-10
   6.40000010      -1.76130610E-10
   6.44000006      -4.26583682E-12
   6.48000002       2.02777739E-10
   6.51999998       4.22621188E-10
   6.55999994       6.28603614E-10
   6.59999990       7.92829857E-10
   6.63999987       8.89590956E-10
   6.67999983       8.98736918E-10
   6.71999979       8.08570155E-10
   6.76000023       6.17872697E-10
   6.80000019       3.36777134E-10
   6.84000015      -1.36701813E-11
   6.88000011      -4.03249378E-10
   6.92000008      -7.95441490E-10
   6.96000004      -1.15112886E-09
   7.00000000      -1.43270673E-09
   7.03999996      -1.60813807E-09
   7.07999992      -1.65448677E-09
   7.11999989      -1.56052504E-09
   7.15999985      -1.32811540E-09
   7.19999981      -9.72216418E-10
   7.23999977      -5.19512100E-10
   7.28000021      -5.82618632E-12
   7.32000017       5.27387578E-10
   7.36000013       1.03708953E-09
   7.40000010       1.48279522E-09
   7.44000006       1.83037296E-09
   7.48000002       2.05511119E-09
   7.51999998       2.14374851E-09
   7.55999994       2.09528950E-09
   7.59999990       1.92054528E-09
   7.63999987       1.64048619E-09
   7.67999983       1.28359912E-09
   7.71999979       8.82545537E-10
   7.76000023       4.70478656E-10
   7.80000019       7.74068587E-11
   7.84000015      -2.73013417E-10
   7.88000011      -5.65912872E-10
   7.92000008      -7.96599342E-10
   7.96000004      -9.70720171E-10
   8.00000000      -1.10312792E-09
   8.03999996      -1.21550203E-09
   8.07999992      -1.33289979E-09
   8.11999989      -1.47953583E-09
   8.15999985      -1.67418079E-09
   8.19999981      -1.92565897E-09
   8.23999977      -2.22895524E-09
   8.27999973      -2.56243715E-09
   8.31999969      -2.88664848E-09
   8.35999966      -3.14500825E-09
   8.39999962      -3.26659610E-09
   8.43999958      -3.17100124E-09
   8.47999954      -2.77498335E-09
   8.52000046      -2.00047934E-09
   8.56000042      -7.83288545E-10
   8.60000038       9.18364385E-10
   8.64000034       3.11624482E-09
   8.68000031       5.78630655E-09
   8.72000027       8.86533336E-09
   8.76000023       1.22504016E-08
   8.80000019       1.58012359E-08
   8.84000015       1.93451015E-08
   8.88000011       2.26835244E-08
   8.92000008       2.55997179E-08
   8.96000004       2.78654433E-08
   9.00000000       2.92457738E-08
   9.03999996       2.95004110E-08
   9.07999992       2.83803026E-08
   9.11999989       2.56186272E-08
   9.15999985       2.09157598E-08
   9.19999981       1.39182124E-08
   9.23999977       4.19204493E-09
   9.27999973      -8.80849438E-09
   9.31999969      -2.57759627E-08
   9.35999966      -4.75875659E-08
   9.39999962      -7.53450493E-08
   9.43999958      -1.10416259E-07
   9.47999954      -1.54479011E-07
   9.52000046      -2.09568256E-07
   9.56000042      -2.78128823E-07
   9.60000038      -3.63076225E-07
   9.64000034      -4.67869256E-07
   9.68000031      -5.96597204E-07
   9.72000027      -7.54086955E-07
   9.76000023      -9.46032571E-07
   9.80000019      -1.17915044E-06
   9.84000015      -1.46136472E-06
   9.88000011      -1.80202335E-06
   9.92000008      -2.21214668E-06
   9.96000004      -2.70471060E-06
   10.0000000      -3.29496470E-06
   10.0400000      -4.00078534E-06
   10.0799999      -4.84306565E-06
   10.1199999      -5.84614509E-06
   10.1599998      -7.03827254E-06
   10.1999998      -8.45211889E-06
   10.2399998      -1.01253299E-05
   10.2799997      -1.21011217E-05
   10.3199997      -1.44289406E-05
   10.3599997      -1.71651591E-05
   10.3999996      -2.03738327E-05
   10.4399996      -2.41275229E-05
   10.4799995      -2.85081460E-05
   10.5200005      -3.36078956E-05
   10.5600004      -3.95302050E-05
   10.6000004      -4.63907127E-05
   10.6400003      -5.43182905E-05
   10.6800003      -6.34560347E-05
   10.7200003      -7.39622701E-05
   10.7600002      -8.60114960E-05
   10.8000002      -9.97952739E-05
   10.8400002      -1.15523006E-04
   10.8800001      -1.33422567E-04
   10.9200001      -1.53740839E-04
   10.9600000      -1.76743939E-04
   11.0000000      -2.02717216E-04
   11.0400000      -2.31964994E-04
   11.0799999      -2.64809874E-04
   11.1199999      -3.01591674E-04
   11.1599998      -3.42665968E-04
   11.1999998      -3.88401968E-04
   11.2399998      -4.39180032E-04
   11.2799997      -4.95388289E-04
   11.3199997      -5.57418971E-04
   11.3599997      -6.25663728E-04
   11.3999996      -7.00508594E-04
   11.4399996      -7.82327901E-04
   11.4799995      -8.71477590E-04
   11.5200005      -9.68287990E-04
   11.5600004      -1.07305555E-03
   11.6000004      -1.18603429E-03
   11.6400003      -1.30742649E-03
   11.6800003      -1.43737334E-03
   11.7200003      -1.57594413E-03
   11.7600002      -1.72312628E-03
   11.8000002      -1.87881512E-03
   11.8400002      -2.04280321E-03
   11.8800001      -2.21477053E-03
   11.9200001      -2.39427411E-03
   11.9600000      -2.58073956E-03
   12.0000000      -2.77345278E-03
   12.0400000      -2.97155324E-03
   12.0799999      -3.17402836E-03
   12.1199999      -3.37970862E-03
   12.1599998      -3.58726666E-03
   12.1999998      -3.79521702E-03
   12.2399998      -4.00191825E-03
   12.2799997      -4.20557754E-03
   12.3199997      -4.40425891E-03
   12.3599997      -4.59589297E-03
   12.3999996      -4.77829063E-03
   12.4399996      -4.94915899E-03
   12.4799995      -5.10612130E-03
   12.5200005      -5.24673611E-03
   12.5600004      -5.36852656E-03
   12.6000004      -5.46900230E-03
   12.6400003      -5.54569298E-03
   12.6800003      -5.59617858E-03
   12.7200003      -5.61812147E-03
   12.7600002      -5.60930232E-03
   12.8000002      -5.56765404E-03
   12.8400002      -5.49129723E-03
   12.8800001      -5.37857646E-03
   12.9200001      -5.22809289E-03
   12.9600000      -5.03873825E-03
   13.0000000      -4.80972324E-03
   13.0400000      -4.54060780E-03
   13.0799999      -4.23132256E-03
   13.1199999      -3.88219254E-03
   13.1599998      -3.49395000E-03
   13.1999998      -3.06774792E-03
   13.2399998      -2.60516419E-03
   13.2799997      -2.10820255E-03
   13.3199997      -1.57928618E-03
   13.3599997      -1.02124701E-03
   13.3999996      -4.37305775E-04
   13.4399996       1.68949759E-04
   13.4799995       7.93596322E-04
   13.5200005       1.43241009E-03
   13.5600004       2.08090688E-03
   13.6000004       2.73438822E-03
   13.6400003       3.38799017E-03
   13.6800003       4.03673574E-03
   13.7200003       4.67559183E-03
   13.7600002       5.29952440E-03
   13.8000002       5.90355787E-03
   13.8400002       6.48283400E-03
   13.8800001       7.03266729E-03
   13.9200001       7.54860137E-03
   13.9600000       8.02646298E-03
   14.0000000       8.46240856E-03
   14.0400000       8.85297172E-03
   14.0799999       9.19510145E-03
   14.1199999       9.48619470E-03
   14.1599998       9.72412806E-03
   14.1999998       9.90727823E-03
   14.2399998       1.00345323E-02
   14.2799997       1.01053026E-02
   14.3199997       1.01195164E-02
   14.3599997       1.00776181E-02
   14.3999996       9.98055190E-03
   14.4399996       9.82974004E-03
   14.4799995       9.62706190E-03
   14.5200005       9.37481876E-03
   14.5600004       9.07569937E-03
   14.6000004       8.73273984E-03
   14.6400003       8.34928267E-03
   14.6800003       7.92892743E-03
   14.7200003       7.47548835E-03
   14.7600002       6.99294405E-03
   14.8000002       6.48539141E-03
   14.8400002       5.95699856E-03
   14.8800001       5.41195925E-03
   14.9200001       4.85445093E-03
   14.9600000       4.28859331E-03
   15.0000000       3.71841318E-03
   15.0400000       3.14780767E-03
   15.0799999       2.58051837E-03
   15.1199999       2.02010199E-03
   15.1599998       1.46991131E-03
   15.1999998       9.33074974E-04
   15.2399998       4.12485999E-04
   15.2799997      -8.92099342E-05
   15.3199997      -5.69620752E-04
   15.3599997      -1.02661108E-03
   15.3999996      -1.45830342E-03
   15.4399996      -1.86307612E-03
   15.4799995      -2.23955931E-03
   15.5200005      -2.58662947E-03
   15.5600004      -2.90340325E-03
   15.6000004      -3.18922871E-03
   15.6400003      -3.44367698E-03
   15.6800003      -3.66653409E-03
   15.7200003      -3.85779073E-03
   15.7600002      -4.01763478E-03
   15.8000002      -4.14643995E-03
   15.8400002      -4.24475968E-03
   15.8800001      -4.31331526E-03
   15.9200001      -4.35298961E-03
   15.9600000      -4.36481601E-03
   16.0000000      -4.34997119E-03
   16.0400009      -4.30976599E-03
   16.0799999      -4.24563466E-03
   16.1200008      -4.15912457E-03
   16.1599998      -4.05188743E-03
   16.2000008      -3.92566482E-03
   16.2399998      -3.78227839E-03
   16.2800007      -3.62361525E-03
   16.3199997      -3.45161557E-03
   16.3600006      -3.26825585E-03
   16.3999996      -3.07553355E-03
   16.4400005      -2.87545286E-03
   16.4799995      -2.67000496E-03
   16.5200005      -2.46115262E-03
   16.5599995      -2.25081318E-03
   16.6000004      -2.04083999E-03
   16.6399994      -1.83300732E-03
   16.6800003      -1.62899378E-03
   16.7199993      -1.43036700E-03
   16.7600002      -1.23857148E-03
   16.7999992      -1.05491502E-03
   16.8400002      -8.80559965E-04
   16.8799992      -7.16513663E-04
   16.9200001      -5.63623500E-04
   16.9599991      -4.22572222E-04
   17.0000000      -2.93876859E-04
   17.0400009      -1.77889437E-04
   17.0799999      -7.47999293E-05
   17.1200008       1.53583314E-05
   17.1599998       9.27014553E-05
   17.2000008       1.57485629E-04
   17.2399998       2.10096230E-04
   17.2800007       2.51035410E-04
   17.3199997       2.80908571E-04
   17.3600006       3.00409942E-04
   17.3999996       3.10307427E-04
   17.4400005       3.11427371E-04
   17.4799995       3.04639107E-04
   17.5200005       2.90839758E-04
   17.5599995       2.70939752E-04
   17.6000004       2.45848816E-04
   17.6399994       2.16463013E-04
   17.6800003       1.83652839E-04
   17.7199993       1.48252569E-04
   17.7600002       1.11051013E-04
   17.7999992       7.27834922E-05
   17.8400002       3.41255145E-05
   17.8799992      -4.31222361E-06
   17.9200001      -4.19873613E-05
   17.9599991      -7.84279982E-05
   18.0000000      -1.13233502E-04
   18.0400009      -1.46074031E-04
   18.0799999      -1.76689107E-04
   18.1200008      -2.04884986E-04
   18.1599998      -2.30531325E-04
   18.2000008      -2.53557053E-04
   18.2399998      -2.73945625E-04
   18.2800007      -2.91729695E-04
   18.3199997      -3.06985399E-04
   18.3600006      -3.19826271E-04
   18.3999996      -3.30396695E-04
   18.4400005      -3.38865357E-04
   18.4799995      -3.45418230E-04
   18.5200005      -3.50251648E-04
   18.5599995      -3.53565207E-04
   18.6000004      -3.55554774E-04
   18.6399994      -3.56405624E-04
   18.6800003      -3.56285775E-04
   18.7199993      -3.55339871E-04
   18.7600002      -3.53683456E-04
   18.7999992      -3.51397990E-04
   18.8400002      -3.48526548E-04
   18.8799992      -3.45070497E-04
   18.9200001      -3.40987259E-04
   18.9599991      -3.36188969E-04
   19.0000000      -3.30542593E-04
   19.0400009      -3.23871034E-04
   19.0799999      -3.15955869E-04
   19.1200008      -3.06541129E-04
   19.1599998      -2.95338774E-04
   19.2000008      -2.82035326E-04
   19.2399998      -2.66299961E-04
   19.2800007      -2.47793971E-04
   19.3199997      -2.26181350E-04
   19.3600006      -2.01140589E-04
   19.3999996      -1.72377258E-04
   19.4400005      -1.39637326E-04
   19.4799995      -1.02720922E-04
   19.5200005      -6.14960809E-05
   19.5599995      -1.59123192E-05
   19.6000004       3.39866056E-05
   19.6399994       8.80509833E-05
   19.6800003       1.46015082E-04
   19.7199993       2.07489022E-04
   19.7600002       2.71953177E-04
   19.7999992       3.38755286E-04
   19.8400002       4.07111016E-04
   19.8799992       4.76107583E-04
   19.9200001       5.44711656E-04
   19.9599991       6.11780328E-04
   20.0000000       6.76076685E-04
   20.0400009       7.36288435E-04
   20.0799999       7.91050494E-04
   20.1200008       8.38970591E-04
   20.1599998       8.78657680E-04
   20.2000008       9.08752321E-04
   20.2399998       9.27959569E-04
   20.2800007       9.35081334E-04
   20.3199997       9.29050089E-04
   20.3600006       9.08961694E-04
   20.3999996       8.74106307E-04
   20.4400005       8.23997485E-04
   20.4799995       7.58398150E-04
   20.5200005       6.77342352E-04
   20.5599995       5.81153261E-04
   20.6000004       4.70455037E-04
   20.6399994       3.46179848E-04
   20.6800003       2.09568228E-04
   20.7199993       6.21630534E-05
   20.7600002      -9.42031693E-05
   20.7999992      -2.57427542E-04
   20.8400002      -4.25162900E-04
   20.8799992      -5.94850339E-04
   20.9200001      -7.63757678E-04
   20.9599991      -9.29023023E-04
   21.0000000      -1.08770363E-03
   21.0400009      -1.23682863E-03
   21.0799999      -1.37345365E-03
   21.1200008      -1.49471906E-03
   21.1599998      -1.59790681E-03
   21.2000008      -1.68049859E-03
   21.2399998      -1.74023153E-03
   21.2800007      -1.77515042E-03
   21.3199997      -1.78365596E-03
   21.3600006      -1.76454824E-03
   21.3999996      -1.71706395E-03
   21.4400005      -1.64090435E-03
   21.4799995      -1.53625791E-03
   21.5200005      -1.40381232E-03
   21.5599995      -1.24475767E-03
   21.6000004      -1.06078060E-03
   21.6399994      -8.54048412E-04
   21.6800003      -6.27183996E-04
   21.7199993      -3.83231876E-04
   21.7600002      -1.25614941E-04
   21.7999992       1.41916214E-04
   21.8400002       4.15340997E-04
   21.8799992       6.90432964E-04
   21.9200001       9.62828984E-04
   21.9599991       1.22810213E-03
   22.0000000       1.48183678E-03
   22.0400009       1.71970564E-03
   22.0799999       1.93754572E-03
   22.1200008       2.13143369E-03
   22.1599998       2.29775719E-03
   22.2000008       2.43328395E-03
   22.2399998       2.53522256E-03
   22.2800007       2.60127941E-03
   22.3199997       2.62970757E-03
   22.3600006       2.61934544E-03
   22.3999996       2.56964960E-03
   22.4400005       2.48071528E-03
   22.4799995       2.35328800E-03
   22.5200005       2.18876544E-03
   22.5599995       1.98918791E-03
   22.6000004       1.75722083E-03
   22.6399994       1.49612571E-03
   22.6800003       1.20972260E-03
   22.7199993       9.02344589E-04
   22.7600002       5.78782638E-04
   22.7999992       2.44226248E-04
   22.8400002      -9.58046585E-05
   22.8799992      -4.35531139E-04
   22.9200001      -7.68991653E-04
   22.9599991      -1.09012029E-03
   23.0000000      -1.39282807E-03
   23.0400009      -1.67108350E-03
   23.0799999      -1.91899424E-03
   23.1200008      -2.13088561E-03
   23.1599998      -2.30137818E-03
   23.2000008      -2.42546131E-03
   23.2399998      -2.49856152E-03
   23.2800007      -2.51660752E-03
   23.3199997      -2.47608800E-03
   23.3600006      -2.37410399E-03
   23.3999996      -2.20841356E-03
   23.4400005      -1.97746931E-03
   23.4799995      -1.68044853E-03
   23.5200005      -1.31727441E-03
   23.5599995      -8.88630457E-04
   23.6000004      -3.95965501E-04
   23.6399994       1.58509531E-04
   23.6800003       7.71831779E-04
   23.7199993       1.44030689E-03
   23.7600002       2.15953542E-03
   23.7999992       2.92444625E-03
   23.8400002       3.72934132E-03
   23.8799992       4.56793979E-03
   23.9200001       5.43343648E-03
   23.9599991       6.31855801E-03
   24.0000000       7.21563166E-03
   24.0400009       8.11665226E-03
   24.0799999       9.01335664E-03
   24.1200008       9.89729725E-03
   24.1599998       1.07599283E-02
   24.2000008       1.15926759E-02
   24.2399998       1.23870252E-02
   24.2800007       1.31345997E-02
   24.3199997       1.38272429E-02
   24.3600006       1.44570963E-02
   24.3999996       1.50166750E-02
   24.4400005       1.54989464E-02
   24.4799995       1.58973932E-02
   24.5200005       1.62060875E-02
   24.5599995       1.64197441E-02
   24.6000004       1.65337846E-02
   24.6399994       1.65443849E-02
   24.6800003       1.64485052E-02
   24.7199993       1.62439477E-02
   24.7600002       1.59293693E-02
   24.7999992       1.55043043E-02
   24.8400002       1.49691869E-02
   24.8799992       1.43253431E-02
   24.9200001       1.35749988E-02
   24.9599991       1.27212619E-02
   25.0000000       1.17681054E-02
   25.0400009       1.07203359E-02
   25.0799999       9.58356541E-03
   25.1200008       8.36416334E-03
   25.1599998       7.06920912E-03
   25.2000008       5.70643647E-03
   25.2399998       4.28417092E-03
   25.2800007       2.81126401E-03
   25.3199997       1.29701651E-03
   25.3600006      -2.48893164E-04
   25.3999996      -1.81649299E-03
   25.4400005      -3.39559605E-03
   25.4799995      -4.97588934E-03
   25.5200005      -6.54701563E-03
   25.5599995      -8.09866004E-03
   25.6000004      -9.62063763E-03
   25.6399994      -1.11029763E-02
   25.6800003      -1.25359986E-02
   25.7199993      -1.39104025E-02
   25.7600002      -1.52173331E-02
   25.7999992      -1.64484642E-02
   25.8400002      -1.75960530E-02
   25.8799992      -1.86530109E-02
   25.9200001      -1.96129549E-02
   25.9599991      -2.04702616E-02
   26.0000000      -2.12200992E-02
   26.0400009      -2.18584761E-02
   26.0799999      -2.23822501E-02
   26.1200008      -2.27891635E-02
   26.1599998      -2.30778493E-02
   26.2000008      -2.32478343E-02
   26.2399998      -2.32995246E-02
   26.2800007      -2.32342090E-02
   26.3199997      -2.30540261E-02
   26.3600006      -2.27619335E-02
   26.3999996      -2.23616846E-02
   26.4400005      -2.18577702E-02
   26.4799995      -2.12553814E-02
   26.5200005      -2.05603428E-02
   26.5599995      -1.97790638E-02
   26.6000004      -1.89184602E-02
   26.6399994      -1.79858953E-02
   26.6800003      -1.69891007E-02
   26.7199993      -1.59361046E-02
   26.7600002      -1.48351490E-02
   26.7999992      -1.36946198E-02
   26.8400002      -1.25229573E-02
   26.8799992      -1.13285938E-02
   26.9200001      -1.01198647E-02
   26.9599991      -8.90494604E-03
   27.0000000      -7.69177871E-03
   27.0400009      -6.48800423E-03
   27.0799999      -5.30090556E-03
   27.1200008      -4.13735211E-03
   27.1599998      -3.00374790E-03
   27.2000008      -1.90599042E-03
   27.2399998      -8.49434291E-04
   27.2800007       1.61140109E-04
   27.3199997       1.12154766E-03
   27.3600006       2.02821288E-03
   27.3999996       2.87817838E-03
   27.4400005       3.66910524E-03
   27.4799995       4.39926609E-03
   27.5200005       5.06753055E-03
   27.5599995       5.67334797E-03
   27.6000004       6.21671788E-03
   27.6399994       6.69816136E-03
   27.6800003       7.11868517E-03
   27.7199993       7.47973984E-03
   27.7600002       7.78317824E-03
   27.7999992       8.03120807E-03
   27.8400002       8.22634529E-03
   27.8799992       8.37136433E-03
   27.9200001       8.46924726E-03
   27.9599991       8.52313824E-03
   28.0000000       8.53629317E-03
   28.0400009       8.51203408E-03
   28.0799999       8.45370814E-03
   28.1200008       8.36464111E-03
   28.1599998       8.24810192E-03
   28.2000008       8.10727291E-03
   28.2399998       7.94521533E-03
   28.2800007       7.76484469E-03
   28.3199997       7.56890746E-03
   28.3600006       7.35996943E-03
   28.3999996       7.14039896E-03
   28.4400005       6.91235671E-03
   28.4799995       6.67779380E-03
   28.5200005       6.43845275E-03
   28.5599995       6.19586697E-03
   28.6000004       5.95136685E-03
   28.6399994       5.70609234E-03
   28.6800003       5.46099991E-03
   28.7199993       5.21687884E-03
   28.7600002       4.97436523E-03
   28.7999992       4.73395921E-03
   28.8400002       4.49604262E-03
   28.8799992       4.26089298E-03
   28.9200001       4.02870867E-03
   28.9599991       3.79961915E-03
   29.0000000       3.57370707E-03
   29.0400009       3.35102179E-03
   29.0799999       3.13159474E-03
   29.1200008       2.91545340E-03
   29.1599998       2.70263362E-03
   29.2000008       2.49318918E-03
   29.2399998       2.28720112E-03
   29.2800007       2.08478398E-03
   29.3199997       1.88609026E-03
   29.3600006       1.69131451E-03
   29.3999996       1.50069315E-03
   29.4400005       1.31450442E-03
   29.4799995       1.13306532E-03