  -4.80000019       0.00000000
  -4.76000023       0.00000000
  -4.71999979       0.00000000
  -4.67999983       0.00000000
  -4.63999987       0.00000000
  -4.59999990       0.00000000
  -4.55999994       0.00000000
  -4.51999998       0.00000000
  -4.48000002       0.00000000
  -4.44000006       0.00000000
  -4.40000010       0.00000000
  -4.36000013       0.00000000
  -4.32000017       0.00000000
  -4.28000021       0.00000000
  -4.23999977       0.00000000
  -4.19999981       0.00000000
  -4.15999985       0.00000000
  -4.11999989       0.00000000
  -4.07999992      -0.00000000
  -4.03999996      -1.40129846E-45
  -4.00000000      -9.80908925E-45
  -3.96000004      -5.46506401E-44
  -3.92000008      -2.64845410E-43
  -3.88000011      -1.22193226E-42
  -3.83999991      -5.06709525E-42
  -3.79999995      -1.94262006E-41
  -3.75999999      -6.91218493E-41
  -3.72000003      -2.29213192E-40
  -3.68000007      -7.12392113E-40
  -3.64000010      -2.08462765E-39
  -3.59999990      -5.76720358E-39
  -3.55999994      -1.51365948E-38
  -3.51999998      -3.77995749E-38
  -3.48000002      -9.00347492E-38
  -3.44000006      -2.04970438E-37
  -3.40000010      -4.46748883E-37
  -3.35999990      -9.33493738E-37
  -3.31999993      -1.87186982E-36
  -3.27999997      -3.60455219E-36
  -3.24000001      -6.66773629E-36
  -3.20000005      -1.18473810E-35
  -3.16000009      -2.02087912E-35
  -3.11999989      -3.30540230E-35
  -3.07999992      -5.17377538E-35
  -3.03999996      -7.72509633E-35
  -3.00000000      -1.09475683E-34
  -2.96000004      -1.46042752E-34
  -2.92000008      -1.80811671E-34
  -2.88000011      -2.02161955E-34
  -2.83999991      -1.91549778E-34
  -2.79999995      -1.23126008E-34
  -2.75999999       3.44326574E-35
  -2.72000003       3.12489217E-34
  -2.68000007       7.32095953E-34
  -2.64000010       1.28805886E-33
  -2.59999990       1.92819534E-33
  -2.55999994       2.53094862E-33
  -2.51999998       2.88771428E-33
  -2.48000002       2.69970737E-33
  -2.44000006       1.60188931E-33
  -2.40000010      -7.73199042E-34
  -2.35999990      -4.68279738E-33
  -2.31999993      -1.01135846E-32
  -2.27999997      -1.65916340E-32
  -2.24000001      -2.30034987E-32
  -2.20000005      -2.74941076E-32
  -2.16000009      -2.75268157E-32
  -2.11999989      -2.01951619E-32
  -2.07999992      -2.85246580E-33
  -2.03999996       2.59348790E-32
  -2.00000000       6.52060176E-32
  -1.96000004       1.10424752E-31
  -1.91999996       1.52667529E-31
  -1.88000000       1.78651279E-31
  -1.84000003       1.72081558E-31
  -1.79999995       1.16658022E-31
  -1.75999999       7.40002530E-34
  -1.72000003      -1.76848353E-31
  -1.67999995      -4.01031512E-31
  -1.63999999      -6.36474284E-31
  -1.60000002      -8.27453795E-31
  -1.55999994      -9.03538843E-31
  -1.51999998      -7.92112040E-31
  -1.48000002      -4.37101086E-31
  -1.44000006       1.78967369E-31
  -1.39999998       1.01480192E-30
  -1.36000001       1.95888817E-30
  -1.32000005       2.83350863E-30
  -1.27999997       3.41855574E-30
  -1.24000001       3.49435275E-30
  -1.20000005       2.89569285E-30
  -1.15999997       1.56229613E-30
  -1.12000000      -4.33244571E-31
  -1.08000004      -2.89690332E-30
  -1.03999996      -5.57025997E-30
  -1.00000000      -8.21999991E-30
 -0.959999979      -1.07225683E-29
 -0.920000017      -1.30862411E-29
 -0.879999995      -1.53479780E-29
 -0.839999974      -1.73067495E-29
 -0.800000012      -1.81159155E-29
 -0.759999990      -1.58534308E-29
 -0.720000029      -7.29855377E-30
 -0.680000007       1.17711687E-29
 -0.639999986       4.54457085E-29
 -0.600000024       9.55317044E-29
 -0.560000002       1.58523209E-28
 -0.519999981       2.22319290E-28
 -0.479999989       2.63889549E-28
 -0.439999998       2.49569537E-28
 -0.400000006       1.39810104E-28
 -0.360000014      -1.00278562E-28
 -0.319999993      -4.84564841E-28
 -0.280000001      -9.85887487E-28
 -0.239999995      -1.51732185E-27
 -0.200000003      -1.92236216E-27
 -0.159999996      -1.98319400E-27
 -0.119999997      -1.45548381E-27
  -7.99999982E-02  -1.33858547E-28
  -3.99999991E-02   2.05590556E-27
   2.77555756E-16   4.95351416E-27
   3.99999991E-02   8.07773152E-27
   7.99999982E-02   1.05953256E-26
  0.119999997       1.13864537E-26
  0.159999996       9.23815824E-27
  0.200000003       3.17255878E-27
  0.239999995      -7.12413196E-27
  0.280000001      -2.08556288E-26
  0.319999993      -3.57852452E-26
  0.360000014      -4.81827674E-26
  0.400000006      -5.32029981E-26
  0.439999998      -4.57884144E-26
  0.479999989      -2.20682113E-26
  0.519999981       1.89427474E-26
  0.560000002       7.37275010E-26
  0.600000024       1.33264442E-25
  0.639999986       1.83219798E-25
  0.680000007       2.05804812E-25
  0.720000029       1.83454608E-25
  0.759999990       1.03987706E-25
  0.800000012      -3.37048803E-26
  0.839999974      -2.14962452E-25
  0.879999995      -4.07501335E-25
  0.920000017      -5.64133711E-25
  0.959999979      -6.31052486E-25
   1.00000000      -5.61303081E-25
   1.03999996      -3.31217229E-25
   1.08000004       4.42925708E-26
   1.12000000       5.03060051E-25
   1.15999997       9.39147092E-25
   1.20000005       1.22231078E-24
   1.24000001       1.23344437E-24
   1.27999997       9.10416088E-25
   1.32000005       2.92559642E-25
   1.36000001      -4.52919115E-25
   1.39999998      -1.04076510E-24
   1.44000006      -1.12782231E-24
   1.48000002      -4.26236979E-25
   1.51999998       1.14512370E-24
   1.55999994       3.30742458E-24
   1.60000002       5.32265673E-24
   1.63999999       6.01467983E-24
   1.67999995       3.96963801E-24
   1.72000003      -2.05691458E-24
   1.75999999      -1.25545233E-23
   1.79999995      -2.65999858E-23
   1.84000003      -4.13130716E-23
   1.88000000      -5.16749331E-23
   1.91999996      -5.09697009E-23
   1.96000004      -3.20480612E-23
   2.00000000       1.05518871E-23
   2.03999996       7.78387167E-23
   2.07999992       1.63486879E-22
   2.11999989       2.51675760E-22
   2.16000009       3.16690646E-22
   2.20000005       3.25322198E-22
   2.24000001       2.42784628E-22
   2.27999997       4.21845515E-23
   2.31999993      -2.83442520E-22
   2.35999990      -7.08745504E-22
   2.40000010      -1.16669433E-21
   2.44000006      -1.54638507E-21
   2.48000002      -1.70209031E-21
   2.51999998      -1.47640844E-21
   2.55999994      -7.37762762E-22
   2.59999990       5.71251214E-22
   2.64000010       2.38285006E-21
   2.68000007       4.46285509E-21
   2.72000003       6.39482951E-21
   2.75999999       7.60519629E-21
   2.79999995       7.44105103E-21
   2.83999991       5.30364015E-21
   2.88000011       8.27233473E-22
   2.92000008      -5.92298841E-21
   2.96000004      -1.42768094E-20
   3.00000000      -2.28629393E-20
   3.03999996      -2.96489578E-20
   3.07999992      -3.21641556E-20
   3.11999989      -2.79262056E-20
   3.16000009      -1.50495625E-20
   3.20000005       7.03962367E-21
   3.24000001       3.69158526E-20
   3.27999997       7.06718558E-20
   3.31999993       1.01843453E-19
   3.35999990       1.21921252E-19
   3.40000010       1.21559619E-19
   3.44000006       9.24672895E-20
   3.48000002       2.97948356E-20
   3.51999998      -6.53549586E-20
   3.55999994      -1.83839211E-19
   3.59999990      -3.07465153E-19
   3.64000010      -4.09703643E-19
   3.68000007      -4.58613385E-19
   3.72000003      -4.22129240E-19
   3.75999999      -2.75376388E-19
   3.79999995      -9.08476715E-21
   3.83999991       3.62420758E-19
   3.88000011       7.95624913E-19
   3.92000008       1.21676510E-18
   3.96000004       1.52720299E-18
   4.00000000       1.61632291E-18
   4.03999996       1.38177885E-18
   4.07999992       7.55192842E-19
   4.11999989      -2.70466967E-19
   4.15999985      -1.61727634E-18
   4.19999981      -3.10903071E-18
   4.23999977      -4.47468522E-18
   4.28000021      -5.37363161E-18
   4.32000017      -5.44481671E-18
   4.36000013      -4.37725451E-18
   4.40000010      -1.99402392E-18
   4.44000006       1.66365150E-18
   4.48000002       6.27018373E-18
   4.51999998       1.11872232E-17
   4.55999994       1.54917661E-17
   4.59999990       1.80733389E-17
   4.63999987       1.78027416E-17
   4.67999983       1.37603712E-17
   4.71999979       5.49611018E-18
   4.76000023      -6.72297826E-18
   4.80000019      -2.17318197E-17
   4.84000015      -3.74120689E-17
   4.88000011      -5.08132484E-17
   4.92000008      -5.84814245E-17
   4.96000004      -5.69936640E-17
   5.00000000      -4.36546884E-17
   5.03999996      -1.72658931E-17
   5.07999992       2.11649396E-17
   5.11999989       6.79319166E-17
   5.15999985       1.16522445E-16
   5.19999981       1.58027271E-16
   5.23999977       1.82145118E-16
   5.28000021       1.78762095E-16
   5.32000017       1.39968065E-16
   5.36000013       6.22473660E-17
   5.40000010      -5.15290806E-17
   5.44000006      -1.90751052E-16
   5.48000002      -3.36800311E-16
   5.51999998      -4.64226624E-16
   5.55999994      -5.43558618E-16
   5.59999990      -5.45676571E-16
   5.63999987      -4.47364527E-16
   5.67999983      -2.37326429E-16
   5.71999979       7.83308276E-17
   5.76000023       4.72312877E-16
   5.80000019       8.95222769E-16
   5.84000015       1.27845584E-15
   5.88000011       1.54140959E-15
   5.92000008       1.60283134E-15
   5.96000004       1.39534024E-15
   6.00000000       8.81317241E-16
   6.03999996       6.76492591E-17
   6.07999992      -9.83636809E-16
   6.11999989      -2.15180673E-15
   6.15999985      -3.26337929E-15
   6.19999981      -4.10897250E-15
   6.23999977      -4.47078431E-15
   6.28000021      -4.15853112E-15
   6.32000017      -3.04960893E-15
   6.36000013      -1.12748429E-15
   6.40000010       1.48881149E-15
   6.44000006       4.53140307E-15
   6.48000002       7.59264833E-15
   6.51999998       1.01604457E-14
   6.55999994       1.16798059E-14
   6.59999990       1.16364328E-14
   6.63999987       9.65312713E-15
   6.67999983       5.58565797E-15
   6.71999979      -3.98260651E-16
   6.76000023      -7.77400571E-15
   6.80000019      -1.56643107E-14
   6.84000015      -2.29030983E-14
   6.88000011      -2.81613857E-14
   6.92000008      -3.01281386E-14
   6.96000004      -2.77280860E-14
   7.00000000      -2.03487739E-14
   7.03999996      -8.04152413E-15
   7.07999992       8.34190996E-15
   7.11999989       2.71128284E-14
   7.15999985       4.58359174E-14
   7.19999981       6.15581804E-14
   7.23999977       7.11679996E-14
   7.28000021       7.18533035E-14
   7.32000017       6.16058040E-14
   7.36000013       3.97004647E-14
   7.40000010       7.06935477E-15
   7.44000006      -3.35095450E-14
   7.48000002      -7.74740040E-14
   7.51999998      -1.18828219E-13
   7.55999994      -1.50782761E-13
   7.59999990      -1.66639163E-13
   7.63999987      -1.60827718E-13
   7.67999983      -1.29967651E-13
   7.71999979      -7.37904949E-14
   7.76000023       4.23851348E-15
   7.80000019       9.67502513E-14
   7.84000015       1.92858235E-13
   7.88000011       2.79141808E-13
   7.92000008       3.41181375E-13
   7.96000004       3.65511061E-13
   8.00000000       3.41768091E-13
   8.03999996       2.64751762E-13
   8.07999992       1.36072428E-13
   8.11999989      -3.49221215E-14
   8.15999985      -2.31197060E-13
   8.19999981      -4.29208345E-13
   8.23999977      -6.01217535E-13
   8.27999973      -7.18584968E-13
   8.31999969      -7.55718025E-13
   8.35999966      -6.94202833E-13
   8.39999962      -5.26553248E-13
   8.43999958      -2.58976922E-13
   8.47999954       8.73839372E-14
   8.52000046       4.77141005E-13
   8.56000042       8.63466850E-13
   8.60000038       1.19292326E-12
   8.64000034       1.41192440E-12
   8.68000031       1.47414676E-12
   8.72000027       1.34798162E-12
   8.76000023       1.02298215E-12
   8.80000019       5.14268641E-13
   8.84000015      -1.36002564E-13
   8.88000011      -8.60707772E-13
   8.92000008      -1.57353471E-12
   8.96000004      -2.17816520E-12
   9.00000000      -2.58001541E-12
   9.03999996      -2.69925206E-12
   9.07999992      -2.48343837E-12
   9.11999989      -1.91802845E-12
   9.15999985      -1.03300615E-12
   9.19999981       9.57102168E-14
   9.23999977       1.35090929E-12
   9.27999973       2.58485160E-12
   9.31999969       3.63539602E-12
   9.35999966       4.34589821E-12
   9.39999962       4.58660063E-12
   9.43999958       4.27476761E-12
   9.47999954       3.39068899E-12
   9.52000046       1.98695075E-12
   9.56000042       1.88993325E-13
   9.60000038      -1.81401021E-12
   9.64000034      -3.78771146E-12
   9.68000031      -5.47900267E-12
   9.72000027      -6.64749375E-12
   9.76000023      -7.09826468E-12
   9.80000019      -6.71159005E-12
   9.84000015      -5.46530963E-12
   9.88000011      -3.44615200E-12
   9.92000008      -8.47476223E-13
   9.96000004       2.04744620E-12
   10.0000000       4.89559348E-12
   10.0400000       7.33481418E-12
   10.0799999       9.03023489E-12
   10.1199999       9.72057764E-12
   10.1599998       9.25803878E-12
   10.1999998       7.63571931E-12
   10.2399998       4.99789533E-12
   10.2799997       1.63037780E-12
   10.3199997      -2.06916819E-12
   10.3599997      -5.63829842E-12
   10.3999996      -8.60895296E-12
   10.4399996      -1.05712583E-11
   10.4799995      -1.12333302E-11
   10.5200005      -1.04682990E-11
   10.5600004      -8.34099803E-12
   10.6000004      -5.10904340E-12
   10.6400003      -1.19636169E-12
   10.6800003       2.85896567E-12
   10.7200003       6.47680217E-12
   10.7600002       9.11791042E-12
   10.8000002       1.03663866E-11
   10.8400002       9.99939975E-12
   10.8800001       8.03294670E-12
   10.9200001       4.73497196E-12
   10.9600000       6.01331539E-13
   11.0000000      -3.70480426E-12
   11.0400000      -7.44403410E-12
   11.0799999      -9.91118299E-12
   11.1199999      -1.05501736E-11
   11.1599998      -9.05638325E-12
   11.1999998      -5.44992306E-12
   11.2399998      -1.06069531E-13
   11.2799997       6.26579908E-12
   11.3199997       1.26965990E-11
   11.3599997       1.80794147E-11
   11.3999996       2.13253911E-11
   11.4399996       2.15339743E-11
   11.4799995       1.81537806E-11
   11.5200005       1.11094545E-11
   11.5600004       8.72461988E-13
   11.6000004      -1.15402583E-11
   11.6400003      -2.46471073E-11
   11.6800003      -3.66586449E-11
   11.7200003      -4.56957597E-11
   11.7600002      -5.00446629E-11
   11.8000002      -4.84162363E-11
   11.8400002      -4.01740516E-11
   11.8800001      -2.54960619E-11
   11.9200001      -5.44128805E-12
   11.9600000       1.80967671E-11
   12.0000000       4.25541928E-11
   12.0400000       6.49665599E-11
   12.0799999       8.23176735E-11
   12.1199999       9.19270007E-11
   12.1599998       9.18269627E-11
   12.1999998       8.10790185E-11
   12.2399998       5.99812838E-11
   12.2799997       3.01317582E-11
   12.3199997      -5.67227515E-12
   12.3599997      -4.36975144E-11
   12.3999996      -7.96773550E-11
   12.4399996      -1.09310755E-10
   12.4799995      -1.28798000E-10
   12.5200005      -1.35345277E-10
   12.5600004      -1.27569746E-10
   12.6000004      -1.05745794E-10
   12.6400003      -7.18507615E-11
   12.6800003      -2.93927729E-11
   12.7200003       1.69683850E-11
   12.7600002       6.19680002E-11
   12.8000002       1.00386859E-10
   12.8400002       1.27723360E-10
   12.8800001       1.40798526E-10
   12.9200001       1.38209041E-10
   12.9600000       1.20559424E-10
   13.0000000       9.04312736E-11
   13.0400000       5.20808882E-11
   13.0799999       1.08935257E-11
   13.1199999      -2.73425605E-11
   13.1599998      -5.72505862E-11
   13.1999998      -7.46595286E-11
   13.2399998      -7.72655342E-11
   13.2799997      -6.50602974E-11
   13.3199997      -4.04517496E-11
   13.3599997      -8.04133236E-12
   13.3999996       2.59333718E-11
   13.4399996       5.44344084E-11
   13.4799995       7.06397787E-11
   13.5200005       6.90110746E-11
   13.5600004       4.62673962E-11
   13.6000004       2.12320200E-12
   13.6400003      -6.03292832E-11
   13.6800003      -1.34673883E-10
   13.7200003      -2.11687431E-10
   13.7600002      -2.80287793E-10
   13.8000002      -3.28821109E-10
   13.8400002      -3.46545931E-10
   13.8800001      -3.25136112E-10
   13.9200001      -2.60010902E-10
   13.9600000      -1.51309104E-10
   14.0000000      -4.35908818E-12
   14.0400000       1.70449765E-10
   14.0799999       3.58418129E-10
   14.1199999       5.41858280E-10
   14.1599998       7.01859681E-10
   14.1999998       8.20310486E-10
   14.2399998       8.81945017E-10
   14.2799997       8.76174799E-10
   14.3199997       7.98472677E-10
   14.3599997       6.51129317E-10
   14.3999996       4.43266701E-10
   14.4399996       1.90083574E-10
   14.4799995      -8.86004672E-11
   14.5200005      -3.70344283E-10
   14.5600004      -6.32399022E-10
   14.6000004      -8.54059712E-10
   14.6400003      -1.01876463E-09
   14.6800003      -1.11567666E-09
   14.7200003      -1.14053700E-09
   14.7600002      -1.09566989E-09
   14.8000002      -9.89124116E-10
   14.8400002      -8.33043079E-10
   14.8800001      -6.41467490E-10
   14.9200001      -4.27848895E-10
   14.9600000      -2.02606376E-10
   15.0000000       2.89364123E-11
   15.0400000       2.67928013E-10
   15.0799999       5.22451804E-10
   15.1199999       8.06946232E-10
   15.1599998       1.14058796E-09
   15.1999998       1.54475932E-09
   15.2399998       2.03983941E-09
   15.2799997       2.64163558E-09
   15.3199997       3.35782424E-09
   15.3599997       4.18474544E-09
   15.3999996       5.10484899E-09
   15.4399996       6.08499429E-09
   15.4799995       7.07564496E-09
   15.5200005       8.01090749E-09
   15.5600004       8.80915962E-09
   15.6000004       9.37393718E-09
   15.6400003       9.59465396E-09
   15.6800003       9.34666566E-09
   15.7200003       8.49028403E-09
   15.7600002       6.86828683E-09
   15.8000002       4.30176117E-09
   15.8400002       5.84023718E-10
   15.8800001      -4.52735449E-09
   15.9200001      -1.13203074E-08
   15.9600000      -2.01398009E-08
   16.0000000      -3.14008233E-08
   16.0400009      -4.56029525E-08
   16.0799999      -6.33463344E-08
   16.1200008      -8.53496616E-08
   16.1599998      -1.12470097E-07
   16.2000008      -1.45726474E-07
   16.2399998      -1.86325948E-07
   16.2800007      -2.35696049E-07
   16.3199997      -2.95521858E-07
   16.3600006      -3.67792040E-07
   16.3999996      -4.54852398E-07
   16.4400005      -5.59469413E-07
   16.4799995      -6.84904535E-07
   16.5200005      -8.35000776E-07
   16.5599995      -1.01428054E-06
   16.6000004      -1.22805761E-06
   16.6399994      -1.48256299E-06
   16.6800003      -1.78508299E-06
   16.7199993      -2.14411330E-06
   16.7600002      -2.56953058E-06
   16.7999992      -3.07277355E-06
   16.8400002      -3.66705035E-06
   16.8799992      -4.36755590E-06
   16.9200001      -5.19171363E-06
   16.9599991      -6.15943236E-06
   17.0000000      -7.29338672E-06
   17.0400009      -8.61931858E-06
   17.0799999      -1.01663518E-05
   17.1200008      -1.19673314E-05
   17.1599998      -1.40591656E-05
   17.2000008      -1.64832018E-05
   17.2399998      -1.92855750E-05
   17.2800007      -2.25175791E-05
   17.3199997      -2.62360209E-05
   17.3600006      -3.05035428E-05
   17.3999996      -3.53889409E-05
   17.4400005      -4.09674103E-05
   17.4799995      -4.73207620E-05
   17.5200005      -5.45375296E-05
   17.5599995      -6.27130721E-05
   17.6000004      -7.19494856E-05
   17.6399994      -8.23554437E-05
   17.6800003      -9.40459067E-05
   17.7199993      -1.07141655E-04
   17.7600002      -1.21768724E-04
   17.7999992      -1.38057527E-04
   17.8400002      -1.56141905E-04
   17.8799992      -1.76157875E-04
   17.9200001      -1.98242225E-04
   17.9599991      -2.22530711E-04
   18.0000000      -2.49156175E-04
   18.0400009      -2.78246356E-04
   18.0799999      -3.09921423E-04
   18.1200008      -3.44291009E-04
   18.1599998      -3.81451595E-04
   18.2000008      -4.21483041E-04
   18.2399998      -4.64445329E-04
   18.2800007      -5.10374724E-04
   18.3199997      -5.59280394E-04
   18.3600006      -6.11140451E-04
   18.3999996      -6.65898027E-04
   18.4400005      -7.23457546E-04
   18.4799995      -7.83680996E-04
   18.5200005      -8.46384501E-04
   18.5599995      -9.11334762E-04
   18.6000004      -9.78246331E-04
   18.6399994      -1.04677898E-03
   18.6800003      -1.11653586E-03
   18.7199993      -1.18706166E-03
   18.7600002      -1.25784252E-03
   18.7999992      -1.32830522E-03
   18.8400002      -1.39781914E-03
   18.8799992      -1.46569707E-03
   18.9200001      -1.53119862E-03
   18.9599991      -1.59353414E-03
   19.0000000      -1.65186904E-03
   19.0400009      -1.70533056E-03
   19.0799999      -1.75301475E-03
   19.1200008      -1.79399434E-03
   19.1599998      -1.82732858E-03
   19.2000008      -1.85207347E-03
   19.2399998      -1.86729280E-03
   19.2800007      -1.87207013E-03
   19.3199997      -1.86552224E-03
   19.3600006      -1.84681150E-03
   19.3999996      -1.81516050E-03
   19.4400005      -1.76986528E-03
   19.4799995      -1.71030895E-03
   19.5200005      -1.63597590E-03
   19.5599995      -1.54646463E-03
   19.6000004      -1.44149980E-03
   19.6399994      -1.32094370E-03
   19.6800003      -1.18480658E-03
   19.7199993      -1.03325513E-03
   19.7600002      -8.66619928E-04
   19.7999992      -6.85400038E-04
   19.8400002      -4.90266364E-04
   19.8799992      -2.82062450E-04
   19.9200001      -6.18031918E-05
   19.9599991       1.69329360E-04
   20.0000000       4.09992295E-04
   20.0400009       6.58690929E-04
   20.0799999       9.13790311E-04
   20.1200008       1.17352884E-03
   20.1599998       1.43603492E-03
   20.2000008       1.69934507E-03
   20.2399998       1.96142448E-03
   20.2800007       2.22018873E-03
   20.3199997       2.47352733E-03
   20.3600006       2.71932874E-03
   20.3999996       2.95550516E-03
   20.4400005       3.18001839E-03
   20.4799995       3.39090568E-03
   20.5200005       3.58630391E-03
   20.5599995       3.76447546E-03
   20.6000004       3.92383011E-03
   20.6399994       4.06294782E-03
   20.6800003       4.18059668E-03
   20.7199993       4.27575130E-03
   20.7600002       4.34760610E-03
   20.7999992       4.39558784E-03
   20.8400002       4.41936404E-03
   20.8799992       4.41884762E-03
   20.9200001       4.39419830E-03
   20.9599991       4.34582029E-03
   21.0000000       4.27435851E-03
   21.0400009       4.18068934E-03
   21.0799999       4.06590663E-03
   21.1200008       3.93130770E-03
   21.1599998       3.77837708E-03
   21.2000008       3.60876112E-03
   21.2399998       3.42425052E-03
   21.2800007       3.22675146E-03
   21.3199997       3.01826047E-03
   21.3600006       2.80083716E-03
   21.3999996       2.57657538E-03
   21.4400005       2.34757597E-03
   21.4799995       2.11591762E-03
   21.5200005       1.88362994E-03
   21.5599995       1.65266835E-03
   21.6000004       1.42488815E-03
   21.6399994       1.20202266E-03
   21.6800003       9.85662336E-04
   21.7199993       7.77237467E-04
   21.7600002       5.78002713E-04
   21.7999992       3.89025256E-04
   21.8400002       2.11175473E-04
   21.8799992       4.51210508E-05
   21.9200001      -1.08675427E-04
   21.9599991      -2.49956211E-04
   22.0000000      -3.78664874E-04
   22.0400009      -4.94939857E-04
   22.0799999      -5.99105202E-04
   22.1200008      -6.91658817E-04
   22.1599998      -7.73258274E-04
   22.2000008      -8.44704977E-04
   22.2399998      -9.06926114E-04
   22.2800007      -9.60955280E-04
   22.3199997      -1.00791256E-03
   22.3600006      -1.04898284E-03
   22.3999996      -1.08539511E-03
   22.4400005      -1.11840060E-03
   22.4799995      -1.14925066E-03
   22.5200005      -1.17917696E-03
   22.5599995      -1.20937068E-03
   22.6000004      -1.24096381E-03
   22.6399994      -1.27501099E-03
   22.6800003      -1.31247356E-03
   22.7199993      -1.35420437E-03
   22.7600002      -1.40093535E-03
   22.7999992      -1.45326566E-03
   22.8400002      -1.51165319E-03
   22.8799992      -1.57640746E-03
   22.9200001      -1.64768391E-03
   22.9599991      -1.72548124E-03
   23.0000000      -1.80964114E-03
   23.0400009      -1.89984811E-03
   23.0799999      -1.99563359E-03
   23.1200008      -2.09638057E-03
   23.1599998      -2.20132992E-03
   23.2000008      -2.30958918E-03
   23.2399998      -2.42014392E-03
   23.2800007      -2.53186701E-03
   23.3199997      -2.64353398E-03
   23.3600006      -2.75383587E-03
   23.3999996      -2.86139525E-03
   23.4400005      -2.96478253E-03
   23.4799995      -3.06253298E-03
   23.5200005      -3.15316441E-03
   23.5599995      -3.23519646E-03
   23.6000004      -3.30716721E-03
   23.6399994      -3.36765312E-03
   23.6800003      -3.41528771E-03
   23.7199993      -3.44877830E-03
   23.7600002      -3.46692489E-03
   23.7999992      -3.46863689E-03
   23.8400002      -3.45294853E-03
   23.8799992      -3.41903395E-03
   23.9200001      -3.36622074E-03
   23.9599991      -3.29400180E-03
   24.0000000      -3.20204627E-03
   24.0400009      -3.09020677E-03
   24.0799999      -2.95852637E-03
   24.1200008      -2.80724419E-03
   24.1599998      -2.63679517E-03
   24.2000008      -2.44781096E-03
   24.2399998      -2.24111765E-03
   24.2800007      -2.01772968E-03
   24.3199997      -1.77884288E-03
   24.3600006      -1.52582407E-03
   24.3999996      -1.26019970E-03
   24.4400005      -9.83640435E-04
   24.4799995      -6.97945594E-04
   24.5200005      -4.05024417E-04
   24.5599995      -1.06876651E-04
   24.6000004       1.94428751E-04
   24.6399994       4.96775727E-04
   24.6800003       7.98024761E-04
   24.7199993       1.09603524E-03
   24.7600002       1.38868962E-03
   24.7999992       1.67391682E-03
   24.8400002       1.94971508E-03
   24.8799992       2.21417286E-03
   24.9200001       2.46549095E-03
   24.9599991       2.70200032E-03
   25.0000000       2.92217964E-03
   25.0400009       3.12467059E-03
   25.0799999       3.30829108E-03
   25.1200008       3.47204506E-03
   25.1599998       3.61513020E-03
   25.2000008       3.73694277E-03
   25.2399998       3.83708091E-03
   25.2800007       3.91534204E-03
   25.3199997       3.97172291E-03
   25.3600006       4.00641048E-03
   25.3999996       4.01977543E-03
   25.4400005       4.01236024E-03
   25.4799995       3.98487085E-03
   25.5200005       3.93815665E-03
   25.5599995       3.87319946E-03
   25.6000004       3.79109476E-03
   25.6399994       3.69303371E-03
   25.6800003       3.58028687E-03
   25.7199993       3.45418439E-03
   25.7600002       3.31609789E-03
   25.7999992       3.16742412E-03
   25.8400002       3.00956704E-03
   25.8799992       2.84392177E-03
   25.9200001       2.67186016E-03
   25.9599991       2.49471818E-03
   26.0000000       2.31378269E-03
   26.0400009       2.13028234E-03
   26.0799999       1.94537884E-03
   26.1200008       1.76016043E-03
   26.1599998       1.57563679E-03
   26.2000008       1.39273598E-03
   26.2399998       1.21230213E-03
   26.2800007       1.03509554E-03
   26.3199997       8.61793989E-04
   26.3600006       6.92993868E-04
   26.3999996       5.29213925E-04
   26.4400005       3.70898022E-04
   26.4799995       2.18420348E-04
   26.5200005       7.20891621E-05
   26.5599995      -6.78481083E-05
   26.6000004      -2.01200543E-04
   26.6399994      -3.27828777E-04
   26.6800003      -4.47641418E-04
   26.7199993      -5.60590008E-04
   26.7600002      -6.66666543E-04
   26.7999992      -7.65899778E-04
   26.8400002      -8.58352461E-04
   26.8799992      -9.44119412E-04
   26.9200001      -1.02332525E-03
   26.9599991      -1.09612290E-03
   27.0000000      -1.16269256E-03
   27.0400009      -1.22323935E-03
   27.0799999      -1.27799320E-03
   27.1200008      -1.32720696E-03
   27.1599998      -1.37115468E-03
   27.2000008      -1.41012971E-03
   27.2399998      -1.44444266E-03
   27.2800007      -1.47441844E-03
   27.3199997      -1.50039268E-03
   27.3600006      -1.52270822E-03
   27.3999996      -1.54171034E-03
   27.4400005      -1.55774236E-03
   27.4799995      -1.57113920E-03
   27.5200005      -1.58222253E-03
   27.5599995      -1.59129431E-03
   27.6000004      -1.59863092E-03
   27.6399994      -1.60447636E-03
   27.6800003      -1.60903740E-03
   27.7199993      -1.61247735E-03
   27.7600002      -1.61491148E-03
   27.7999992      -1.61640323E-03
   27.8400002      -1.61696039E-03
   27.8799992      -1.61653396E-03
   27.9200001      -1.61501707E-03
   27.9599991      -1.61224545E-03
   28.0000000      -1.60800025E-03
   28.0400009      -1.60201092E-03
   28.0799999      -1.59396126E-03
   28.1200008      -1.58349518E-03
   28.1599998      -1.57022593E-03
   28.2000008      -1.55374466E-03
   28.2399998      -1.53363124E-03
   28.2800007      -1.50946632E-03
   28.3199997      -1.48084259E-03
   28.3600006      -1.44737819E-03
   28.3999996      -1.40872900E-03
   28.4400005      -1.36460201E-03
   28.4799995      -1.31476659E-03
   28.5200005      -1.25906593E-03
   28.5599995      -1.19742751E-03
   28.6000004      -1.12987158E-03
   28.6399994      -1.05651759E-03
   28.6800003      -9.77589865E-04
   28.7199993      -8.93419550E-04
   28.7600002      -8.04444950E-04
   28.7999992      -7.11209432E-04
   28.8400002      -6.14356773E-04
   28.8799992      -5.14623476E-04
   28.9200001      -4.12829482E-04
   28.9599991      -3.09865602E-04
   29.0000000      -2.06679528E-04
   29.0400009      -1.04259670E-04
   29.0799999      -3.61765638E-06
   29.1200008       9.42307452E-05
   29.1599998       1.88285179E-04
   29.2000008       2.77580722E-04
   29.2399998       3.61207931E-04
   29.2800007       4.38332005E-04
   29.3199997       5.08211378E-04
   29.3600006       5.70214470E-04
   29.3999996       6.23834436E-04
   29.4400005       6.68702240E-04
   29.4799995       7.04596227E-04
   29.5200005       7.31448934E-04