  -4.80000019       0.00000000
  -4.76000023       0.00000000
  -4.71999979       0.00000000
  -4.67999983       0.00000000
  -4.63999987       0.00000000
  -4.59999990       0.00000000
  -4.55999994       0.00000000
  -4.51999998       0.00000000
  -4.48000002       0.00000000
  -4.44000006       0.00000000
  -4.40000010      -5.73174512E-40
  -4.36000013      -1.19661991E-38
  -4.32000017      -1.41008113E-37
  -4.28000021      -1.22127838E-36
  -4.23999977      -8.48791726E-36
  -4.19999981      -4.92608414E-35
  -4.15999985      -2.44668588E-34
  -4.11999989      -1.05958776E-33
  -4.07999992      -4.06298492E-33
  -4.03999996      -1.39720228E-32
  -4.00000000      -4.35487449E-32
  -3.96000004      -1.24090720E-31
  -3.92000008      -3.25482866E-31
  -3.88000011      -7.89960510E-31
  -3.83999991      -1.78044569E-30
  -3.79999995      -3.73331288E-30
  -3.75999999      -7.28068701E-30
  -3.72000003      -1.31625139E-29
  -3.68000007      -2.18805608E-29
  -3.64000010      -3.28628318E-29
  -3.59999990      -4.28356912E-29
  -3.55999994      -4.31041207E-29
  -3.51999998      -1.56194107E-29
  -3.48000002       7.17950392E-29
  -3.44000006       2.69753331E-28
  -3.40000010       6.48411597E-28
  -3.35999990       1.29086061E-27
  -3.31999993       2.27275179E-27
  -3.27999997       3.62182065E-27
  -3.24000001       5.25358175E-27
  -3.20000005       6.88683736E-27
  -3.16000009       7.95615835E-27
  -3.11999989       7.55801239E-27
  -3.07999992       4.48920904E-27
  -3.03999996      -2.54727173E-27
  -3.00000000      -1.44966704E-26
  -2.96000004      -3.12333821E-26
  -2.92000008      -5.06252287E-26
  -2.88000011      -6.75863360E-26
  -2.83999991      -7.35140957E-26
  -2.79999995      -5.66892764E-26
  -2.75999999      -4.30761311E-27
  -2.72000003       9.33144304E-26
  -2.68000007       2.36281985E-25
  -2.64000010       4.07215472E-25
  -2.59999990       5.63958880E-25
  -2.55999994       6.36367781E-25
  -2.51999998       5.31713303E-25
  -2.48000002       1.53272223E-25
  -2.44000006      -5.65128120E-25
  -2.40000010      -1.61012812E-24
  -2.35999990      -2.83382464E-24
  -2.31999993      -3.90975321E-24
  -2.27999997      -4.32509321E-24
  -2.24000001      -3.43855870E-24
  -2.20000005      -6.29262955E-25
  -2.16000009       4.45504029E-24
  -2.11999989       1.15737822E-23
  -2.07999992       1.95619976E-23
  -2.03999996       2.61099517E-23
  -2.00000000       2.78124840E-23
  -1.96000004       2.06545005E-23
  -1.91999996       1.05120636E-24
  -1.88000000      -3.25613193E-23
  -1.84000003      -7.77909938E-23
  -1.79999995      -1.26474737E-22
  -1.75999999      -1.63707621E-22
  -1.72000003      -1.68609174E-22
  -1.67999995      -1.17682434E-22
  -1.63999999       8.73771526E-24
  -1.60000002       2.17204507E-22
  -1.55999994       4.90436466E-22
  -1.51999998       7.77891624E-22
  -1.48000002       9.91624866E-22
  -1.44000006       1.01207426E-21
  -1.39999998       7.07929885E-22
  -1.36000001      -2.79145689E-23
  -1.32000005      -1.22840239E-21
  -1.27999997      -2.79619742E-21
  -1.24000001      -4.45582365E-21
  -1.20000005      -5.73420261E-21
  -1.15999997      -5.99226680E-21
  -1.12000000      -4.52717484E-21
  -1.08000004      -7.53593698E-22
  -1.03999996       5.54727877E-21
  -1.00000000       1.39494058E-20
 -0.959999979       2.31428495E-20
 -0.920000017       3.08279034E-20
 -0.879999995       3.38469576E-20
 -0.839999974       2.86434131E-20
 -0.800000012       1.20873463E-20
 -0.759999990      -1.73796285E-20
 -0.720000029      -5.84458744E-20
 -0.680000007      -1.05772761E-19
 -0.639999986      -1.49384334E-19
 -0.600000024      -1.75056466E-19
 -0.560000002      -1.66100904E-19
 -0.519999981      -1.06742055E-19
 -0.479999989       1.30654212E-20
 -0.439999998       1.92003458E-19
 -0.400000006       4.12094014E-19
 -0.360000014       6.35345383E-19
 -0.319999993       8.04175479E-19
 -0.280000001       8.47276966E-19
 -0.239999995       6.91895172E-19
 -0.200000003       2.82220325E-19
 -0.159999996      -3.98164008E-19
 -0.119999997      -1.30382059E-18
  -7.99999982E-02  -2.31082293E-18
  -3.99999991E-02  -3.21282471E-18
   2.77555756E-16  -3.73640915E-18
   3.99999991E-02  -3.58015060E-18
   7.99999982E-02  -2.47766422E-18
  0.119999997      -2.78930059E-19
  0.159999996       2.96279738E-18
  0.200000003       6.91778674E-18
  0.239999995       1.09440727E-17
  0.280000001       1.41131439E-17
  0.319999993       1.53155005E-17
  0.360000014       1.34522315E-17
  0.400000006       7.70018296E-18
  0.439999998      -2.18422211E-18
  0.479999989      -1.55801371E-17
  0.519999981      -3.08111444E-17
  0.560000002      -4.51281420E-17
  0.600000024      -5.49350795E-17
  0.639999986      -5.62943060E-17
  0.680000007      -4.56962397E-17
  0.720000029      -2.10111932E-17
  0.759999990       1.75299838E-17
  0.800000012       6.65396261E-17
  0.839999974       1.19106067E-16
  0.879999995       1.65085769E-16
  0.920000017       1.92213640E-16
  0.959999979       1.88059089E-16
   1.00000000       1.42675037E-16
   1.03999996       5.15834462E-17
   1.08000004      -8.14483456E-17
   1.12000000      -2.42513500E-16
   1.15999997      -4.07244732E-16
   1.20000005      -5.42628523E-16
   1.24000001      -6.11226386E-16
   1.27999997      -5.77636977E-16
   1.32000005      -4.16502723E-16
   1.36000001      -1.20828959E-16
   1.39999998       2.91043168E-16
   1.44000006       7.71661626E-16
   1.48000002       1.24559255E-15
   1.51999998       1.61661214E-15
   1.55999994       1.78117921E-15
   1.60000002       1.64716335E-15
   1.63999999       1.15544230E-15
   1.67999995       3.00756227E-16
   1.72000003      -8.52593666E-16
   1.75999999      -2.16471213E-15
   1.79999995      -3.42745487E-15
   1.84000003      -4.38710720E-15
   1.88000000      -4.78177246E-15
   1.91999996      -4.38974740E-15
   1.96000004      -3.08209815E-15
   2.00000000      -8.70178175E-16
   2.03999996       2.06234015E-15
   2.07999992       5.35274594E-15
   2.11999989       8.48501956E-15
   2.16000009       1.08504633E-14
   2.20000005       1.18395072E-14
   2.24000001       1.09541342E-14
   2.27999997       7.92420752E-15
   2.31999993       2.80667056E-15
   2.35999990      -3.95450545E-15
   2.40000010      -1.15268580E-14
   2.44000006      -1.87585780E-14
   2.48000002      -2.43195611E-14
   2.51999998      -2.69025287E-14
   2.55999994      -2.54590287E-14
   2.59999990      -1.94339784E-14
   2.64000010      -8.95604273E-15
   2.68000007       5.05837149E-15
   2.72000003       2.09214699E-14
   2.75999999       3.63286095E-14
   2.79999995       4.86469622E-14
   2.83999991       5.53093473E-14
   2.88000011       5.42608019E-14
   2.92000008       4.43877079E-14
   2.96000004       2.58517945E-14
   3.00000000       2.56538328E-16
   3.03999996      -2.94073508E-14
   3.07999992      -5.90590538E-14
   3.11999989      -8.40494463E-14
   3.16000009      -9.98475730E-14
   3.20000005      -1.02795099E-13
   3.24000001      -9.08077934E-14
   3.27999997      -6.38977058E-14
   3.31999993      -2.44059381E-14
   3.35999990       2.31261018E-14
   3.40000010       7.24634518E-14
   3.44000006       1.16514749E-13
   3.48000002       1.48388558E-13
   3.51999998       1.62508218E-13
   3.55999994       1.55598042E-13
   3.59999990       1.27359142E-13
   3.64000010       8.06916721E-14
   3.68000007       2.13892201E-14
   3.72000003      -4.26799777E-14
   3.75999999      -1.02794428E-13
   3.79999995      -1.50809446E-13
   3.83999991      -1.80545764E-13
   3.88000011      -1.88872477E-13
   3.92000008      -1.76255833E-13
   3.96000004      -1.46627692E-13
   4.00000000      -1.06548302E-13
   4.03999996      -6.37769121E-14
   4.07999992      -2.54965218E-14
   4.11999989       3.46076338E-15
   4.15999985       2.19976591E-14
   4.19999981       3.33832591E-14
   4.23999977       4.48764357E-14
   4.28000021       6.62582375E-14
   4.32000017       1.07406549E-13
   4.36000013       1.75272638E-13
   4.40000010       2.70808983E-13
   4.44000006       3.86515500E-13
   4.48000002       5.05276105E-13
   4.51999998       6.01035010E-13
   4.55999994       6.41610083E-13
   4.59999990       5.93585565E-13
   4.63999987       4.28815729E-13
   4.67999983       1.31665932E-13
   4.71999979      -2.94201404E-13
   4.76000023      -8.20856295E-13
   4.80000019      -1.39426426E-12
   4.84000015      -1.93661797E-12
   4.88000011      -2.35335579E-12
   4.92000008      -2.54468733E-12
   4.96000004      -2.42064550E-12
   5.00000000      -1.91789857E-12
   5.03999996      -1.01593603E-12
   5.07999992       2.50121755E-13
   5.11999989       1.78279472E-12
   5.15999985       3.42382633E-12
   5.19999981       4.96539615E-12
   5.23999977       6.17099514E-12
   5.28000021       6.80450878E-12
   5.32000017       6.66453481E-12
   5.36000013       5.61968397E-12
   5.40000010       3.63976470E-12
   5.44000006       8.17579348E-13
   5.48000002      -2.62335054E-12
   5.51999998      -6.33842328E-12
   5.55999994      -9.89017201E-12
   5.59999990      -1.27937088E-11
   5.63999987      -1.45753600E-11
   5.67999983      -1.48379815E-11
   5.71999979      -1.33246495E-11
   5.76000023      -9.97159300E-12
   5.80000019      -4.94164171E-12
   5.84000015       1.36875244E-12
   5.88000011       8.35296676E-12
   5.92000008       1.52482835E-11
   5.96000004       2.12164748E-11
   6.00000000       2.54426410E-11
   6.03999996       2.72407236E-11
   6.07999992       2.61520788E-11
   6.11999989       2.20232704E-11
   6.15999985       1.50509639E-11
   6.19999981       5.78533315E-12
   6.23999977      -4.91152908E-12
   6.28000021      -1.59498022E-11
   6.32000017      -2.61303063E-11
   6.36000013      -3.42834892E-11
   6.40000010      -3.94117967E-11
   6.44000006      -4.08168638E-11
   6.48000002      -3.81940694E-11
   6.51999998      -3.16807275E-11
   6.55999994      -2.18498778E-11
   6.59999990      -9.64888499E-12
   6.63999987       3.71041045E-12
   6.67999983       1.68963385E-11
   6.71999979       2.86179535E-11
   6.76000023       3.77798903E-11
   6.80000019       4.36102092E-11
   6.84000015       4.57432356E-11
   6.88000011       4.42454164E-11
   6.92000008       3.95802280E-11
   6.96000004       3.25168885E-11
   7.00000000       2.39960760E-11
   7.03999996       1.49727140E-11
   7.07999992       6.25995653E-12
   7.11999989      -1.60061038E-12
   7.15999985      -8.42034775E-12
   7.19999981      -1.43805618E-11
   7.23999977      -1.99780817E-11
   7.28000021      -2.59029673E-11
   7.32000017      -3.28628444E-11
   7.36000013      -4.13779289E-11
   7.40000010      -5.15781931E-11
   7.44000006      -6.30371866E-11
   7.48000002      -7.46761264E-11
   7.51999998      -8.47657222E-11
   7.55999994      -9.10425971E-11
   7.59999990      -9.09429546E-11
   7.63999987      -8.19396287E-11
   7.67999983      -6.19516174E-11
   7.71999979      -2.97799355E-11
   7.76000023       1.44875726E-11
   7.80000019       6.91652083E-11
   7.84000015       1.30812750E-10
   7.88000011       1.94283103E-10
   7.92000008       2.53005311E-10
   7.96000004       2.99507807E-10
   8.00000000       3.26156269E-10
   8.03999996       3.26047411E-10
   8.07999992       2.93970875E-10
   8.11999989       2.27327823E-10
   8.15999985       1.26883407E-10
   8.19999981      -2.76791741E-12
   8.23999977      -1.53125596E-10
   8.27999973      -3.12162157E-10
   8.31999969      -4.65176148E-10
   8.35999966      -5.96078908E-10
   8.39999962      -6.89014901E-10
   8.43999958      -7.30157490E-10
   8.47999954      -7.09483305E-10
   8.52000046      -6.22302598E-10
   8.56000042      -4.70331996E-10
   8.60000038      -2.62127126E-10
   8.64000034      -1.27567288E-11
   8.68000031       2.57316168E-10
   8.72000027       5.24082278E-10
   8.76000023       7.62398755E-10
   8.80000019       9.48714662E-10
   8.84000015       1.06379383E-09
   8.88000011       1.09509457E-09
   8.92000008       1.03848063E-09
   8.96000004       8.99002317E-10
   9.00000000       6.90588753E-10
   9.03999996       4.34622699E-10
   9.07999992       1.57519095E-10
   9.11999989      -1.12434360E-10
   9.15999985      -3.48598317E-10
   9.19999981      -5.29417621E-10
   9.23999977      -6.41308895E-10
   9.27999973      -6.80583812E-10
   9.31999969      -6.54097665E-10
   9.35999966      -5.78468218E-10
   9.39999962      -4.77894446E-10
   9.43999958      -3.80793563E-10
   9.47999954      -3.15645093E-10
   9.52000046      -3.06551451E-10
   9.56000042      -3.69084985E-10
   9.60000038      -5.06973685E-10
   9.64000034      -7.10084380E-10
   9.68000031      -9.54004764E-10
   9.72000027      -1.20132448E-09
   9.76000023      -1.40449719E-09
   9.80000019      -1.50996404E-09
   9.84000015      -1.46305679E-09
   9.88000011      -1.21311761E-09
   9.92000008      -7.18257787E-10
   9.96000004       5.07405090E-11
   10.0000000       1.10772769E-09
   10.0400000       2.44983456E-09
   10.0799999       4.05739442E-09
   10.1199999       5.89483484E-09
   10.1599998       7.91210830E-09
   10.1999998       1.00460937E-08
   10.2399998       1.22214168E-08
   10.2799997       1.43501993E-08
   10.3199997       1.63303806E-08
   10.3599997       1.80424351E-08
   10.3999996       1.93444993E-08
   10.4399996       2.00660661E-08
   10.4799995       2.00005008E-08
   10.5200005       1.88966425E-08
   10.5600004       1.64497074E-08
   10.6000004       1.22914523E-08
   10.6400003       5.97938365E-09
   10.6800003      -3.01557623E-09
   10.7200003      -1.53236108E-08
   10.7600002      -3.16939683E-08
   10.8000002      -5.30173700E-08
   10.8400002      -8.03544467E-08
   10.8800001      -1.14971364E-07
   10.9200001      -1.58384040E-07
   10.9600000      -2.12411877E-07
   11.0000000      -2.79242357E-07
   11.0400000      -3.61507148E-07
   11.0799999      -4.62371048E-07
   11.1199999      -5.85634211E-07
   11.1599998      -7.35849312E-07
   11.1999998      -9.18455157E-07
   11.2399998      -1.13992780E-06
   11.2799997      -1.40795237E-06
   11.3199997      -1.73161629E-06
   11.3599997      -2.12162968E-06
   11.3999996      -2.59057060E-06
   11.4399996      -3.15316379E-06
   11.4799995      -3.82659164E-06
   11.5200005      -4.63084280E-06
   11.5600004      -5.58909551E-06
   11.6000004      -6.72814394E-06
   11.6400003      -8.07886681E-06
   11.6800003      -9.67673532E-06
   11.7200003      -1.15623643E-05
   11.7600002      -1.37821053E-05
   11.8000002      -1.63886834E-05
   11.8400002      -1.94418644E-05
   11.8800001      -2.30091664E-05
   11.9200001      -2.71666031E-05
   11.9600000      -3.19994360E-05
   12.0000000      -3.76029566E-05
   12.0400000      -4.40832810E-05
   12.0799999      -5.15581123E-05
   12.1199999      -6.01574939E-05
   12.1599998      -7.00245073E-05
   12.1999998      -8.13159277E-05
   12.2399998      -9.42027618E-05
   12.2799997      -1.08870678E-04
   12.3199997      -1.25520281E-04
   12.3599997      -1.44367223E-04
   12.3999996      -1.65642065E-04
   12.4399996      -1.89589948E-04
   12.4799995      -2.16469853E-04
   12.5200005      -2.46553711E-04
   12.5600004      -2.80124979E-04
   12.6000004      -3.17476894E-04
   12.6400003      -3.58910358E-04
   12.6800003      -4.04731225E-04
   12.7200003      -4.55247035E-04
   12.7600002      -5.10763610E-04
   12.8000002      -5.71580720E-04
   12.8400002      -6.37986930E-04
   12.8800001      -7.10254943E-04
   12.9200001      -7.88635225E-04
   12.9600000      -8.73349665E-04
   13.0000000      -9.64584877E-04
   13.0400000      -1.06248469E-03
   13.0799999      -1.16714241E-03
   13.1199999      -1.27859286E-03
   13.1599998      -1.39680377E-03
   13.1999998      -1.52166816E-03
   13.2399998      -1.65299524E-03
   13.2799997      -1.79050257E-03
   13.3199997      -1.93380821E-03
   13.3599997      -2.08242331E-03
   13.3999996      -2.23574508E-03
   13.4399996      -2.39305082E-03
   13.4799995      -2.55349441E-03
   13.5200005      -2.71610124E-03
   13.5600004      -2.87976628E-03
   13.6000004      -3.04325367E-03
   13.6400003      -3.20519903E-03
   13.6800003      -3.36411060E-03
   13.7200003      -3.51837627E-03
   13.7600002      -3.66627029E-03
   13.8000002      -3.80596425E-03
   13.8400002      -3.93553730E-03
   13.8800001      -4.05299244E-03
   13.9200001      -4.15627519E-03
   13.9600000      -4.24328959E-03
   14.0000000      -4.31192201E-03
   14.0400000      -4.36006533E-03
   14.0799999      -4.38564271E-03
   14.1199999      -4.38663829E-03
   14.1599998      -4.36112238E-03
   14.1999998      -4.30728355E-03
   14.2399998      -4.22345893E-03
   14.2799997      -4.10816353E-03
   14.3199997      -3.96012096E-03
   14.3599997      -3.77829513E-03
   14.3999996      -3.56191513E-03
   14.4399996      -3.31050530E-03
   14.4799995      -3.02390708E-03
   14.5200005      -2.70230253E-03
   14.5600004      -2.34623044E-03
   14.6000004      -1.95660209E-03
   14.6400003      -1.53471157E-03
   14.6800003      -1.08223991E-03
   14.7200003      -6.01256790E-04
   14.7600002      -9.42152328E-05
   14.8000002       4.36058384E-04
   14.8400002       9.86380270E-04
   14.8800001       1.55322987E-03
   14.9200001       2.13277736E-03
   14.9600000       2.72091478E-03
   15.0000000       3.31329415E-03
   15.0400000       3.90536804E-03
   15.0799999       4.49243607E-03
   15.1199999       5.06969541E-03
   15.1599998       5.63229062E-03
   15.1999998       6.17537228E-03
   15.2399998       6.69415202E-03
   15.2799997       7.18395878E-03
   15.3199997       7.64029939E-03
   15.3599997       8.05891212E-03
   15.3999996       8.43582395E-03
   15.4399996       8.76739714E-03
   15.4799995       9.05038603E-03
   15.5200005       9.28197522E-03
   15.5600004       9.45981964E-03
   15.6000004       9.58207995E-03
   15.6400003       9.64744762E-03
   15.6800003       9.65516455E-03
   15.7200003       9.60503984E-03
   15.7600002       9.49745066E-03
   15.8000002       9.33334325E-03
   15.8400002       9.11422260E-03
   15.8800001       8.84213578E-03
   15.9200001       8.51964578E-03
   15.9600000       8.14979896E-03
   16.0000000       7.73609243E-03
   16.0400009       7.28242472E-03
   16.0799999       6.79305056E-03
   16.1200008       6.27252366E-03
   16.1599998       5.72564406E-03
   16.2000008       5.15739527E-03
   16.2399998       4.57288278E-03
   16.2800007       3.97727266E-03
   16.3199997       3.37572745E-03
   16.3600006       2.77334591E-03
   16.3999996       2.17510294E-03
   16.4400005       1.58579275E-03
   16.4799995       1.00997603E-03
   16.5200005       4.51931002E-04
   16.5599995      -8.43897069E-05
   16.6000004      -5.95397432E-04
   16.6399994      -1.07789913E-03
   16.6800003      -1.52912305E-03
   16.7199993      -1.94673799E-03
   16.7600002      -2.32886546E-03
   16.7999992      -2.67408555E-03
   16.8400002      -2.98143597E-03
   16.8799992      -3.25040519E-03
   16.9200001      -3.48091987E-03
   16.9599991      -3.67332553E-03
   17.0000000      -3.82836326E-03
   17.0400009      -3.94714158E-03
   17.0799999      -4.03110310E-03
   17.1200008      -4.08199104E-03
   17.1599998      -4.10180725E-03
   17.2000008      -4.09277575E-03
   17.2399998      -4.05729981E-03
   17.2800007      -3.99792008E-03
   17.3199997      -3.91727220E-03
   17.3600006      -3.81804700E-03
   17.3999996      -3.70295020E-03
   17.4400005      -3.57466564E-03
   17.4799995      -3.43581988E-03
   17.5200005      -3.28894961E-03
   17.5599995      -3.13647348E-03
   17.6000004      -2.98066577E-03
   17.6399994      -2.82363454E-03
   17.6800003      -2.66730366E-03
   17.7199993      -2.51339772E-03
   17.7600002      -2.36343266E-03
   17.7999992      -2.21870863E-03
   17.8400002      -2.08030571E-03
   17.8799992      -1.94908690E-03
   17.9200001      -1.82570028E-03
   17.9599991      -1.71058706E-03
   18.0000000      -1.60399091E-03
   18.0400009      -1.50597049E-03
   18.0799999      -1.41641451E-03
   18.1200008      -1.33505755E-03
   18.1599998      -1.26149785E-03
   18.2000008      -1.19521725E-03
   18.2399998      -1.13559945E-03
   18.2800007      -1.08195096E-03
   18.3199997      -1.03352102E-03
   18.3600006      -9.89521039E-04
   18.3999996      -9.49144829E-04
   18.4400005      -9.11586161E-04
   18.4799995      -8.76056671E-04
   18.5200005      -8.41802044E-04
   18.5599995      -8.08116689E-04
   18.6000004      -7.74356769E-04
   18.6399994      -7.39951618E-04
   18.6800003      -7.04413047E-04
   18.7199993      -6.67342858E-04
   18.7600002      -6.28438196E-04
   18.7999992      -5.87494869E-04
   18.8400002      -5.44408336E-04
   18.8799992      -4.99173766E-04
   18.9200001      -4.51882486E-04
   18.9599991      -4.02718200E-04
   19.0000000      -3.51950410E-04
   19.0400009      -2.99926935E-04
   19.0799999      -2.47064541E-04
   19.1200008      -1.93838743E-04
   19.1599998      -1.40772274E-04
   19.2000008      -8.84227848E-05
   19.2399998      -3.73701405E-05
   19.2800007       1.17969412E-05
   19.3199997       5.84941481E-05
   19.3600006       1.02154831E-04
   19.3999996       1.42242818E-04
   19.4400005       1.78264730E-04
   19.4799995       2.09781239E-04
   19.5200005       2.36417574E-04
   19.5599995       2.57872336E-04
   19.6000004       2.73925223E-04
   19.6399994       2.84442824E-04
   19.6800003       2.89382879E-04
   19.7199993       2.88796669E-04
   19.7600002       2.82829162E-04
   19.7999992       2.71717639E-04
   19.8400002       2.55788065E-04
   19.8799992       2.35449552E-04
   19.9200001       2.11187318E-04
   19.9599991       1.83553479E-04
   20.0000000       1.53156725E-04
   20.0400009       1.20650388E-04
   20.0799999       8.67196068E-05
   20.1200008       5.20675057E-05
   20.1599998       1.74009347E-05
   20.2000008      -1.65840920E-05
   20.2399998      -4.92168729E-05
   20.2800007      -7.98660840E-05
   20.3199997      -1.07953201E-04
   20.3600006      -1.32964808E-04
   20.3999996      -1.54463705E-04
   20.4400005      -1.72098356E-04
   20.4799995      -1.85610508E-04
   20.5200005      -1.94840890E-04
   20.5599995      -1.99732487E-04
   20.6000004      -2.00331691E-04
   20.6399994      -1.96786976E-04
   20.6800003      -1.89345126E-04
   20.7199993      -1.78345159E-04
   20.7600002      -1.64209938E-04
   20.7999992      -1.47435640E-04
   20.8400002      -1.28579457E-04
   20.8799992      -1.08245535E-04
   20.9200001      -8.70696822E-05
   20.9599991      -6.57030687E-05
   21.0000000      -4.47953898E-05
   21.0400009      -2.49778004E-05
   21.0799999      -6.84609631E-06
   21.1200008       9.05547040E-06
   21.1599998       2.22493163E-05
   21.2000008       3.23382083E-05
   21.2399998       3.90171153E-05
   21.2800007       4.20829092E-05
   21.3199997       4.14415808E-05
   21.3600006       3.71127571E-05
   21.3999996       2.92313071E-05
   21.4400005       1.80459447E-05
   21.4799995       3.91473259E-06
   21.5200005      -1.27024423E-05
   21.5599995      -3.12543343E-05
   21.6000004      -5.11115140E-05
   21.6399994      -7.15820788E-05
   21.6800003      -9.19294471E-05
   21.7199993      -1.11391855E-04
   21.7600002      -1.29203254E-04
   21.7999992      -1.44614794E-04
   21.8400002      -1.56916780E-04
   21.8799992      -1.65460078E-04
   21.9200001      -1.69676801E-04
   21.9599991      -1.69099541E-04
   22.0000000      -1.63378631E-04
   22.0400009      -1.52296852E-04
   22.0799999      -1.35781287E-04
   22.1200008      -1.13911694E-04
   22.1599998      -8.69253054E-05
   22.2000008      -5.52174388E-05
   22.2399998      -1.93381111E-05
   22.2800007       2.00157156E-05
   22.3199997       6.20119899E-05
   22.3600006       1.05699575E-04
   22.3999996       1.50027990E-04
   22.4400005       1.93870539E-04
   22.4799995       2.36050531E-04
   22.5200005       2.75369675E-04
   22.5599995       3.10638250E-04
   22.6000004       3.40706378E-04
   22.6399994       3.64495412E-04
   22.6800003       3.81028804E-04
   22.7199993       3.89461638E-04
   22.7600002       3.89108114E-04
   22.7999992       3.79465870E-04
   22.8400002       3.60237085E-04
   22.8799992       3.31344985E-04
   22.9200001       2.92945741E-04
   22.9599991       2.45434989E-04
   23.0000000       1.89448649E-04
   23.0400009       1.25858016E-04
   23.0799999       5.57587700E-05
   23.1200008      -1.95459361E-05
   23.1599998      -9.85680235E-05
   23.2000008      -1.79662457E-04
   23.2399998      -2.61059904E-04
   23.2800007      -3.40903876E-04
   23.3199997      -4.17291041E-04
   23.3600006      -4.88314254E-04
   23.3999996      -5.52107114E-04
   23.4400005      -6.06889371E-04
   23.4799995      -6.51011360E-04
   23.5200005      -6.82997459E-04
   23.5599995      -7.01586599E-04
   23.6000004      -7.05768878E-04
   23.6399994      -6.94818271E-04
   23.6800003      -6.68319059E-04
   23.7199993      -6.26186142E-04
   23.7600002      -5.68678835E-04
   23.7999992      -4.96406457E-04
   23.8400002      -4.10326465E-04
   23.8799992      -3.11734679E-04
   23.9200001      -2.02247422E-04
   23.9599991      -8.37757398E-05
   24.0000000       4.15075701E-05
   24.0400009       1.71207852E-04
   24.0799999       3.02754604E-04
   24.1200008       4.33452631E-04
   24.1599998       5.60537504E-04
   24.2000008       6.81234058E-04
   24.2399998       7.92816805E-04
   24.2800007       8.92670709E-04
   24.3199997       9.78351571E-04
   24.3600006       1.04764441E-03
   24.3999996       1.09861791E-03
   24.4400005       1.12967531E-03
   24.4799995       1.13959843E-03
   24.5200005       1.12758554E-03
   24.5599995       1.09328108E-03
   24.6000004       1.03679753E-03
   24.6399994       9.58726741E-04
   24.6800003       8.60142813E-04
   24.7199993       7.42594653E-04
   24.7600002       6.08088449E-04
   24.7999992       4.59060480E-04
   24.8400002       2.98340601E-04
   24.8799992       1.29106818E-04
   24.9200001      -4.51686319E-05
   24.9599991      -2.20779955E-04
   25.0000000      -3.93855065E-04
   25.0400009      -5.60427725E-04
   25.0799999      -7.16513605E-04
   25.1200008      -8.58188490E-04
   25.1599998      -9.81667778E-04
   25.2000008      -1.08338566E-03
   25.2399998      -1.16007158E-03
   25.2800007      -1.20882480E-03
   25.3199997      -1.22718257E-03
   25.3600006      -1.21318351E-03
   25.3999996      -1.16542401E-03
   25.4400005      -1.08310452E-03
   25.4799995      -9.66068939E-04
   25.5200005      -8.14832398E-04
   25.5599995      -6.30598981E-04
   25.6000004      -4.15268209E-04
   25.6399994      -1.71430715E-04
   25.6800003       9.76483352E-05
   25.7199993       3.88056127E-04
   25.7600002       6.95270952E-04
   25.7999992       1.01421075E-03
   25.8400002       1.33929169E-03
   25.8799992       1.66449614E-03
   25.9200001       1.98344816E-03
   25.9599991       2.28949613E-03
   26.0000000       2.57580215E-03
   26.0400009       2.83543440E-03
   26.0799999       3.06146429E-03
   26.1200008       3.24706407E-03
   26.1599998       3.38560762E-03
   26.2000008       3.47076659E-03
   26.2399998       3.49660753E-03
   26.2800007       3.45768430E-03
   26.3199997       3.34912492E-03
   26.3600006       3.16671398E-03
   26.3999996       2.90696672E-03
   26.4400005       2.56719603E-03
   26.4799995       2.14556907E-03
   26.5200005       1.64115569E-03
   26.5599995       1.05396565E-03
   26.6000004       3.84975574E-04
   26.6399994      -3.63855943E-04
   26.6800003      -1.18958484E-03
   26.7199993      -2.08828715E-03
   26.7600002      -3.05508007E-03
   26.7999992      -4.08414891E-03
   26.8400002      -5.16879000E-03
   26.8799992      -6.30145893E-03
   26.9200001      -7.47383386E-03
   26.9599991      -8.67688097E-03
   27.0000000      -9.90093686E-03
   27.0400009      -1.11357886E-02
   27.0799999      -1.23707671E-02
   27.1200008      -1.35948462E-02
   27.1599998      -1.47967422E-02
   27.2000008      -1.59650147E-02
   27.2399998      -1.70881785E-02
   27.2800007      -1.81548093E-02
   27.3199997      -1.91536602E-02
   27.3600006      -2.00737547E-02
   27.3999996      -2.09045075E-02
   27.4400005      -2.16358192E-02
   27.4799995      -2.22581755E-02
   27.5200005      -2.27627456E-02
   27.5599995      -2.31414698E-02
   27.6000004      -2.33871415E-02
   27.6399994      -2.34934855E-02
   27.6800003      -2.34552231E-02
   27.7199993      -2.32681334E-02
   27.7600002      -2.29290985E-02
   27.7999992      -2.24361587E-02
   27.8400002      -2.17885301E-02
   27.8799992      -2.09866371E-02
   27.9200001      -2.00321171E-02
   27.9599991      -1.89278331E-02
   28.0000000      -1.76778492E-02
   28.0400009      -1.62874274E-02
   28.0799999      -1.47629902E-02
   28.1200008      -1.31120840E-02
   28.1599998      -1.13433329E-02
   28.2000008      -9.46637429E-03
   28.2399998      -7.49179814E-03
   28.2800007      -5.43106720E-03
   28.3199997      -3.29643441E-03
   28.3600006      -1.10085018E-03
   28.3999996       1.14213314E-03
   28.4400005       3.41846724E-03
   28.4799995       5.71371522E-03
   28.5200005       8.01316649E-03
   28.5599995       1.03019504E-02
   28.6000004       1.25651583E-02
   28.6399994       1.47879636E-02
   28.6800003       1.69557370E-02
   28.7199993       1.90541707E-02
   28.7600002       2.10694037E-02
   28.7999992       2.29881182E-02
   28.8400002       2.47976687E-02
   28.8799992       2.64861770E-02
   28.9200001       2.80426312E-02
   28.9599991       2.94569880E-02
   29.0000000       3.07202414E-02
   29.0400009       3.18245105E-02
   29.0799999       3.27631012E-02
   29.1200008       3.35305594E-02
   29.1599998       3.41227166E-02
   29.2000008       3.45367193E-02
   29.2399998       3.47710662E-02
   29.2800007       3.48255858E-02
   29.3199997       3.47014517E-02
   29.3600006       3.44011672E-02
   29.3999996       3.39285396E-02
   29.4400005       3.32886204E-02
   29.4799995       3.24876755E-02