-4.000000000000000083e-02 0.000000000000000000e+00
-3.984999999999999654e-02 0.000000000000000000e+00
-3.969999999999999918e-02 0.000000000000000000e+00
-3.955000000000000182e-02 0.000000000000000000e+00
-3.939999999999999752e-02 0.000000000000000000e+00
-3.925000000000000017e-02 0.000000000000000000e+00
-3.910000000000000281e-02 0.000000000000000000e+00
-3.894999999999999851e-02 0.000000000000000000e+00
-3.880000000000000115e-02 0.000000000000000000e+00
-3.864999999999999686e-02 0.000000000000000000e+00
-3.849999999999999950e-02 0.000000000000000000e+00
-3.835000000000000214e-02 0.000000000000000000e+00
-3.819999999999999785e-02 0.000000000000000000e+00
-3.805000000000000049e-02 0.000000000000000000e+00
-3.790000000000000313e-02 0.000000000000000000e+00
-3.774999999999999883e-02 0.000000000000000000e+00
-3.760000000000000148e-02 0.000000000000000000e+00
-3.744999999999999718e-02 0.000000000000000000e+00
-3.729999999999999982e-02 0.000000000000000000e+00
-3.715000000000000246e-02 0.000000000000000000e+00
-3.699999999999999817e-02 0.000000000000000000e+00
-3.685000000000000081e-02 0.000000000000000000e+00
-3.670000000000000345e-02 0.000000000000000000e+00
-3.654999999999999916e-02 0.000000000000000000e+00
-3.640000000000000180e-02 0.000000000000000000e+00
-3.624999999999999750e-02 0.000000000000000000e+00
-3.610000000000000014e-02 0.000000000000000000e+00
-3.595000000000000279e-02 0.000000000000000000e+00
-3.579999999999999849e-02 0.000000000000000000e+00
-3.565000000000000113e-02 0.000000000000000000e+00
-3.549999999999999684e-02 0.000000000000000000e+00
-3.534999999999999948e-02 0.000000000000000000e+00
-3.520000000000000212e-02 0.000000000000000000e+00
-3.504999999999999782e-02 0.000000000000000000e+00
-3.490000000000000047e-02 0.000000000000000000e+00
-3.475000000000000311e-02 0.000000000000000000e+00
-3.459999999999999881e-02 0.000000000000000000e+00
-3.445000000000000145e-02 0.000000000000000000e+00
-3.429999999999999716e-02 0.000000000000000000e+00
-3.414999999999999980e-02 0.000000000000000000e+00
-3.400000000000000244e-02 0.000000000000000000e+00
-3.384999999999999815e-02 0.000000000000000000e+00
-3.370000000000000079e-02 0.000000000000000000e+00
-3.355000000000000343e-02 0.000000000000000000e+00
-3.339999999999999913e-02 0.000000000000000000e+00
-3.325000000000000178e-02 0.000000000000000000e+00
-3.309999999999999748e-02 0.000000000000000000e+00
-3.295000000000000012e-02 0.000000000000000000e+00
-3.280000000000000276e-02 0.000000000000000000e+00
-3.264999999999999847e-02 0.000000000000000000e+00
-3.250000000000000111e-02 0.000000000000000000e+00
-3.234999999999999681e-02 0.000000000000000000e+00
-3.219999999999999946e-02 0.000000000000000000e+00
-3.205000000000000210e-02 0.000000000000000000e+00
-3.189999999999999780e-02 0.000000000000000000e+00
-3.175000000000000044e-02 0.000000000000000000e+00
-3.160000000000000309e-02 0.000000000000000000e+00
-3.144999999999999879e-02 0.000000000000000000e+00
-3.130000000000000143e-02 0.000000000000000000e+00
-3.115000000000000061e-02 0.000000000000000000e+00
-3.099999999999999978e-02 0.000000000000000000e+00
-3.084999999999999895e-02 0.000000000000000000e+00
-3.070000000000000159e-02 0.000000000000000000e+00
-3.055000000000000077e-02 0.000000000000000000e+00
-3.039999999999999994e-02 0.000000000000000000e+00
-3.024999999999999911e-02 0.000000000000000000e+00
-3.009999999999999828e-02 0.000000000000000000e+00
-2.995000000000000093e-02 0.000000000000000000e+00
-2.980000000000000010e-02 0.000000000000000000e+00
-2.964999999999999927e-02 0.000000000000000000e+00
-2.949999999999999845e-02 0.000000000000000000e+00
-2.935000000000000109e-02 0.000000000000000000e+00
-2.920000000000000026e-02 0.000000000000000000e+00
-2.904999999999999943e-02 0.000000000000000000e+00
-2.889999999999999861e-02 0.000000000000000000e+00
-2.875000000000000125e-02 0.000000000000000000e+00
-2.860000000000000042e-02 0.000000000000000000e+00
-2.844999999999999959e-02 0.000000000000000000e+00
-2.829999999999999877e-02 0.000000000000000000e+00
-2.815000000000000141e-02 0.000000000000000000e+00
-2.800000000000000058e-02 0.000000000000000000e+00
-2.784999999999999976e-02 0.000000000000000000e+00
-2.769999999999999893e-02 0.000000000000000000e+00
-2.755000000000000157e-02 0.000000000000000000e+00
-2.740000000000000074e-02 0.000000000000000000e+00
-2.724999999999999992e-02 0.000000000000000000e+00
-2.709999999999999909e-02 0.000000000000000000e+00
-2.695000000000000173e-02 0.000000000000000000e+00
-2.680000000000000090e-02 0.000000000000000000e+00
-2.665000000000000008e-02 0.000000000000000000e+00
-2.649999999999999925e-02 0.000000000000000000e+00
-2.634999999999999842e-02 0.000000000000000000e+00
-2.620000000000000107e-02 0.000000000000000000e+00
-2.605000000000000024e-02 0.000000000000000000e+00
-2.589999999999999941e-02 0.000000000000000000e+00
-2.574999999999999858e-02 0.000000000000000000e+00
-2.560000000000000123e-02 0.000000000000000000e+00
-2.545000000000000040e-02 0.000000000000000000e+00
-2.529999999999999957e-02 0.000000000000000000e+00
-2.514999999999999875e-02 0.000000000000000000e+00
-2.500000000000000139e-02 0.000000000000000000e+00
-2.485000000000000056e-02 0.000000000000000000e+00
-2.469999999999999973e-02 0.000000000000000000e+00
-2.454999999999999891e-02 0.000000000000000000e+00
-2.440000000000000155e-02 0.000000000000000000e+00
-2.425000000000000072e-02 0.000000000000000000e+00
-2.409999999999999989e-02 0.000000000000000000e+00
-2.394999999999999907e-02 0.000000000000000000e+00
-2.380000000000000171e-02 0.000000000000000000e+00
-2.365000000000000088e-02 0.000000000000000000e+00
-2.350000000000000006e-02 0.000000000000000000e+00
-2.334999999999999923e-02 0.000000000000000000e+00
-2.319999999999999840e-02 0.000000000000000000e+00
-2.305000000000000104e-02 0.000000000000000000e+00
-2.290000000000000022e-02 0.000000000000000000e+00
-2.274999999999999939e-02 0.000000000000000000e+00
-2.259999999999999856e-02 0.000000000000000000e+00
-2.245000000000000120e-02 0.000000000000000000e+00
-2.230000000000000038e-02 0.000000000000000000e+00
-2.214999999999999955e-02 0.000000000000000000e+00
-2.199999999999999872e-02 0.000000000000000000e+00
-2.185000000000000137e-02 0.000000000000000000e+00
-2.170000000000000054e-02 0.000000000000000000e+00
-2.154999999999999971e-02 0.000000000000000000e+00
-2.139999999999999888e-02 0.000000000000000000e+00
-2.125000000000000153e-02 0.000000000000000000e+00
-2.110000000000000070e-02 0.000000000000000000e+00
-2.094999999999999987e-02 0.000000000000000000e+00
-2.079999999999999905e-02 0.000000000000000000e+00
-2.065000000000000169e-02 0.000000000000000000e+00
-2.050000000000000086e-02 0.000000000000000000e+00
-2.035000000000000003e-02 0.000000000000000000e+00
-2.019999999999999921e-02 0.000000000000000000e+00
-2.004999999999999838e-02 0.000000000000000000e+00
-1.990000000000000102e-02 0.000000000000000000e+00
-1.975000000000000019e-02 0.000000000000000000e+00
-1.959999999999999937e-02 0.000000000000000000e+00
-1.944999999999999854e-02 0.000000000000000000e+00
-1.930000000000000118e-02 0.000000000000000000e+00
-1.915000000000000036e-02 0.000000000000000000e+00
-1.899999999999999953e-02 0.000000000000000000e+00
-1.884999999999999870e-02 0.000000000000000000e+00
-1.870000000000000134e-02 0.000000000000000000e+00
-1.855000000000000052e-02 0.000000000000000000e+00
-1.839999999999999969e-02 0.000000000000000000e+00
-1.824999999999999886e-02 0.000000000000000000e+00
-1.810000000000000150e-02 0.000000000000000000e+00
-1.795000000000000068e-02 0.000000000000000000e+00
-1.779999999999999985e-02 0.000000000000000000e+00
-1.764999999999999902e-02 0.000000000000000000e+00
-1.750000000000000167e-02 0.000000000000000000e+00
-1.735000000000000084e-02 0.000000000000000000e+00
-1.720000000000000001e-02 0.000000000000000000e+00
-1.704999999999999918e-02 0.000000000000000000e+00
-1.689999999999999836e-02 0.000000000000000000e+00
-1.675000000000000100e-02 0.000000000000000000e+00
-1.660000000000000017e-02 0.000000000000000000e+00
-1.644999999999999934e-02 0.000000000000000000e+00
-1.629999999999999852e-02 0.000000000000000000e+00
-1.615000000000000116e-02 0.000000000000000000e+00
-1.600000000000000033e-02 0.000000000000000000e+00
-1.584999999999999951e-02 0.000000000000000000e+00
-1.569999999999999868e-02 0.000000000000000000e+00
-1.554999999999999959e-02 0.000000000000000000e+00
-1.540000000000000049e-02 0.000000000000000000e+00
-1.524999999999999967e-02 0.000000000000000000e+00
-1.510000000000000057e-02 0.000000000000000000e+00
-1.494999999999999975e-02 0.000000000000000000e+00
-1.480000000000000066e-02 0.000000000000000000e+00
-1.464999999999999983e-02 0.000000000000000000e+00
-1.450000000000000074e-02 0.000000000000000000e+00
-1.434999999999999991e-02 0.000000000000000000e+00
-1.420000000000000082e-02 0.000000000000000000e+00
-1.404999999999999999e-02 0.000000000000000000e+00
-1.389999999999999916e-02 0.000000000000000000e+00
-1.375000000000000007e-02 0.000000000000000000e+00
-1.359999999999999924e-02 0.000000000000000000e+00
-1.345000000000000015e-02 0.000000000000000000e+00
-1.329999999999999932e-02 0.000000000000000000e+00
-1.315000000000000023e-02 0.000000000000000000e+00
-1.299999999999999940e-02 0.000000000000000000e+00
-1.285000000000000031e-02 0.000000000000000000e+00
-1.269999999999999948e-02 0.000000000000000000e+00
-1.255000000000000039e-02 0.000000000000000000e+00
-1.239999999999999956e-02 0.000000000000000000e+00
-1.225000000000000047e-02 0.000000000000000000e+00
-1.209999999999999964e-02 0.000000000000000000e+00
-1.195000000000000055e-02 0.000000000000000000e+00
-1.179999999999999973e-02 0.000000000000000000e+00
-1.165000000000000063e-02 0.000000000000000000e+00
-1.149999999999999981e-02 0.000000000000000000e+00
-1.135000000000000071e-02 0.000000000000000000e+00
-1.119999999999999989e-02 0.000000000000000000e+00
-1.105000000000000079e-02 0.000000000000000000e+00
-1.089999999999999997e-02 0.000000000000000000e+00
-1.074999999999999914e-02 0.000000000000000000e+00
-1.060000000000000005e-02 0.000000000000000000e+00
-1.044999999999999922e-02 0.000000000000000000e+00
-1.030000000000000013e-02 0.000000000000000000e+00
-1.014999999999999930e-02 0.000000000000000000e+00
-1.000000000000000021e-02 0.000000000000000000e+00
-9.850001000000000589e-03 0.000000000000000000e+00
-9.700001999999999236e-03 0.000000000000000000e+00
-9.550001000000000670e-03 0.000000000000000000e+00
-9.400000999999999843e-03 0.000000000000000000e+00
-9.250002000000000224e-03 0.000000000000000000e+00
-9.100000999999999923e-03 0.000000000000000000e+00
-8.950001000000000831e-03 0.000000000000000000e+00
-8.800001999999999477e-03 0.000000000000000000e+00
-8.650000999999999177e-03 0.000000000000000000e+00
-8.500001999999999558e-03 0.000000000000000000e+00
-8.349999999999999784e-03 0.000000000000000000e+00
-8.200001000000000165e-03 0.000000000000000000e+00
-8.050002000000000546e-03 0.000000000000000000e+00
-7.900000000000000772e-03 0.000000000000000000e+00
-7.750001000000000285e-03 0.000000000000000000e+00
-7.600001999999999799e-03 0.000000000000000000e+00
-7.449998999999999684e-03 0.000000000000000000e+00
-7.300001000000000406e-03 0.000000000000000000e+00
-7.150001999999999920e-03 0.000000000000000000e+00
-7.000003000000000301e-03 0.000000000000000000e+00
-6.850000000000000186e-03 0.000000000000000000e+00
-6.700002000000000041e-03 0.000000000000000000e+00
-6.550003000000000422e-03 0.000000000000000000e+00
-6.400000000000000307e-03 0.000000000000000000e+00
-6.250000999999999821e-03 0.000000000000000000e+00
-6.100002999999999675e-03 0.000000000000000000e+00
-5.950000000000000427e-03 0.000000000000000000e+00
-5.800000999999999941e-03 0.000000000000000000e+00
-5.650002999999999796e-03 0.000000000000000000e+00
-5.499999999999999681e-03 0.000000000000000000e+00
-5.350001000000000062e-03 0.000000000000000000e+00
-5.200001999999999576e-03 0.000000000000000000e+00
-5.049999999999999802e-03 0.000000000000000000e+00
-4.900001000000000183e-03 0.000000000000000000e+00
-4.750001999999999697e-03 0.000000000000000000e+00
-4.599999999999999922e-03 0.000000000000000000e+00
-4.450001000000000304e-03 0.000000000000000000e+00
-4.300001999999999817e-03 0.000000000000000000e+00
-4.149998999999999702e-03 0.000000000000000000e+00
-4.000001000000000424e-03 0.000000000000000000e+00
-3.850001999999999938e-03 0.000000000000000000e+00
-3.699998999999999823e-03 0.000000000000000000e+00
-3.550000000000000204e-03 0.000000000000000000e+00
-3.400002000000000059e-03 0.000000000000000000e+00
-3.250003000000000006e-03 0.000000000000000000e+00
-3.099999999999999891e-03 0.000000000000000000e+00
-2.950002000000000180e-03 0.000000000000000000e+00
-2.800003000000000127e-03 0.000000000000000000e+00
-2.650000000000000012e-03 0.000000000000000000e+00
-2.500000999999999959e-03 0.000000000000000000e+00
-2.350002999999999814e-03 0.000000000000000000e+00
-2.200000000000000133e-03 0.000000000000000000e+00
-2.050001000000000080e-03 0.000000000000000000e+00
-1.900002000000000028e-03 0.000000000000000000e+00
-1.750000000000000036e-03 0.000000000000000000e+00
-1.600000999999999984e-03 0.000000000000000000e+00
-1.450001999999999932e-03 0.000000000000000000e+00
-1.299999999999999940e-03 0.000000000000000000e+00
-1.150001000000000105e-03 0.000000000000000000e+00
-1.000002000000000052e-03 0.000000000000000000e+00
-8.499994999999999990e-04 0.000000000000000000e+00
-7.000007000000000148e-04 0.000000000000000000e+00
-5.500019000000000305e-04 0.000000000000000000e+00
-3.999992999999999973e-04 0.000000000000000000e+00
-2.500005000000000131e-04 0.000000000000000000e+00
-1.000017000000000017e-04 0.000000000000000000e+00
5.000085000000000087e-05 0.000000000000000000e+00
1.999996999999999886e-04 0.000000000000000000e+00
3.499985000000000270e-04 0.000000000000000000e+00
4.999972999999999571e-04 0.000000000000000000e+00
6.499998000000000104e-04 -0.000000000000000000e+00
7.999985999999999946e-04 0.000000000000000000e+00
9.499975000000000129e-04 0.000000000000000000e+00
1.100000000000000066e-03 -4.203895392974451213e-45
1.249998999999999902e-03 1.401298464324817071e-45
1.399997999999999954e-03 8.688050478813865840e-44
1.549999999999999946e-03 -4.904544625136859748e-43
1.699998999999999998e-03 -2.031882773270984753e-43
1.849998000000000050e-03 1.408024696953576193e-41
2.000000000000000042e-03 -5.402145709818602290e-41
2.149999000000000094e-03 -1.377196130738430217e-40
2.299998000000000146e-03 1.839181813650893209e-39
2.449999999999999921e-03 -3.442903446341287405e-39
2.599998999999999973e-03 -2.980032142799371129e-38
2.749998000000000026e-03 1.722625506816300742e-37
2.900001000000000141e-03 9.829270190237539782e-38
3.049998999999999853e-03 -3.784344211311854628e-36
3.199997999999999905e-03 8.365966892097074772e-36
3.350001000000000020e-03 5.010102712054740170e-35
3.500000000000000073e-03 -2.710209673351288699e-34
3.649997999999999784e-03 -2.782828362349479855e-34
3.800000999999999900e-03 5.130997576508760304e-33
3.950000000000000386e-03 -5.137215206940640941e-33
4.099999000000000005e-03 -7.104815985254145328e-32
4.249997000000000150e-03 1.878531896272249741e-31
4.400000000000000265e-03 7.562613905873976349e-31
4.549998999999999884e-03 -3.539741500269561138e-30
4.699998000000000370e-03 -6.085648230139238158e-30
4.850000000000000144e-03 5.070197754915868518e-29
4.999998999999999763e-03 3.256355127732646928e-29
5.149998000000000249e-03 -6.107997744364190598e-28
5.300000000000000024e-03 -3.596177040476268000e-29
5.449998999999999642e-03 6.491555648363150019e-27
5.599998000000000128e-03 -1.331473563310638267e-27
5.749999999999999903e-03 -6.240723610926925278e-26
5.899999000000000389e-03 1.212270902741910221e-26
6.049998000000000008e-03 5.455688557836718940e-25
6.200001000000000123e-03 3.895883257666461796e-26
6.349999000000000268e-03 -4.257932745054681912e-24
6.499997999999999887e-03 -2.419591210265492831e-24
6.650001000000000002e-03 2.822090881632459202e-23
6.799999999999999621e-03 3.672846129021473682e-23
6.949997999999999766e-03 -1.424269557932556346e-22
7.100000999999999882e-03 -3.497985201286266840e-22
7.250000000000000368e-03 3.848081166152372537e-22
7.399998999999999987e-03 2.204199043093528273e-21
7.550000999999999761e-03 1.127715160425611161e-21
7.700000000000000247e-03 -7.714107870291240960e-21
7.849998999999999866e-03 -1.635490844264762627e-20
7.999997999999999485e-03 -2.902484075136767021e-22
8.149999999999999259e-03 5.196483348025086499e-20
8.299999000000000612e-03 1.038968576169866384e-19
8.449998000000000231e-03 8.435675774755859988e-20
8.600000000000000006e-03 -6.983361815318977889e-20
8.749998999999999624e-03 -4.117781086507750075e-19
8.899997999999999243e-03 -1.009710939409924372e-18
9.050000000000000752e-03 -1.936567125968321589e-18
9.199999000000000371e-03 -3.252405719362816055e-18
9.349997999999999990e-03 -5.024864140908526580e-18
9.500000999999999238e-03 -7.337069699468816544e-18
9.649998999999999383e-03 -1.026704186362453438e-17
9.799998000000000736e-03 -1.389657473388676112e-17
9.950000999999999984e-03 -1.832644289710221958e-17
1.009999999999999960e-02 -2.365908274596825159e-17
1.025000000000000043e-02 -3.000056365043253189e-17
1.039999999999999952e-02 -3.747763118703411071e-17
1.055000000000000035e-02 -4.622373274963494289e-17
1.069999999999999944e-02 -5.637842032501762463e-17
1.085000000000000027e-02 -6.810414225932021992e-17
1.099999999999999936e-02 -8.157397782391332427e-17
1.115000000000000019e-02 -9.697150817522450644e-17
1.129999999999999928e-02 -1.145064798468176125e-16
1.145000000000000011e-02 -1.344029264357965046e-16
1.159999999999999920e-02 -1.569015244131896115e-16
1.175000000000000003e-02 -1.822733640267877120e-16
1.190000000000000085e-02 -2.108079584909843657e-16
1.204999999999999995e-02 -2.428195437943211172e-16
1.220000000000000077e-02 -2.786577195508873782e-16
1.234999999999999987e-02 -3.186961199346509009e-16
1.250000000000000069e-02 -3.633430677657474616e-16
1.264999999999999979e-02 -4.130478875529158649e-16
1.280000000000000061e-02 -4.682919587079925703e-16
1.294999999999999971e-02 -5.296031680455742189e-16
1.310000000000000053e-02 -5.975569685742017009e-16
1.324999999999999963e-02 -6.727723296200810964e-16
1.340000000000000045e-02 -7.559278833926407100e-16
1.354999999999999954e-02 -8.477581133362684269e-16
1.370000000000000037e-02 -9.490567952016599335e-16
1.384999999999999946e-02 -1.060691396605922040e-15
1.400000000000000029e-02 -1.183596936043705087e-15
1.414999999999999938e-02 -1.318787841348464506e-15
1.430000000000000021e-02 -1.467366525901051769e-15
1.444999999999999930e-02 -1.630520529893517406e-15
1.460000000000000013e-02 -1.809539778625411308e-15
1.474999999999999922e-02 -2.005819547119098122e-15
1.490000000000000005e-02 -2.220863848251546264e-15
1.504999999999999914e-02 -2.456304702753877960e-15
1.519999999999999997e-02 -2.713900551024593134e-15
1.535000000000000080e-02 -2.995550229173199117e-15
1.549999999999999989e-02 -3.303307156822077144e-15
1.565000000000000072e-02 -3.639381242930613686e-15
1.580000000000000154e-02 -4.006158791069460920e-15
1.594999999999999890e-02 -4.406212452057666970e-15
1.609999999999999973e-02 -4.842309059017438008e-15
1.625000000000000056e-02 -5.317433979571371816e-15
1.640000000000000138e-02 -5.834795774523667683e-15
1.654999999999999874e-02 -6.397847797200281392e-15
1.669999999999999957e-02 -7.010305981140817558e-15
1.685000000000000039e-02 -7.676159004493896681e-15
1.700000000000000122e-02 -8.399696242104414540e-15
1.714999999999999858e-02 -9.185521741557171882e-15
1.729999999999999941e-02 -1.003857624603350304e-14
1.745000000000000023e-02 -1.096416302881616719e-14
1.760000000000000106e-02 -1.196796483394829344e-14
1.774999999999999842e-02 -1.305607352238653471e-14
1.789999999999999925e-02 -1.423501887112127440e-14
1.805000000000000007e-02 -1.551178551383557147e-14
1.820000000000000090e-02 -1.689385529255252316e-14
1.835000000000000173e-02 -1.838922758642599908e-14
1.849999999999999908e-02 -2.000645742822326767e-14
1.864999999999999991e-02 -2.175468769157699184e-14
1.880000000000000074e-02 -2.364368297230311916e-14
1.895000000000000157e-02 -2.568387024598235008e-14
1.909999999999999892e-02 -2.788637783147571159e-14
1.924999999999999975e-02 -3.026307435444013094e-14
1.940000000000000058e-02 -3.282661618117348190e-14
1.955000000000000140e-02 -3.559048129993247489e-14
1.969999999999999876e-02 -3.856903200137075383e-14
1.984999999999999959e-02 -4.177756570051573137e-14
2.000000000000000042e-02 -4.523234204182290108e-14
2.015000000000000124e-02 -4.895067099060235183e-14
2.029999999999999860e-02 -5.295093993807307997e-14
2.044999999999999943e-02 -5.725269162839413672e-14
2.060000000000000026e-02 -6.187667836877325245e-14
2.075000000000000108e-02 -6.684492640397082797e-14
2.089999999999999844e-02 -7.218081384333108197e-14
2.104999999999999927e-02 -7.790911470649530823e-14
2.120000000000000009e-02 -8.405610056735554614e-14
2.135000000000000092e-02 -9.064958798789962691e-14
2.149999999999999828e-02 -9.771904016216484412e-14
2.164999999999999911e-02 -1.052956211263465780e-13
2.179999999999999993e-02 -1.134123109552791220e-13
2.195000000000000076e-02 -1.221039870775986191e-13
2.210000000000000159e-02 -1.314074446045337963e-13
2.224999999999999895e-02 -1.413616131703404610e-13
2.239999999999999977e-02 -1.520075569323015019e-13
2.255000000000000060e-02 -1.633886033197348708e-13
2.270000000000000143e-02 -1.755504107966293637e-13
2.284999999999999878e-02 -1.885411314919704928e-13
2.299999999999999961e-02 -2.024114789623762678e-13
2.315000000000000044e-02 -2.172148637173687558e-13
2.330000000000000127e-02 -2.330074609820098619e-13
2.344999999999999862e-02 -2.498484004322815144e-13
2.359999999999999945e-02 -2.677997526425585084e-13
2.375000000000000028e-02 -2.869268407937330956e-13
2.390000000000000110e-02 -3.072981593580520476e-13
2.404999999999999846e-02 -3.289856180446054656e-13
2.419999999999999929e-02 -3.520646502195440286e-13
2.435000000000000012e-02 -3.766143484313505541e-13
2.450000000000000094e-02 -4.027176270411658709e-13
2.464999999999999830e-02 -4.304612764328974439e-13
2.479999999999999913e-02 -4.599361256435452461e-13
2.494999999999999996e-02 -4.912372049935276319e-13
2.510000000000000078e-02 -5.244638274018442736e-13
2.525000000000000161e-02 -5.597197510164020340e-13
2.539999999999999897e-02 -5.971134502645580877e-13
2.554999999999999979e-02 -6.367580074329026729e-13
2.570000000000000062e-02 -6.787714921380194610e-13
2.585000000000000145e-02 -7.232769613264855568e-13
2.599999999999999881e-02 -7.704027303254146197e-13
2.614999999999999963e-02 -8.202822102121309911e-13
2.630000000000000046e-02 -8.730543957051473125e-13
2.645000000000000129e-02 -9.288638651641645261e-13
2.659999999999999865e-02 -9.878608348001804984e-13
2.674999999999999947e-02 -1.050201375515924518e-12
2.690000000000000030e-02 -1.116047792376617664e-12
2.705000000000000113e-02 -1.185568136718995191e-12
2.719999999999999848e-02 -1.258936856672610016e-12
2.734999999999999931e-02 -1.336334688739615473e-12
2.750000000000000014e-02 -1.417949091475634305e-12
2.765000000000000097e-02 -1.503973703388672423e-12
2.779999999999999832e-02 -1.594609101880639646e-12
2.794999999999999915e-02 -1.690062586406915202e-12
2.809999999999999998e-02 -1.790548395316782226e-12
2.825000000000000080e-02 -1.896287814273645012e-12
2.840000000000000163e-02 -2.007509176255029004e-12
2.854999999999999899e-02 -2.124447536291929062e-12
2.869999999999999982e-02 -2.247345321990112943e-12
2.885000000000000064e-02 -2.376452767210990302e-12
2.900000000000000147e-02 -2.512026611029005707e-12
2.914999999999999883e-02 -2.654331181933811123e-12
2.929999999999999966e-02 -2.803638180989831419e-12
2.945000000000000048e-02 -2.960226464995829865e-12
2.960000000000000131e-02 -3.124382480165777132e-12
2.974999999999999867e-02 -3.296399828447982294e-12
2.989999999999999949e-02 -3.476579484365527328e-12
3.005000000000000032e-02 -3.665229578175832614e-12
3.020000000000000115e-02 -3.862665829551525931e-12
3.034999999999999851e-02 -4.069209812856966479e-12
3.049999999999999933e-02 -4.285191559233458847e-12
3.065000000000000016e-02 -4.510947171354473539e-12
3.080000000000000099e-02 -4.746820124468253965e-12
3.094999999999999835e-02 -4.993159531674340457e-12
3.109999999999999917e-02 -5.250321878647046248e-12
3.125000000000000000e-02 -5.518669722592850491e-12
3.139999999999999736e-02 -5.798571692250398257e-12
3.155000000000000165e-02 -6.090401186847893555e-12
3.169999999999999901e-02 -6.394539411869182288e-12
3.185000000000000331e-02 -6.711371042245062313e-12
3.200000000000000067e-02 -7.041286824438497405e-12
3.214999999999999802e-02 -7.384681408040272288e-12
3.230000000000000232e-02 -7.741954646811599616e-12
3.244999999999999968e-02 -8.113509863960643997e-12
3.259999999999999704e-02 -8.499753852142521993e-12
3.275000000000000133e-02 -8.901096873459302117e-12
3.289999999999999869e-02 -9.317953526821742827e-12
3.305000000000000299e-02 -9.750738411140602580e-12
3.320000000000000034e-02 -1.019987046213532977e-11
3.334999999999999770e-02 -1.066576861552537281e-11
3.350000000000000200e-02 -1.114885267439191807e-11
3.364999999999999936e-02 -1.164954417653962793e-11
3.379999999999999671e-02 -1.216826292504968876e-11
3.395000000000000101e-02 -1.270542959036502495e-11
3.409999999999999837e-02 -1.326146224084334690e-11
3.425000000000000266e-02 -1.383677721011888906e-11
3.440000000000000002e-02 -1.443178822974067188e-11
3.454999999999999738e-02 -1.504690642917250187e-11
3.470000000000000168e-02 -1.568254033579297158e-11
3.484999999999999903e-02 -1.633909327281024559e-11
3.500000000000000333e-02 -1.701696075717684664e-11
3.515000000000000069e-02 -1.771653483639834548e-11
3.529999999999999805e-02 -1.843819888436293297e-11
3.545000000000000234e-02 -1.918233107078837207e-11
3.559999999999999970e-02 -1.994930089177504584e-11
3.574999999999999706e-02 -2.073946743508248147e-11
3.590000000000000135e-02 -2.155318111485282628e-11
3.604999999999999871e-02 -2.239078193688737173e-11
3.620000000000000301e-02 -2.325259776392307742e-11
3.635000000000000037e-02 -2.413894431563257115e-11
3.649999999999999772e-02 -2.505012690334762482e-11
3.665000000000000202e-02 -2.598643002171829863e-11
3.679999999999999938e-02 -2.694813296122422486e-11
3.694999999999999674e-02 -2.793549246093984806e-11
3.710000000000000103e-02 -2.894875311687528097e-11
3.724999999999999839e-02 -2.998813697363544861e-11
3.740000000000000269e-02 -3.105385740220789614e-11
3.755000000000000004e-02 -3.214609828328107710e-11
3.769999999999999740e-02 -3.326503308920258917e-11
3.785000000000000170e-02 -3.441081100619136635e-11
3.799999999999999906e-02 -3.558356387323158287e-11
3.815000000000000335e-02 -3.678339230428484541e-11
3.830000000000000071e-02 -3.801038650497190474e-11
3.844999999999999807e-02 -3.926460545589094409e-11
3.860000000000000236e-02 -4.054608732095843493e-11
3.874999999999999972e-02 -4.185484597796218509e-11
3.889999999999999708e-02 -4.319087101856133870e-11
3.905000000000000138e-02 -4.455412427883942428e-11
3.919999999999999873e-02 -4.594454330875130665e-11
3.935000000000000303e-02 -4.736203790267623503e-11
3.950000000000000039e-02 -4.880649009941784300e-11
3.964999999999999775e-02 -5.027775418220414849e-11
3.980000000000000204e-02 -5.177565320924060188e-11
3.994999999999999940e-02 -5.329998942205094181e-11
4.009999999999999676e-02 -5.485053730658329130e-11
4.025000000000000105e-02 -5.642703665431625382e-11
4.039999999999999841e-02 -5.802919950115281722e-11
4.055000000000000271e-02 -5.965670318852644982e-11
4.070000000000000007e-02 -6.130920077174195626e-11
4.084999999999999742e-02 -6.298632448942242945e-11
4.100000000000000172e-02 -6.468765800793363496e-11
4.114999999999999908e-02 -6.641276417695962664e-11
4.130000000000000338e-02 -6.816117809060884269e-11
4.145000000000000073e-02 -6.993240014852020181e-11
4.159999999999999809e-02 -7.172590299475700704e-11
4.175000000000000239e-02 -7.354113845670084970e-11
4.189999999999999974e-02 -7.537753060615770551e-11
4.204999999999999710e-02 -7.723446188157012671e-11
4.220000000000000140e-02 -7.911129390469895384e-11
4.234999999999999876e-02 -8.100734666394160399e-11
4.250000000000000305e-02 -8.292193320880159035e-11
4.265000000000000041e-02 -8.485433189431290657e-11
4.279999999999999777e-02 -8.680380025882783457e-11
4.295000000000000207e-02 -8.876956114622913674e-11
4.309999999999999942e-02 -9.075081658371786375e-11
4.324999999999999678e-02 -9.274673390402554674e-11
4.340000000000000108e-02 -9.475648737877762073e-11
4.354999999999999843e-02 -9.677920270734219343e-11
4.370000000000000273e-02 -9.881399171129956471e-11
4.385000000000000009e-02 -1.008599453955483227e-10
4.399999999999999745e-02 -1.029161408871992478e-10
4.415000000000000174e-02 -1.049816344966814086e-10
4.429999999999999910e-02 -1.070554617177421619e-10
4.445000000000000340e-02 -1.091366372274471530e-10
4.460000000000000075e-02 -1.112241757028620270e-10
4.474999999999999811e-02 -1.133170710043707174e-10
4.490000000000000241e-02 -1.154143169923571577e-10
4.504999999999999977e-02 -1.175148867105235695e-10
4.519999999999999712e-02 -1.196177323858904629e-10
4.535000000000000142e-02 -1.217217993065844439e-10
4.549999999999999878e-02 -1.238260605163077344e-10
4.565000000000000308e-02 -1.259294335476113247e-10
4.580000000000000043e-02 -1.280308775664096288e-10
4.594999999999999779e-02 -1.301293239830414450e-10
4.610000000000000209e-02 -1.322237042078455715e-10
4.624999999999999944e-02 -1.343129635289486146e-10
4.639999999999999680e-02 -1.363960472344771802e-10
4.655000000000000110e-02 -1.384719006125578744e-10
4.669999999999999846e-02 -1.405394550735294956e-10
4.685000000000000275e-02 -1.425976836610942655e-10
4.700000000000000011e-02 -1.446455316633787902e-10
4.714999999999999747e-02 -1.466819860018730992e-10
4.730000000000000177e-02 -1.487060335980672221e-10
4.744999999999999912e-02 -1.507166613734511884e-10
4.760000000000000342e-02 -1.527128701273028355e-10
4.775000000000000078e-02 -1.546937161700512320e-10
4.789999999999999813e-02 -1.566582280565498309e-10
4.805000000000000243e-02 -1.586054759750155085e-10