-4.000000000000000083e-02 0.000000000000000000e+00
-3.984999999999999654e-02 0.000000000000000000e+00
-3.969999999999999918e-02 0.000000000000000000e+00
-3.955000000000000182e-02 0.000000000000000000e+00
-3.939999999999999752e-02 0.000000000000000000e+00
-3.925000000000000017e-02 0.000000000000000000e+00
-3.910000000000000281e-02 0.000000000000000000e+00
-3.894999999999999851e-02 0.000000000000000000e+00
-3.880000000000000115e-02 0.000000000000000000e+00
-3.864999999999999686e-02 0.000000000000000000e+00
-3.849999999999999950e-02 0.000000000000000000e+00
-3.835000000000000214e-02 0.000000000000000000e+00
-3.819999999999999785e-02 0.000000000000000000e+00
-3.805000000000000049e-02 0.000000000000000000e+00
-3.790000000000000313e-02 0.000000000000000000e+00
-3.774999999999999883e-02 0.000000000000000000e+00
-3.760000000000000148e-02 0.000000000000000000e+00
-3.744999999999999718e-02 0.000000000000000000e+00
-3.729999999999999982e-02 0.000000000000000000e+00
-3.715000000000000246e-02 0.000000000000000000e+00
-3.699999999999999817e-02 0.000000000000000000e+00
-3.685000000000000081e-02 0.000000000000000000e+00
-3.670000000000000345e-02 0.000000000000000000e+00
-3.654999999999999916e-02 0.000000000000000000e+00
-3.640000000000000180e-02 0.000000000000000000e+00
-3.624999999999999750e-02 0.000000000000000000e+00
-3.610000000000000014e-02 0.000000000000000000e+00
-3.595000000000000279e-02 0.000000000000000000e+00
-3.579999999999999849e-02 0.000000000000000000e+00
-3.565000000000000113e-02 0.000000000000000000e+00
-3.549999999999999684e-02 0.000000000000000000e+00
-3.534999999999999948e-02 0.000000000000000000e+00
-3.520000000000000212e-02 0.000000000000000000e+00
-3.504999999999999782e-02 0.000000000000000000e+00
-3.490000000000000047e-02 0.000000000000000000e+00
-3.475000000000000311e-02 0.000000000000000000e+00
-3.459999999999999881e-02 0.000000000000000000e+00
-3.445000000000000145e-02 0.000000000000000000e+00
-3.429999999999999716e-02 0.000000000000000000e+00
-3.414999999999999980e-02 0.000000000000000000e+00
-3.400000000000000244e-02 0.000000000000000000e+00
-3.384999999999999815e-02 0.000000000000000000e+00
-3.370000000000000079e-02 0.000000000000000000e+00
-3.355000000000000343e-02 0.000000000000000000e+00
-3.339999999999999913e-02 0.000000000000000000e+00
-3.325000000000000178e-02 0.000000000000000000e+00
-3.309999999999999748e-02 0.000000000000000000e+00
-3.295000000000000012e-02 0.000000000000000000e+00
-3.280000000000000276e-02 0.000000000000000000e+00
-3.264999999999999847e-02 0.000000000000000000e+00
-3.250000000000000111e-02 0.000000000000000000e+00
-3.234999999999999681e-02 0.000000000000000000e+00
-3.219999999999999946e-02 0.000000000000000000e+00
-3.205000000000000210e-02 0.000000000000000000e+00
-3.189999999999999780e-02 0.000000000000000000e+00
-3.175000000000000044e-02 0.000000000000000000e+00
-3.160000000000000309e-02 0.000000000000000000e+00
-3.144999999999999879e-02 0.000000000000000000e+00
-3.130000000000000143e-02 0.000000000000000000e+00
-3.115000000000000061e-02 0.000000000000000000e+00
-3.099999999999999978e-02 0.000000000000000000e+00
-3.084999999999999895e-02 0.000000000000000000e+00
-3.070000000000000159e-02 0.000000000000000000e+00
-3.055000000000000077e-02 0.000000000000000000e+00
-3.039999999999999994e-02 0.000000000000000000e+00
-3.024999999999999911e-02 0.000000000000000000e+00
-3.009999999999999828e-02 0.000000000000000000e+00
-2.995000000000000093e-02 0.000000000000000000e+00
-2.980000000000000010e-02 0.000000000000000000e+00
-2.964999999999999927e-02 0.000000000000000000e+00
-2.949999999999999845e-02 0.000000000000000000e+00
-2.935000000000000109e-02 0.000000000000000000e+00
-2.920000000000000026e-02 0.000000000000000000e+00
-2.904999999999999943e-02 0.000000000000000000e+00
-2.889999999999999861e-02 0.000000000000000000e+00
-2.875000000000000125e-02 0.000000000000000000e+00
-2.860000000000000042e-02 0.000000000000000000e+00
-2.844999999999999959e-02 0.000000000000000000e+00
-2.829999999999999877e-02 0.000000000000000000e+00
-2.815000000000000141e-02 0.000000000000000000e+00
-2.800000000000000058e-02 0.000000000000000000e+00
-2.784999999999999976e-02 0.000000000000000000e+00
-2.769999999999999893e-02 0.000000000000000000e+00
-2.755000000000000157e-02 0.000000000000000000e+00
-2.740000000000000074e-02 0.000000000000000000e+00
-2.724999999999999992e-02 0.000000000000000000e+00
-2.709999999999999909e-02 0.000000000000000000e+00
-2.695000000000000173e-02 0.000000000000000000e+00
-2.680000000000000090e-02 0.000000000000000000e+00
-2.665000000000000008e-02 0.000000000000000000e+00
-2.649999999999999925e-02 0.000000000000000000e+00
-2.634999999999999842e-02 0.000000000000000000e+00
-2.620000000000000107e-02 0.000000000000000000e+00
-2.605000000000000024e-02 0.000000000000000000e+00
-2.589999999999999941e-02 0.000000000000000000e+00
-2.574999999999999858e-02 0.000000000000000000e+00
-2.560000000000000123e-02 0.000000000000000000e+00
-2.545000000000000040e-02 0.000000000000000000e+00
-2.529999999999999957e-02 0.000000000000000000e+00
-2.514999999999999875e-02 0.000000000000000000e+00
-2.500000000000000139e-02 0.000000000000000000e+00
-2.485000000000000056e-02 0.000000000000000000e+00
-2.469999999999999973e-02 0.000000000000000000e+00
-2.454999999999999891e-02 0.000000000000000000e+00
-2.440000000000000155e-02 0.000000000000000000e+00
-2.425000000000000072e-02 0.000000000000000000e+00
-2.409999999999999989e-02 0.000000000000000000e+00
-2.394999999999999907e-02 0.000000000000000000e+00
-2.380000000000000171e-02 0.000000000000000000e+00
-2.365000000000000088e-02 0.000000000000000000e+00
-2.350000000000000006e-02 0.000000000000000000e+00
-2.334999999999999923e-02 0.000000000000000000e+00
-2.319999999999999840e-02 0.000000000000000000e+00
-2.305000000000000104e-02 0.000000000000000000e+00
-2.290000000000000022e-02 0.000000000000000000e+00
-2.274999999999999939e-02 0.000000000000000000e+00
-2.259999999999999856e-02 0.000000000000000000e+00
-2.245000000000000120e-02 0.000000000000000000e+00
-2.230000000000000038e-02 0.000000000000000000e+00
-2.214999999999999955e-02 0.000000000000000000e+00
-2.199999999999999872e-02 0.000000000000000000e+00
-2.185000000000000137e-02 0.000000000000000000e+00
-2.170000000000000054e-02 0.000000000000000000e+00
-2.154999999999999971e-02 0.000000000000000000e+00
-2.139999999999999888e-02 0.000000000000000000e+00
-2.125000000000000153e-02 0.000000000000000000e+00
-2.110000000000000070e-02 0.000000000000000000e+00
-2.094999999999999987e-02 0.000000000000000000e+00
-2.079999999999999905e-02 0.000000000000000000e+00
-2.065000000000000169e-02 0.000000000000000000e+00
-2.050000000000000086e-02 0.000000000000000000e+00
-2.035000000000000003e-02 0.000000000000000000e+00
-2.019999999999999921e-02 0.000000000000000000e+00
-2.004999999999999838e-02 0.000000000000000000e+00
-1.990000000000000102e-02 0.000000000000000000e+00
-1.975000000000000019e-02 0.000000000000000000e+00
-1.959999999999999937e-02 0.000000000000000000e+00
-1.944999999999999854e-02 0.000000000000000000e+00
-1.930000000000000118e-02 0.000000000000000000e+00
-1.915000000000000036e-02 0.000000000000000000e+00
-1.899999999999999953e-02 0.000000000000000000e+00
-1.884999999999999870e-02 0.000000000000000000e+00
-1.870000000000000134e-02 0.000000000000000000e+00
-1.855000000000000052e-02 0.000000000000000000e+00
-1.839999999999999969e-02 0.000000000000000000e+00
-1.824999999999999886e-02 0.000000000000000000e+00
-1.810000000000000150e-02 0.000000000000000000e+00
-1.795000000000000068e-02 0.000000000000000000e+00
-1.779999999999999985e-02 0.000000000000000000e+00
-1.764999999999999902e-02 0.000000000000000000e+00
-1.750000000000000167e-02 0.000000000000000000e+00
-1.735000000000000084e-02 0.000000000000000000e+00
-1.720000000000000001e-02 0.000000000000000000e+00
-1.704999999999999918e-02 0.000000000000000000e+00
-1.689999999999999836e-02 0.000000000000000000e+00
-1.675000000000000100e-02 0.000000000000000000e+00
-1.660000000000000017e-02 0.000000000000000000e+00
-1.644999999999999934e-02 0.000000000000000000e+00
-1.629999999999999852e-02 0.000000000000000000e+00
-1.615000000000000116e-02 0.000000000000000000e+00
-1.600000000000000033e-02 0.000000000000000000e+00
-1.584999999999999951e-02 0.000000000000000000e+00
-1.569999999999999868e-02 0.000000000000000000e+00
-1.554999999999999959e-02 0.000000000000000000e+00
-1.540000000000000049e-02 0.000000000000000000e+00
-1.524999999999999967e-02 0.000000000000000000e+00
-1.510000000000000057e-02 0.000000000000000000e+00
-1.494999999999999975e-02 0.000000000000000000e+00
-1.480000000000000066e-02 0.000000000000000000e+00
-1.464999999999999983e-02 0.000000000000000000e+00
-1.450000000000000074e-02 0.000000000000000000e+00
-1.434999999999999991e-02 0.000000000000000000e+00
-1.420000000000000082e-02 0.000000000000000000e+00
-1.404999999999999999e-02 0.000000000000000000e+00
-1.389999999999999916e-02 0.000000000000000000e+00
-1.375000000000000007e-02 0.000000000000000000e+00
-1.359999999999999924e-02 0.000000000000000000e+00
-1.345000000000000015e-02 0.000000000000000000e+00
-1.329999999999999932e-02 0.000000000000000000e+00
-1.315000000000000023e-02 0.000000000000000000e+00
-1.299999999999999940e-02 0.000000000000000000e+00
-1.285000000000000031e-02 0.000000000000000000e+00
-1.269999999999999948e-02 0.000000000000000000e+00
-1.255000000000000039e-02 0.000000000000000000e+00
-1.239999999999999956e-02 0.000000000000000000e+00
-1.225000000000000047e-02 0.000000000000000000e+00
-1.209999999999999964e-02 0.000000000000000000e+00
-1.195000000000000055e-02 0.000000000000000000e+00
-1.179999999999999973e-02 0.000000000000000000e+00
-1.165000000000000063e-02 0.000000000000000000e+00
-1.149999999999999981e-02 0.000000000000000000e+00
-1.135000000000000071e-02 0.000000000000000000e+00
-1.119999999999999989e-02 0.000000000000000000e+00
-1.105000000000000079e-02 0.000000000000000000e+00
-1.089999999999999997e-02 0.000000000000000000e+00
-1.074999999999999914e-02 0.000000000000000000e+00
-1.060000000000000005e-02 0.000000000000000000e+00
-1.044999999999999922e-02 0.000000000000000000e+00
-1.030000000000000013e-02 0.000000000000000000e+00
-1.014999999999999930e-02 0.000000000000000000e+00
-1.000000000000000021e-02 0.000000000000000000e+00
-9.850001000000000589e-03 0.000000000000000000e+00
-9.700001999999999236e-03 0.000000000000000000e+00
-9.550001000000000670e-03 0.000000000000000000e+00
-9.400000999999999843e-03 0.000000000000000000e+00
-9.250002000000000224e-03 0.000000000000000000e+00
-9.100000999999999923e-03 0.000000000000000000e+00
-8.950001000000000831e-03 0.000000000000000000e+00
-8.800001999999999477e-03 0.000000000000000000e+00
-8.650000999999999177e-03 0.000000000000000000e+00
-8.500001999999999558e-03 0.000000000000000000e+00
-8.349999999999999784e-03 0.000000000000000000e+00
-8.200001000000000165e-03 0.000000000000000000e+00
-8.050002000000000546e-03 0.000000000000000000e+00
-7.900000000000000772e-03 0.000000000000000000e+00
-7.750001000000000285e-03 0.000000000000000000e+00
-7.600001999999999799e-03 0.000000000000000000e+00
-7.449998999999999684e-03 0.000000000000000000e+00
-7.300001000000000406e-03 0.000000000000000000e+00
-7.150001999999999920e-03 0.000000000000000000e+00
-7.000003000000000301e-03 0.000000000000000000e+00
-6.850000000000000186e-03 0.000000000000000000e+00
-6.700002000000000041e-03 0.000000000000000000e+00
-6.550003000000000422e-03 0.000000000000000000e+00
-6.400000000000000307e-03 0.000000000000000000e+00
-6.250000999999999821e-03 0.000000000000000000e+00
-6.100002999999999675e-03 0.000000000000000000e+00
-5.950000000000000427e-03 0.000000000000000000e+00
-5.800000999999999941e-03 0.000000000000000000e+00
-5.650002999999999796e-03 0.000000000000000000e+00
-5.499999999999999681e-03 0.000000000000000000e+00
-5.350001000000000062e-03 0.000000000000000000e+00
-5.200001999999999576e-03 0.000000000000000000e+00
-5.049999999999999802e-03 0.000000000000000000e+00
-4.900001000000000183e-03 0.000000000000000000e+00
-4.750001999999999697e-03 0.000000000000000000e+00
-4.599999999999999922e-03 0.000000000000000000e+00
-4.450001000000000304e-03 0.000000000000000000e+00
-4.300001999999999817e-03 0.000000000000000000e+00
-4.149998999999999702e-03 0.000000000000000000e+00
-4.000001000000000424e-03 0.000000000000000000e+00
-3.850001999999999938e-03 0.000000000000000000e+00
-3.699998999999999823e-03 0.000000000000000000e+00
-3.550000000000000204e-03 0.000000000000000000e+00
-3.400002000000000059e-03 0.000000000000000000e+00
-3.250003000000000006e-03 0.000000000000000000e+00
-3.099999999999999891e-03 0.000000000000000000e+00
-2.950002000000000180e-03 0.000000000000000000e+00
-2.800003000000000127e-03 0.000000000000000000e+00
-2.650000000000000012e-03 0.000000000000000000e+00
-2.500000999999999959e-03 0.000000000000000000e+00
-2.350002999999999814e-03 0.000000000000000000e+00
-2.200000000000000133e-03 0.000000000000000000e+00
-2.050001000000000080e-03 0.000000000000000000e+00
-1.900002000000000028e-03 0.000000000000000000e+00
-1.750000000000000036e-03 0.000000000000000000e+00
-1.600000999999999984e-03 0.000000000000000000e+00
-1.450001999999999932e-03 0.000000000000000000e+00
-1.299999999999999940e-03 0.000000000000000000e+00
-1.150001000000000105e-03 0.000000000000000000e+00
-1.000002000000000052e-03 0.000000000000000000e+00
-8.499994999999999990e-04 0.000000000000000000e+00
-7.000007000000000148e-04 0.000000000000000000e+00
-5.500019000000000305e-04 0.000000000000000000e+00
-3.999992999999999973e-04 0.000000000000000000e+00
-2.500005000000000131e-04 0.000000000000000000e+00
-1.000017000000000017e-04 0.000000000000000000e+00
5.000085000000000087e-05 0.000000000000000000e+00
1.999996999999999886e-04 0.000000000000000000e+00
3.499985000000000270e-04 -0.000000000000000000e+00
4.999972999999999571e-04 -0.000000000000000000e+00
6.499998000000000104e-04 0.000000000000000000e+00
7.999985999999999946e-04 -0.000000000000000000e+00
9.499975000000000129e-04 -0.000000000000000000e+00
1.100000000000000066e-03 5.605193857299268284e-45
1.249998999999999902e-03 -5.605193857299268284e-45
1.399997999999999954e-03 -1.317220556465328047e-43
1.549999999999999946e-03 8.239634970229924377e-43
1.699998999999999998e-03 -1.050973848243612803e-43
1.849998000000000050e-03 -2.184484176035957332e-41
2.000000000000000042e-03 9.524625662015781631e-41
2.149999000000000094e-03 1.679400157554720267e-40
2.299998000000000146e-03 -2.970452866497246680e-39
2.449999999999999921e-03 6.887016213257287126e-39
2.599998999999999973e-03 4.370172347712462547e-38
2.749998000000000026e-03 -2.943199180820409031e-37
2.900001000000000141e-03 -1.367650765859142428e-38
3.049998999999999853e-03 6.043595709477920033e-36
3.199997999999999905e-03 -1.628438784296445406e-35
3.350001000000000020e-03 -7.270009542581670490e-35
3.500000000000000073e-03 4.710862946719916472e-34
3.649997999999999784e-03 2.281730503039545154e-34
3.800000999999999900e-03 -8.429764598018298555e-33
3.950000000000000386e-03 1.228189264644155160e-32
4.099999000000000005e-03 1.103592535217235401e-31
4.249997000000000150e-03 -3.585581030954453028e-31
4.400000000000000265e-03 -1.080008850665445028e-30
4.549998999999999884e-03 6.331182480873459467e-30
4.699998000000000370e-03 7.226033479928453977e-30
4.850000000000000144e-03 -8.748922560221003931e-29
4.999998999999999763e-03 -1.545634764325593925e-29
5.149998000000000249e-03 1.029013391485417109e-27
5.300000000000000024e-03 -3.894355051514889968e-28
5.449998999999999642e-03 -1.077218609102852980e-26
5.599998000000000128e-03 6.880151303614140352e-27
5.749999999999999903e-03 1.030018087507645710e-25
5.899999000000000389e-03 -6.404810993295971161e-26
6.049998000000000008e-03 -9.059222429218602576e-25
6.200001000000000123e-03 3.064580403149395148e-25
6.349999000000000268e-03 7.205349012066516994e-24
6.499997999999999887e-03 1.286464996511176553e-24
6.650001000000000002e-03 -4.943124232238626097e-23
6.799999999999999621e-03 -4.463221016091785654e-23
6.949997999999999766e-03 2.656940579205033344e-22
7.100000999999999882e-03 5.128045723979169965e-22
7.250000000000000368e-03 -8.649299166525835769e-22
7.399998999999999987e-03 -3.575376318351440060e-21
7.550000999999999761e-03 -7.418039007205128446e-22
7.700000000000000247e-03 1.394620373533295868e-20
7.849998999999999866e-03 2.452984557921683469e-20
7.999997999999999485e-03 -7.311478514924621686e-21
8.149999999999999259e-03 -9.110279045914360365e-20
8.299999000000000612e-03 -1.605336944386422339e-19
8.449998000000000231e-03 -1.066014409520024027e-19
8.600000000000000006e-03 1.600684958169606538e-19
8.749998999999999624e-03 7.191424493499001611e-19
8.899997999999999243e-03 1.676129413503577395e-18
9.050000000000000752e-03 3.136266252637920757e-18
9.199999000000000371e-03 5.185185392101410469e-18
9.349997999999999990e-03 7.926571543533307459e-18
9.500000999999999238e-03 1.148328522293065351e-17
9.649998999999999383e-03 1.596606978429235426e-17
9.799998000000000736e-03 2.149751753030183115e-17
9.950000999999999984e-03 2.822750200742511707e-17
1.009999999999999960e-02 3.630226709360036220e-17
1.025000000000000043e-02 4.587847417940020957e-17
1.039999999999999952e-02 5.714411825700081086e-17
1.055000000000000035e-02 7.029059237653468564e-17
1.069999999999999944e-02 8.552264028322095930e-17
1.085000000000000027e-02 1.030799524487978976e-16
1.099999999999999936e-02 1.232114242108602563e-16
1.115000000000000019e-02 1.461856708928060554e-16
1.129999999999999928e-02 1.723104698569540255e-16
1.145000000000000011e-02 2.019084877166488516e-16
1.159999999999999920e-02 2.353314019636786785e-16
1.175000000000000003e-02 2.729751343264358874e-16
1.190000000000000085e-02 3.152570338199004330e-16
1.204999999999999995e-02 3.626359276036881293e-16
1.220000000000000077e-02 4.156201148554903614e-16
1.234999999999999987e-02 4.747488379253528984e-16
1.250000000000000069e-02 5.406175609751955134e-16
1.264999999999999979e-02 6.138772817645423395e-16
1.280000000000000061e-02 6.952237319804443778e-16
1.294999999999999971e-02 7.854251705060612786e-16
1.310000000000000053e-02 8.853131189978007479e-16
1.324999999999999963e-02 9.957833677369434117e-16
1.340000000000000045e-02 1.117820804282909208e-15
1.354999999999999954e-02 1.252485278610950079e-15
1.370000000000000037e-02 1.400926426188726925e-15
1.384999999999999946e-02 1.564399338085833806e-15
1.400000000000000029e-02 1.744253020149891600e-15
1.414999999999999938e-02 1.941955592236728825e-15
1.430000000000000021e-02 2.159098629254236311e-15
1.444999999999999930e-02 2.397395255338235880e-15
1.460000000000000013e-02 2.658710425280344687e-15
1.474999999999999922e-02 2.945054360022634002e-15
1.490000000000000005e-02 3.258597581492442968e-15
1.504999999999999914e-02 3.601693782491954474e-15
1.519999999999999997e-02 3.976875591533458876e-15
1.535000000000000080e-02 4.386880619102482073e-15
1.549999999999999989e-02 4.834666280734362456e-15
1.565000000000000072e-02 5.323411914596619041e-15
1.580000000000000154e-02 5.856555627422157032e-15
1.594999999999999890e-02 6.437794718025741450e-15
1.609999999999999973e-02 7.071110664775941135e-15
1.625000000000000056e-02 7.760797077682388134e-15
1.640000000000000138e-02 8.511461392461672215e-15
1.654999999999999874e-02 9.328068916250598086e-15
1.669999999999999957e-02 1.021595256848507882e-14
1.685000000000000039e-02 1.118083829188855349e-14
1.700000000000000122e-02 1.222888316895461361e-14
1.714999999999999858e-02 1.336668897447415919e-14
1.729999999999999941e-02 1.460134029201802519e-14
1.745000000000000023e-02 1.594043839525487172e-14
1.760000000000000106e-02 1.739212581190665435e-14
1.774999999999999842e-02 1.896512867539598690e-14
1.789999999999999925e-02 2.066879145319697880e-14
1.805000000000000007e-02 2.251310913408723080e-14
1.820000000000000090e-02 2.450878652045414274e-14
1.835000000000000173e-02 2.666725686301975318e-14
1.849999999999999908e-02 2.900075131754241420e-14
1.864999999999999991e-02 3.152233113206878712e-14
1.880000000000000074e-02 3.424593508077888870e-14
1.895000000000000157e-02 3.718645061475366054e-14
1.909999999999999892e-02 4.035975451955643722e-14
1.924999999999999975e-02 4.378277051347335969e-14
1.940000000000000058e-02 4.747353362201736648e-14
1.955000000000000140e-02 5.145125794056397417e-14
1.969999999999999876e-02 5.573639762072347958e-14
1.984999999999999959e-02 6.035071802110852923e-14
2.000000000000000042e-02 6.531736685810168863e-14
2.015000000000000124e-02 7.066095213288658972e-14
2.029999999999999860e-02 7.640760989408371118e-14
2.044999999999999943e-02 8.258511604609941603e-14
2.060000000000000026e-02 8.922293378297099786e-14
2.075000000000000108e-02 9.635232878484750740e-14
2.089999999999999844e-02 1.040064640856798450e-13
2.104999999999999927e-02 1.122204746121201191e-13
2.120000000000000009e-02 1.210315756037388946e-13
2.135000000000000092e-02 1.304791778095060195e-13
2.149999999999999828e-02 1.406049891317442957e-13
2.164999999999999911e-02 1.514531094938195710e-13
2.179999999999999993e-02 1.630701866942030342e-13
2.195000000000000076e-02 1.755054706165798395e-13
2.210000000000000159e-02 1.888110029652292909e-13
2.224999999999999895e-02 2.030417121327149355e-13
2.239999999999999977e-02 2.182555216201018111e-13
2.255000000000000060e-02 2.345135262198094761e-13
2.270000000000000143e-02 2.518800868833021012e-13
2.284999999999999878e-02 2.704230611140501228e-13
2.299999999999999961e-02 2.902137894150030872e-13
2.315000000000000044e-02 3.113274069967142399e-13
2.330000000000000127e-02 3.338428979874491498e-13
2.344999999999999862e-02 3.578432851685658944e-13
2.359999999999999945e-02 3.834157926048409326e-13
2.375000000000000028e-02 4.106519811697406652e-13
2.390000000000000110e-02 4.396479382808016201e-13
2.404999999999999846e-02 4.705044405299563248e-13
2.419999999999999929e-02 5.033270892088048676e-13
2.435000000000000012e-02 5.382266355692666426e-13
2.450000000000000094e-02 5.753188181932544776e-13
2.464999999999999830e-02 6.147249593038695004e-13
2.479999999999999913e-02 6.565719105552925150e-13
2.494999999999999996e-02 7.009922156631098744e-13
2.510000000000000078e-02 7.481243272447479775e-13
2.525000000000000161e-02 7.981128236599077663e-13
2.539999999999999897e-02 8.511086258509992231e-13
2.554999999999999979e-02 9.072690515532499944e-13
2.570000000000000062e-02 9.667581405553571372e-13
2.585000000000000145e-02 1.029746817329812991e-12
2.599999999999999881e-02 1.096412782612687931e-12
2.614999999999999963e-02 1.166941218135042480e-12
2.630000000000000046e-02 1.241524461362275567e-12
2.645000000000000129e-02 1.320362547595210767e-12
2.659999999999999865e-02 1.403662993129661807e-12
2.674999999999999947e-02 1.491641554197953301e-12
2.690000000000000030e-02 1.584521793288051761e-12
2.705000000000000113e-02 1.682535404404217338e-12
2.719999999999999848e-02 1.785922646747872822e-12
2.734999999999999931e-02 1.894932127877169137e-12
2.750000000000000014e-02 2.009820912127202597e-12
2.765000000000000097e-02 2.130855387971752890e-12
2.779999999999999832e-02 2.258310292241327843e-12
2.794999999999999915e-02 2.392469469064684162e-12
2.809999999999999998e-02 2.533626303549696424e-12
2.825000000000000080e-02 2.682082203900315598e-12
2.840000000000000163e-02 2.838148769820914019e-12
2.854999999999999899e-02 3.002146925154547397e-12
2.869999999999999982e-02 3.174406484202085821e-12
2.885000000000000064e-02 3.355267019083951752e-12
2.900000000000000147e-02 3.545077426059251025e-12
2.914999999999999883e-02 3.744195925525772850e-12
2.929999999999999966e-02 3.952989845179555317e-12
2.945000000000000048e-02 4.171836921057492376e-12
2.960000000000000131e-02 4.401122695452119871e-12
2.974999999999999867e-02 4.641243986358567497e-12
2.989999999999999949e-02 4.892604984346737851e-12
3.005000000000000032e-02 5.155618987284782406e-12
3.020000000000000115e-02 5.430709267700839504e-12
3.034999999999999851e-02 5.718307338059558376e-12
3.049999999999999933e-02 6.018852950762099141e-12
3.065000000000000016e-02 6.332794965507870799e-12
3.080000000000000099e-02 6.660590048251924244e-12
3.094999999999999835e-02 7.002702237524083273e-12
3.109999999999999917e-02 7.359603378109813576e-12
3.125000000000000000e-02 7.731773554731091735e-12
3.139999999999999736e-02 8.119698489961191257e-12
3.155000000000000165e-02 8.523870845267289553e-12
3.169999999999999901e-02 8.944790221010467945e-12
3.185000000000000331e-02 9.382960554360497696e-12
3.200000000000000067e-02 9.838893588742791962e-12
3.214999999999999802e-02 1.031310280230623988e-11
3.230000000000000232e-02 1.080610774473189650e-11
3.244999999999999968e-02 1.131843143514776884e-11
3.259999999999999704e-02 1.185059949476707786e-11
3.275000000000000133e-02 1.240314014688825850e-11
3.289999999999999869e-02 1.297658421689495967e-11
3.305000000000000299e-02 1.357146253017083026e-11
3.320000000000000034e-02 1.418830764682299517e-11
3.334999999999999770e-02 1.482765125959684127e-11
3.350000000000000200e-02 1.549002419387601748e-11
3.364999999999999936e-02 1.617595640768243470e-11
3.379999999999999671e-02 1.688597525695278989e-11
3.395000000000000101e-02 1.762060115872987609e-11
3.409999999999999837e-02 1.838035453005648634e-11
3.425000000000000266e-02 1.916574884908150977e-11
3.440000000000000002e-02 1.997729065505993162e-11
3.454999999999999738e-02 2.081548128307630918e-11
3.470000000000000168e-02 2.168081165987434389e-11
3.484999999999999903e-02 2.257376403858035729e-11
3.500000000000000333e-02 2.349481373342676704e-11
3.515000000000000069e-02 2.444442044613470699e-11
3.529999999999999805e-02 2.542303520480793111e-11
3.545000000000000234e-02 2.643109342503890957e-11
3.559999999999999970e-02 2.746901664463230475e-11
3.574999999999999706e-02 2.853720905415801923e-11
3.590000000000000135e-02 2.963606096639814780e-11
3.604999999999999871e-02 3.076594881634697742e-11
3.620000000000000301e-02 3.192721781397622749e-11
3.635000000000000037e-02 3.312020796508718945e-11
3.649999999999999772e-02 3.434522805045858718e-11
3.665000000000000202e-02 3.560256603418743282e-11
3.679999999999999938e-02 3.689249253313597876e-11
3.694999999999999674e-02 3.821525387803781371e-11
3.710000000000000103e-02 3.957105823571005487e-11
3.724999999999999839e-02 4.096009642573505971e-11
3.740000000000000269e-02 4.238253151211957004e-11
3.755000000000000004e-02 4.383849533384776009e-11
3.769999999999999740e-02 4.532809891322209239e-11
3.785000000000000170e-02 4.685140470028770210e-11
3.799999999999999906e-02 4.840846126730191656e-11
3.815000000000000335e-02 4.999927208371168774e-11
3.830000000000000071e-02 5.162381286338835196e-11
3.844999999999999807e-02 5.328202809518067795e-11
3.860000000000000236e-02 5.497381716512705907e-11
3.874999999999999972e-02 5.669904823424332108e-11
3.889999999999999708e-02 5.845755129962881824e-11
3.905000000000000138e-02 6.024912513336033726e-11
3.919999999999999873e-02 6.207351993525733747e-11
3.935000000000000303e-02 6.393045814956366257e-11
3.950000000000000039e-02 6.581962058715973285e-11
3.964999999999999775e-02 6.774063254777473730e-11
3.980000000000000204e-02 6.969309157556224932e-11
3.994999999999999940e-02 7.167655358131241883e-11
4.009999999999999676e-02 7.369053284245197233e-11
4.025000000000000105e-02 7.573450894193811678e-11
4.039999999999999841e-02 7.780791289047073178e-11
4.055000000000000271e-02 7.991012712649236960e-11
4.070000000000000007e-02 8.204050633286996685e-11
4.084999999999999742e-02 8.419835662021313283e-11
4.100000000000000172e-02 8.638293552687414945e-11
4.114999999999999908e-02 8.859346589673577910e-11
4.130000000000000338e-02 9.082913587921126464e-11
4.145000000000000073e-02 9.308909199035042548e-11
4.159999999999999809e-02 9.537243217394575368e-11
4.175000000000000239e-02 9.767821967932022176e-11
4.189999999999999974e-02 1.000054830613272827e-10
4.204999999999999710e-02 1.023532023025630622e-10
4.220000000000000140e-02 1.047203296300480702e-10
4.234999999999999876e-02 1.071057686985454893e-10
4.250000000000000305e-02 1.095084023461367906e-10
4.265000000000000041e-02 1.119270648386461176e-10
4.279999999999999777e-02 1.143605696252159021e-10
4.295000000000000207e-02 1.168076885216251526e-10
4.309999999999999942e-02 1.192671655880772619e-10
4.324999999999999678e-02 1.217377310069878149e-10
4.340000000000000108e-02 1.242180386329394537e-10
4.354999999999999843e-02 1.267067839538782437e-10
4.370000000000000273e-02 1.292025653132355956e-10
4.385000000000000009e-02 1.317040088100185358e-10
4.399999999999999745e-02 1.342096989098706672e-10
4.415000000000000174e-02 1.367182062006477850e-10
4.429999999999999910e-02 1.392280596368422607e-10
4.445000000000000340e-02 1.417378159285220818e-10
4.460000000000000075e-02 1.442459901523918120e-10
4.474999999999999811e-02 1.467510696295803996e-10
4.490000000000000241e-02 1.492515555590046006e-10
4.504999999999999977e-02 1.517459630173689789e-10
4.519999999999999712e-02 1.542327099368634435e-10
4.535000000000000142e-02 1.567103113941925585e-10
4.549999999999999878e-02 1.591772269549096563e-10
4.565000000000000308e-02 1.616319161845680696e-10
4.580000000000000043e-02 1.640728664042967466e-10
4.594999999999999779e-02 1.664985371796490199e-10
4.610000000000000209e-02 1.689074158317538377e-10
4.624999999999999944e-02 1.712980035595279560e-10
4.639999999999999680e-02 1.736687876841003231e-10
4.655000000000000110e-02 1.760182971599633106e-10
4.669999999999999846e-02 1.783450470638214824e-10
4.685000000000000275e-02 1.806475802279550180e-10
4.700000000000000011e-02 1.829244533624319047e-10
4.714999999999999747e-02 1.851742648106835532e-10
4.730000000000000177e-02 1.873956129161413742e-10
4.744999999999999912e-02 1.895871376556002019e-10
4.760000000000000342e-02 1.917475206392182940e-10
4.775000000000000078e-02 1.938754295993661003e-10
4.789999999999999813e-02 1.959695739017774940e-10
4.805000000000000243e-02 1.980287323011253875e-10
4.819999999999999979e-02 2.000516835520826930e-10
4.834999999999999715e-02 2.020372480426857464e-10
4.850000000000000144e-02 2.039843016721221147e-10
4.864999999999999880e-02 2.058917342173671727e-10
4.880000000000000310e-02 2.077584909665475266e-10
4.895000000000000046e-02 2.095835727189410136e-10