-4.000000000000000083e-02 0.000000000000000000e+00
-3.984999999999999654e-02 0.000000000000000000e+00
-3.969999999999999918e-02 0.000000000000000000e+00
-3.955000000000000182e-02 0.000000000000000000e+00
-3.939999999999999752e-02 0.000000000000000000e+00
-3.925000000000000017e-02 0.000000000000000000e+00
-3.910000000000000281e-02 0.000000000000000000e+00
-3.894999999999999851e-02 0.000000000000000000e+00
-3.880000000000000115e-02 0.000000000000000000e+00
-3.864999999999999686e-02 0.000000000000000000e+00
-3.849999999999999950e-02 0.000000000000000000e+00
-3.835000000000000214e-02 0.000000000000000000e+00
-3.819999999999999785e-02 0.000000000000000000e+00
-3.805000000000000049e-02 0.000000000000000000e+00
-3.790000000000000313e-02 0.000000000000000000e+00
-3.774999999999999883e-02 0.000000000000000000e+00
-3.760000000000000148e-02 0.000000000000000000e+00
-3.744999999999999718e-02 0.000000000000000000e+00
-3.729999999999999982e-02 0.000000000000000000e+00
-3.715000000000000246e-02 0.000000000000000000e+00
-3.699999999999999817e-02 0.000000000000000000e+00
-3.685000000000000081e-02 0.000000000000000000e+00
-3.670000000000000345e-02 0.000000000000000000e+00
-3.654999999999999916e-02 0.000000000000000000e+00
-3.640000000000000180e-02 0.000000000000000000e+00
-3.624999999999999750e-02 0.000000000000000000e+00
-3.610000000000000014e-02 0.000000000000000000e+00
-3.595000000000000279e-02 0.000000000000000000e+00
-3.579999999999999849e-02 0.000000000000000000e+00
-3.565000000000000113e-02 0.000000000000000000e+00
-3.549999999999999684e-02 0.000000000000000000e+00
-3.534999999999999948e-02 0.000000000000000000e+00
-3.520000000000000212e-02 0.000000000000000000e+00
-3.504999999999999782e-02 0.000000000000000000e+00
-3.490000000000000047e-02 0.000000000000000000e+00
-3.475000000000000311e-02 0.000000000000000000e+00
-3.459999999999999881e-02 0.000000000000000000e+00
-3.445000000000000145e-02 0.000000000000000000e+00
-3.429999999999999716e-02 0.000000000000000000e+00
-3.414999999999999980e-02 0.000000000000000000e+00
-3.400000000000000244e-02 0.000000000000000000e+00
-3.384999999999999815e-02 0.000000000000000000e+00
-3.370000000000000079e-02 0.000000000000000000e+00
-3.355000000000000343e-02 0.000000000000000000e+00
-3.339999999999999913e-02 0.000000000000000000e+00
-3.325000000000000178e-02 0.000000000000000000e+00
-3.309999999999999748e-02 0.000000000000000000e+00
-3.295000000000000012e-02 0.000000000000000000e+00
-3.280000000000000276e-02 0.000000000000000000e+00
-3.264999999999999847e-02 0.000000000000000000e+00
-3.250000000000000111e-02 0.000000000000000000e+00
-3.234999999999999681e-02 0.000000000000000000e+00
-3.219999999999999946e-02 0.000000000000000000e+00
-3.205000000000000210e-02 0.000000000000000000e+00
-3.189999999999999780e-02 0.000000000000000000e+00
-3.175000000000000044e-02 0.000000000000000000e+00
-3.160000000000000309e-02 0.000000000000000000e+00
-3.144999999999999879e-02 0.000000000000000000e+00
-3.130000000000000143e-02 0.000000000000000000e+00
-3.115000000000000061e-02 0.000000000000000000e+00
-3.099999999999999978e-02 0.000000000000000000e+00
-3.084999999999999895e-02 0.000000000000000000e+00
-3.070000000000000159e-02 0.000000000000000000e+00
-3.055000000000000077e-02 0.000000000000000000e+00
-3.039999999999999994e-02 0.000000000000000000e+00
-3.024999999999999911e-02 0.000000000000000000e+00
-3.009999999999999828e-02 0.000000000000000000e+00
-2.995000000000000093e-02 0.000000000000000000e+00
-2.980000000000000010e-02 0.000000000000000000e+00
-2.964999999999999927e-02 0.000000000000000000e+00
-2.949999999999999845e-02 0.000000000000000000e+00
-2.935000000000000109e-02 0.000000000000000000e+00
-2.920000000000000026e-02 0.000000000000000000e+00
-2.904999999999999943e-02 0.000000000000000000e+00
-2.889999999999999861e-02 0.000000000000000000e+00
-2.875000000000000125e-02 0.000000000000000000e+00
-2.860000000000000042e-02 0.000000000000000000e+00
-2.844999999999999959e-02 0.000000000000000000e+00
-2.829999999999999877e-02 0.000000000000000000e+00
-2.815000000000000141e-02 0.000000000000000000e+00
-2.800000000000000058e-02 0.000000000000000000e+00
-2.784999999999999976e-02 0.000000000000000000e+00
-2.769999999999999893e-02 0.000000000000000000e+00
-2.755000000000000157e-02 0.000000000000000000e+00
-2.740000000000000074e-02 0.000000000000000000e+00
-2.724999999999999992e-02 0.000000000000000000e+00
-2.709999999999999909e-02 0.000000000000000000e+00
-2.695000000000000173e-02 0.000000000000000000e+00
-2.680000000000000090e-02 0.000000000000000000e+00
-2.665000000000000008e-02 0.000000000000000000e+00
-2.649999999999999925e-02 0.000000000000000000e+00
-2.634999999999999842e-02 0.000000000000000000e+00
-2.620000000000000107e-02 0.000000000000000000e+00
-2.605000000000000024e-02 0.000000000000000000e+00
-2.589999999999999941e-02 0.000000000000000000e+00
-2.574999999999999858e-02 0.000000000000000000e+00
-2.560000000000000123e-02 0.000000000000000000e+00
-2.545000000000000040e-02 0.000000000000000000e+00
-2.529999999999999957e-02 0.000000000000000000e+00
-2.514999999999999875e-02 0.000000000000000000e+00
-2.500000000000000139e-02 0.000000000000000000e+00
-2.485000000000000056e-02 0.000000000000000000e+00
-2.469999999999999973e-02 0.000000000000000000e+00
-2.454999999999999891e-02 0.000000000000000000e+00
-2.440000000000000155e-02 0.000000000000000000e+00
-2.425000000000000072e-02 0.000000000000000000e+00
-2.409999999999999989e-02 0.000000000000000000e+00
-2.394999999999999907e-02 0.000000000000000000e+00
-2.380000000000000171e-02 0.000000000000000000e+00
-2.365000000000000088e-02 0.000000000000000000e+00
-2.350000000000000006e-02 0.000000000000000000e+00
-2.334999999999999923e-02 0.000000000000000000e+00
-2.319999999999999840e-02 0.000000000000000000e+00
-2.305000000000000104e-02 0.000000000000000000e+00
-2.290000000000000022e-02 0.000000000000000000e+00
-2.274999999999999939e-02 0.000000000000000000e+00
-2.259999999999999856e-02 0.000000000000000000e+00
-2.245000000000000120e-02 0.000000000000000000e+00
-2.230000000000000038e-02 0.000000000000000000e+00
-2.214999999999999955e-02 0.000000000000000000e+00
-2.199999999999999872e-02 0.000000000000000000e+00
-2.185000000000000137e-02 0.000000000000000000e+00
-2.170000000000000054e-02 0.000000000000000000e+00
-2.154999999999999971e-02 0.000000000000000000e+00
-2.139999999999999888e-02 0.000000000000000000e+00
-2.125000000000000153e-02 0.000000000000000000e+00
-2.110000000000000070e-02 0.000000000000000000e+00
-2.094999999999999987e-02 0.000000000000000000e+00
-2.079999999999999905e-02 0.000000000000000000e+00
-2.065000000000000169e-02 0.000000000000000000e+00
-2.050000000000000086e-02 0.000000000000000000e+00
-2.035000000000000003e-02 0.000000000000000000e+00
-2.019999999999999921e-02 0.000000000000000000e+00
-2.004999999999999838e-02 0.000000000000000000e+00
-1.990000000000000102e-02 0.000000000000000000e+00
-1.975000000000000019e-02 0.000000000000000000e+00
-1.959999999999999937e-02 0.000000000000000000e+00
-1.944999999999999854e-02 0.000000000000000000e+00
-1.930000000000000118e-02 0.000000000000000000e+00
-1.915000000000000036e-02 0.000000000000000000e+00
-1.899999999999999953e-02 0.000000000000000000e+00
-1.884999999999999870e-02 0.000000000000000000e+00
-1.870000000000000134e-02 0.000000000000000000e+00
-1.855000000000000052e-02 0.000000000000000000e+00
-1.839999999999999969e-02 0.000000000000000000e+00
-1.824999999999999886e-02 0.000000000000000000e+00
-1.810000000000000150e-02 0.000000000000000000e+00
-1.795000000000000068e-02 0.000000000000000000e+00
-1.779999999999999985e-02 0.000000000000000000e+00
-1.764999999999999902e-02 0.000000000000000000e+00
-1.750000000000000167e-02 0.000000000000000000e+00
-1.735000000000000084e-02 0.000000000000000000e+00
-1.720000000000000001e-02 0.000000000000000000e+00
-1.704999999999999918e-02 0.000000000000000000e+00
-1.689999999999999836e-02 0.000000000000000000e+00
-1.675000000000000100e-02 0.000000000000000000e+00
-1.660000000000000017e-02 0.000000000000000000e+00
-1.644999999999999934e-02 0.000000000000000000e+00
-1.629999999999999852e-02 0.000000000000000000e+00
-1.615000000000000116e-02 0.000000000000000000e+00
-1.600000000000000033e-02 0.000000000000000000e+00
-1.584999999999999951e-02 0.000000000000000000e+00
-1.569999999999999868e-02 0.000000000000000000e+00
-1.554999999999999959e-02 0.000000000000000000e+00
-1.540000000000000049e-02 0.000000000000000000e+00
-1.524999999999999967e-02 0.000000000000000000e+00
-1.510000000000000057e-02 0.000000000000000000e+00
-1.494999999999999975e-02 0.000000000000000000e+00
-1.480000000000000066e-02 0.000000000000000000e+00
-1.464999999999999983e-02 0.000000000000000000e+00
-1.450000000000000074e-02 0.000000000000000000e+00
-1.434999999999999991e-02 0.000000000000000000e+00
-1.420000000000000082e-02 0.000000000000000000e+00
-1.404999999999999999e-02 0.000000000000000000e+00
-1.389999999999999916e-02 0.000000000000000000e+00
-1.375000000000000007e-02 0.000000000000000000e+00
-1.359999999999999924e-02 0.000000000000000000e+00
-1.345000000000000015e-02 0.000000000000000000e+00
-1.329999999999999932e-02 0.000000000000000000e+00
-1.315000000000000023e-02 0.000000000000000000e+00
-1.299999999999999940e-02 0.000000000000000000e+00
-1.285000000000000031e-02 0.000000000000000000e+00
-1.269999999999999948e-02 0.000000000000000000e+00
-1.255000000000000039e-02 0.000000000000000000e+00
-1.239999999999999956e-02 0.000000000000000000e+00
-1.225000000000000047e-02 0.000000000000000000e+00
-1.209999999999999964e-02 0.000000000000000000e+00
-1.195000000000000055e-02 0.000000000000000000e+00
-1.179999999999999973e-02 0.000000000000000000e+00
-1.165000000000000063e-02 0.000000000000000000e+00
-1.149999999999999981e-02 0.000000000000000000e+00
-1.135000000000000071e-02 0.000000000000000000e+00
-1.119999999999999989e-02 0.000000000000000000e+00
-1.105000000000000079e-02 0.000000000000000000e+00
-1.089999999999999997e-02 0.000000000000000000e+00
-1.074999999999999914e-02 0.000000000000000000e+00
-1.060000000000000005e-02 0.000000000000000000e+00
-1.044999999999999922e-02 0.000000000000000000e+00
-1.030000000000000013e-02 0.000000000000000000e+00
-1.014999999999999930e-02 0.000000000000000000e+00
-1.000000000000000021e-02 0.000000000000000000e+00
-9.850001000000000589e-03 0.000000000000000000e+00
-9.700001999999999236e-03 0.000000000000000000e+00
-9.550001000000000670e-03 0.000000000000000000e+00
-9.400000999999999843e-03 0.000000000000000000e+00
-9.250002000000000224e-03 0.000000000000000000e+00
-9.100000999999999923e-03 0.000000000000000000e+00
-8.950001000000000831e-03 0.000000000000000000e+00
-8.800001999999999477e-03 0.000000000000000000e+00
-8.650000999999999177e-03 0.000000000000000000e+00
-8.500001999999999558e-03 0.000000000000000000e+00
-8.349999999999999784e-03 0.000000000000000000e+00
-8.200001000000000165e-03 0.000000000000000000e+00
-8.050002000000000546e-03 0.000000000000000000e+00
-7.900000000000000772e-03 0.000000000000000000e+00
-7.750001000000000285e-03 0.000000000000000000e+00
-7.600001999999999799e-03 0.000000000000000000e+00
-7.449998999999999684e-03 0.000000000000000000e+00
-7.300001000000000406e-03 0.000000000000000000e+00
-7.150001999999999920e-03 0.000000000000000000e+00
-7.000003000000000301e-03 0.000000000000000000e+00
-6.850000000000000186e-03 0.000000000000000000e+00
-6.700002000000000041e-03 0.000000000000000000e+00
-6.550003000000000422e-03 0.000000000000000000e+00
-6.400000000000000307e-03 0.000000000000000000e+00
-6.250000999999999821e-03 0.000000000000000000e+00
-6.100002999999999675e-03 0.000000000000000000e+00
-5.950000000000000427e-03 0.000000000000000000e+00
-5.800000999999999941e-03 0.000000000000000000e+00
-5.650002999999999796e-03 0.000000000000000000e+00
-5.499999999999999681e-03 0.000000000000000000e+00
-5.350001000000000062e-03 0.000000000000000000e+00
-5.200001999999999576e-03 0.000000000000000000e+00
-5.049999999999999802e-03 0.000000000000000000e+00
-4.900001000000000183e-03 0.000000000000000000e+00
-4.750001999999999697e-03 0.000000000000000000e+00
-4.599999999999999922e-03 0.000000000000000000e+00
-4.450001000000000304e-03 0.000000000000000000e+00
-4.300001999999999817e-03 0.000000000000000000e+00
-4.149998999999999702e-03 0.000000000000000000e+00
-4.000001000000000424e-03 0.000000000000000000e+00
-3.850001999999999938e-03 0.000000000000000000e+00
-3.699998999999999823e-03 0.000000000000000000e+00
-3.550000000000000204e-03 0.000000000000000000e+00
-3.400002000000000059e-03 0.000000000000000000e+00
-3.250003000000000006e-03 0.000000000000000000e+00
-3.099999999999999891e-03 0.000000000000000000e+00
-2.950002000000000180e-03 0.000000000000000000e+00
-2.800003000000000127e-03 0.000000000000000000e+00
-2.650000000000000012e-03 0.000000000000000000e+00
-2.500000999999999959e-03 0.000000000000000000e+00
-2.350002999999999814e-03 0.000000000000000000e+00
-2.200000000000000133e-03 0.000000000000000000e+00
-2.050001000000000080e-03 0.000000000000000000e+00
-1.900002000000000028e-03 0.000000000000000000e+00
-1.750000000000000036e-03 0.000000000000000000e+00
-1.600000999999999984e-03 0.000000000000000000e+00
-1.450001999999999932e-03 0.000000000000000000e+00
-1.299999999999999940e-03 0.000000000000000000e+00
-1.150001000000000105e-03 0.000000000000000000e+00
-1.000002000000000052e-03 0.000000000000000000e+00
-8.499994999999999990e-04 0.000000000000000000e+00
-7.000007000000000148e-04 0.000000000000000000e+00
-5.500019000000000305e-04 -0.000000000000000000e+00
-3.999992999999999973e-04 0.000000000000000000e+00
-2.500005000000000131e-04 -0.000000000000000000e+00
-1.000017000000000017e-04 -7.006492321624085355e-45
5.000085000000000087e-05 2.242077542919707313e-44
1.999996999999999886e-04 5.885453550164231698e-44
3.499985000000000270e-04 -1.294799781036130974e-42
4.999972999999999571e-04 5.927492504093976210e-42
6.499998000000000104e-04 8.837989414496621266e-42
7.999985999999999946e-04 -2.501429862696944457e-40
9.499975000000000129e-04 1.117155773415209589e-39
1.100000000000000066e-03 1.805891166033928529e-39
1.249998999999999902e-03 -4.315706398741392692e-38
1.399997999999999954e-03 1.615791184519439564e-37
1.549999999999999946e-03 4.503526635810240898e-37
1.699998999999999998e-03 -6.461986033071894509e-36
1.849998000000000050e-03 1.626225835824963312e-35
2.000000000000000042e-03 9.691179504362033377e-35
2.149999000000000094e-03 -7.834014142787978183e-34
2.299998000000000146e-03 6.536569599907570986e-34
2.449999999999999921e-03 1.558474083740035098e-32
2.599998999999999973e-03 -6.729494157221623383e-32
2.749998000000000026e-03 -1.156645063807981963e-31
2.900001000000000141e-03 1.730522346274903383e-30
3.049998999999999853e-03 -2.647739147204575326e-30
3.199997999999999905e-03 -2.585551019763588386e-29
3.350001000000000020e-03 1.132727752330332170e-28
3.500000000000000073e-03 1.915698802669543235e-28
3.649997999999999784e-03 -2.337425677048968175e-27
3.800000999999999900e-03 1.560660767436674843e-27
3.950000000000000386e-03 3.377034649160629438e-26
4.099999000000000005e-03 -8.042271144678602503e-26
4.249997000000000150e-03 -3.651248862791275181e-25
4.400000000000000265e-03 1.617959337242244913e-24
4.549998999999999884e-03 2.869133655082227976e-24
4.699998000000000370e-03 -2.369783913216422282e-23
4.850000000000000144e-03 -1.284149670032830253e-23
4.999998999999999763e-03 2.863559532371500098e-22
5.149998000000000249e-03 -4.347571483031488616e-23
5.300000000000000024e-03 -3.020605103102234247e-21
5.449998999999999642e-03 1.584529995598443031e-21
5.599998000000000128e-03 2.873991540053758213e-20
5.749999999999999903e-03 -1.787384146066799784e-20
5.899999000000000389e-03 -2.503192514710834256e-19
6.049998000000000008e-03 1.133398222429212909e-19
6.200001000000000123e-03 1.981653846026443192e-18
6.349999000000000268e-03 -8.321117076030947668e-20
6.499997999999999887e-03 -1.377161007720653757e-17
6.650001000000000002e-03 -7.896337264963881745e-18
6.799999999999999621e-03 7.808300432369863009e-17
6.949997999999999766e-03 1.102350845997162882e-16
7.100000999999999882e-03 -3.068110830143705925e-16
7.250000000000000368e-03 -8.604485727102691682e-16
7.399998999999999987e-03 3.691410082897031474e-16
7.550000999999999761e-03 3.974957908940875140e-15
7.700000000000000247e-03 4.128448749312826904e-15
7.849998999999999866e-03 -6.957548110504609834e-15
7.999997999999999485e-03 -2.333203752815163345e-14
8.149999999999999259e-03 -2.296125901988643053e-14
8.299999000000000612e-03 8.961852527439306826e-15
8.449998000000000231e-03 6.708203464282982975e-14
8.600000000000000006e-03 1.466929198555219638e-13
8.749998999999999624e-03 2.556398018618843970e-13
8.899997999999999243e-03 3.953380862693062214e-13
9.050000000000000752e-03 5.588851321840226927e-13
9.199999000000000371e-03 7.505721846996771252e-13
9.349997999999999990e-03 9.774334119860839110e-13
9.500000999999999238e-03 1.235612090075277614e-12
9.649998999999999383e-03 1.527121202930803445e-12
9.799998000000000736e-03 1.860960821206680826e-12
9.950000999999999984e-03 2.236211433040424801e-12
1.009999999999999960e-02 2.654371514254627584e-12
1.025000000000000043e-02 3.125309256182817741e-12
1.039999999999999952e-02 3.650286236472899404e-12
1.055000000000000035e-02 4.231656258041338603e-12
1.069999999999999944e-02 4.880193471556992790e-12
1.085000000000000027e-02 5.598758869712616715e-12
1.099999999999999936e-02 6.391579106257427867e-12
1.115000000000000019e-02 7.270647625623460897e-12
1.129999999999999928e-02 8.240194117326016254e-12
1.145000000000000011e-02 9.307237272548896101e-12
1.159999999999999920e-02 1.048523420865699052e-11
1.175000000000000003e-02 1.177997283052789612e-11
1.190000000000000085e-02 1.320217806605183952e-11
1.204999999999999995e-02 1.476686481427513797e-11
1.220000000000000077e-02 1.648207091642373001e-11
1.234999999999999987e-02 1.836306974534185343e-11
1.250000000000000069e-02 2.042645046163027445e-11
1.264999999999999979e-02 2.268377846670333042e-11
1.280000000000000061e-02 2.515543676140374885e-11
1.294999999999999971e-02 2.785981688402383583e-11
1.310000000000000053e-02 3.081379942870832167e-11
1.324999999999999963e-02 3.404298717923914808e-11
1.340000000000000045e-02 3.756844835223205337e-11
1.354999999999999954e-02 4.141432682902568274e-11
1.370000000000000037e-02 4.561121272339541122e-11
1.384999999999999946e-02 5.018470708439970451e-11
1.400000000000000029e-02 5.516783210812725713e-11
1.414999999999999938e-02 6.059602125629837133e-11
1.430000000000000021e-02 6.650231754168345333e-11
1.444999999999999930e-02 7.292936393676896500e-11
1.460000000000000013e-02 7.991825257125384496e-11
1.474999999999999922e-02 8.751283031571688298e-11
1.490000000000000005e-02 9.576529846899717313e-11
1.504999999999999914e-02 1.047249093000246489e-10
1.519999999999999997e-02 1.144491168503236622e-10
1.535000000000000080e-02 1.249996772756389873e-10
1.549999999999999989e-02 1.364381524426860892e-10
1.565000000000000072e-02 1.488370121593973749e-10
1.580000000000000154e-02 1.622690870561882548e-10
1.594999999999999890e-02 1.768128976564753430e-10
1.609999999999999973e-02 1.925563319904455284e-10
1.625000000000000056e-02 2.095871670659832375e-10
1.640000000000000138e-02 2.280044902880362656e-10
1.654999999999999874e-02 2.479124960874656836e-10
1.669999999999999957e-02 2.694197087649286004e-10
1.685000000000000039e-02 2.926475728415312005e-10
1.700000000000000122e-02 3.177199336956704201e-10
1.714999999999999858e-02 3.447717111804138312e-10
1.729999999999999941e-02 3.739478726672018638e-10
1.745000000000000023e-02 4.053981039753296045e-10
1.760000000000000106e-02 4.392875507797100454e-10
1.774999999999999842e-02 4.757876315153453106e-10
1.789999999999999925e-02 5.150813109366936260e-10
1.805000000000000007e-02 5.573660977198358069e-10
1.820000000000000090e-02 6.028462173901516508e-10
1.835000000000000173e-02 6.517437145525661890e-10
1.849999999999999908e-02 7.042915139976457795e-10
1.864999999999999991e-02 7.607354191030424317e-10
1.880000000000000074e-02 8.213401625489780145e-10
1.895000000000000157e-02 8.863806355563497164e-10
1.909999999999999892e-02 9.561520464274053666e-10
1.924999999999999975e-02 1.030965313120191240e-09
1.940000000000000058e-02 1.111147063248552058e-09
1.955000000000000140e-02 1.197047017065244745e-09
1.969999999999999876e-02 1.289029216700043889e-09
1.984999999999999959e-02 1.387481685100055984e-09
2.000000000000000042e-02 1.492812873316040623e-09
2.015000000000000124e-02 1.605450772323990805e-09
2.029999999999999860e-02 1.725850906630910231e-09
2.044999999999999943e-02 1.854488340669036006e-09
2.060000000000000026e-02 1.991865339334708551e-09
2.075000000000000108e-02 2.138511367988371603e-09
2.089999999999999844e-02 2.294978651562473715e-09
2.104999999999999927e-02 2.461852277590992344e-09
2.120000000000000009e-02 2.639741758514446701e-09
2.135000000000000092e-02 2.829289691419489827e-09
2.149999999999999828e-02 3.031169537592859342e-09
2.164999999999999911e-02 3.246084290253747895e-09
2.179999999999999993e-02 3.474774024070370615e-09
2.195000000000000076e-02 3.718009455866422286e-09
2.210000000000000159e-02 3.976598161870015247e-09
2.224999999999999895e-02 4.251385465892099091e-09
2.239999999999999977e-02 4.543250220478967094e-09
2.255000000000000060e-02 4.853115243008687685e-09
2.270000000000000143e-02 5.181937545728487748e-09
2.284999999999999878e-02 5.530718549806579176e-09
2.299999999999999961e-02 5.900500088529270215e-09
2.315000000000000044e-02 6.292364407300965468e-09
2.330000000000000127e-02 6.707441269071523493e-09
2.344999999999999862e-02 7.146900848908899206e-09
2.359999999999999945e-02 7.611961727604921180e-09
2.375000000000000028e-02 8.103886450783193141e-09
2.390000000000000110e-02 8.623985081612772774e-09
2.404999999999999846e-02 9.173617421254220972e-09
2.419999999999999929e-02 9.754188567967503332e-09
2.435000000000000012e-02 1.036715424618250836e-08
2.450000000000000094e-02 1.101401991832062777e-08
2.464999999999999830e-02 1.169633900843791707e-08
2.479999999999999913e-02 1.241571823129561380e-08
2.494999999999999996e-02 1.317381315146803900e-08
2.510000000000000078e-02 1.397233084787785629e-08
2.525000000000000161e-02 1.481302902561765222e-08
2.539999999999999897e-02 1.569771690412835596e-08
2.554999999999999979e-02 1.662825432902081957e-08
2.570000000000000062e-02 1.760655088389739831e-08
2.585000000000000145e-02 1.863456589035195066e-08
2.599999999999999881e-02 1.971431196068351710e-08
2.614999999999999963e-02 2.084784611611212313e-08
2.630000000000000046e-02 2.203727689220613684e-08
2.645000000000000129e-02 2.328475900981175073e-08
2.659999999999999865e-02 2.459249515140982112e-08
2.674999999999999947e-02 2.596272885568851052e-08
2.690000000000000030e-02 2.739774984661380586e-08
2.705000000000000113e-02 2.889989048071583966e-08
2.719999999999999848e-02 3.047151864166153246e-08
2.734999999999999931e-02 3.211504306932511099e-08
2.750000000000000014e-02 3.383290447800391121e-08
2.765000000000000097e-02 3.562758621455941466e-08
2.779999999999999832e-02 3.750158938942149689e-08
2.794999999999999915e-02 3.945745064015682146e-08
2.809999999999999998e-02 4.149772792061412474e-08
2.825000000000000080e-02 4.362499694821053708e-08
2.840000000000000163e-02 4.584185830935894046e-08
2.854999999999999899e-02 4.815092324861325324e-08
2.869999999999999982e-02 5.055480301052739378e-08
2.885000000000000064e-02 5.305612305050999566e-08
2.900000000000000147e-02 5.565750882396969246e-08
2.914999999999999883e-02 5.836157868088776013e-08
2.929999999999999966e-02 6.117093676039075945e-08
2.945000000000000048e-02 6.408818364889157237e-08
2.960000000000000131e-02 6.711589151109365048e-08
2.974999999999999867e-02 7.025661119541837252e-08
2.989999999999999949e-02 7.351285802315032925e-08
3.005000000000000032e-02 7.688709757758260821e-08
3.020000000000000115e-02 8.038176702029886656e-08
3.034999999999999851e-02 8.399924666946390062e-08
3.049999999999999933e-02 8.774184578896893072e-08
3.065000000000000016e-02 9.161182390471367398e-08
3.080000000000000099e-02 9.561136948832427152e-08
3.094999999999999835e-02 9.974256443001650041e-08
3.109999999999999917e-02 1.040074337765872770e-07
3.125000000000000000e-02 1.084078817825684382e-07
3.139999999999999736e-02 1.129457203319361724e-07
3.155000000000000165e-02 1.176226405164015887e-07
3.169999999999999901e-02 1.224402126354107168e-07
3.185000000000000331e-02 1.273998719852897921e-07
3.200000000000000067e-02 1.325029330700999708e-07
3.214999999999999802e-02 1.377505611799278995e-07
3.230000000000000232e-02 1.431437368637489271e-07
3.244999999999999968e-02 1.486832985619912506e-07
3.259999999999999704e-02 1.543699283956811996e-07
3.275000000000000133e-02 1.602041095338790910e-07
3.289999999999999869e-02 1.661861119828245137e-07
3.305000000000000299e-02 1.723160210076457588e-07
3.320000000000000034e-02 1.785937371323598200e-07
3.334999999999999770e-02 1.850189192964535323e-07
3.350000000000000200e-02 1.915909990657382878e-07
3.364999999999999936e-02 1.983092232649141806e-07
3.379999999999999671e-02 2.051725260798775707e-07
3.395000000000000101e-02 2.121796427445588051e-07
3.409999999999999837e-02 2.193290242757939268e-07
3.425000000000000266e-02 2.266188658950341051e-07
3.440000000000000002e-02 2.340471212392003508e-07
3.454999999999999738e-02 2.416114170955552254e-07
3.470000000000000168e-02 2.493091244559764164e-07
3.484999999999999903e-02 2.571373727278114529e-07
3.500000000000000333e-02 2.650929218361852691e-07
3.515000000000000069e-02 2.731722474891284946e-07
3.529999999999999805e-02 2.813715411775774555e-07
3.545000000000000234e-02 2.896866533319553128e-07
3.559999999999999970e-02 2.981132070090097841e-07
3.574999999999999706e-02 3.066464273615565617e-07
3.590000000000000135e-02 3.152812553253170336e-07
3.604999999999999871e-02 3.240123191972088534e-07
3.620000000000000301e-02 3.328339062136365101e-07
3.635000000000000037e-02 3.417400193939101882e-07
3.649999999999999772e-02 3.507243491185363382e-07
3.665000000000000202e-02 3.597801878640893847e-07
3.679999999999999938e-02 3.689006575768871699e-07
3.694999999999999674e-02 3.780784254558966495e-07
3.710000000000000103e-02 3.873059313264093362e-07
3.724999999999999839e-02 3.965753307966224384e-07
3.740000000000000269e-02 4.058783815708011389e-07
3.755000000000000004e-02 4.152066424012446078e-07
3.769999999999999740e-02 4.245513594014482806e-07
3.785000000000000170e-02 4.339034944678132888e-07
3.799999999999999906e-02 4.432537252796464600e-07
3.815000000000000335e-02 4.525924737208697479e-07
3.830000000000000071e-02 4.619099627234390937e-07
3.844999999999999807e-02 4.711961594239255646e-07
3.860000000000000236e-02 4.804407467418059241e-07
3.874999999999999972e-02 4.896332370663003530e-07
3.889999999999999708e-02 4.987629154129535891e-07
3.905000000000000138e-02 5.078189246887632180e-07
3.919999999999999873e-02 5.167901804270513821e-07
3.935000000000000303e-02 5.256655413177213632e-07
3.950000000000000039e-02 5.344335818335821386e-07
3.964999999999999775e-02 5.430829332908615470e-07
3.980000000000000204e-02 5.516019996321119834e-07
3.994999999999999940e-02 5.599790142696292605e-07
4.009999999999999676e-02 5.682023811459657736e-07
4.025000000000000105e-02 5.762603336734173354e-07
4.039999999999999841e-02 5.841410484208608977e-07
4.055000000000000271e-02 5.918327019571734127e-07
4.070000000000000007e-02 5.993234708512318321e-07
4.084999999999999742e-02 6.066017590455885511e-07
4.100000000000000172e-02 6.136558567959582433e-07
4.114999999999999908e-02 6.204741112014744431e-07
4.130000000000000338e-02 6.270450398915272672e-07
4.145000000000000073e-02 6.333573310257634148e-07
4.159999999999999809e-02 6.393996727638295852e-07
4.175000000000000239e-02 6.451610943258856423e-07
4.189999999999999974e-02 6.506307954623480327e-07
4.204999999999999710e-02 6.557981464538897853e-07
4.220000000000000140e-02 6.606527449548593722e-07
4.234999999999999876e-02 6.651845296801184304e-07
4.250000000000000305e-02 6.693837235616229009e-07
4.265000000000000041e-02 6.732407769050041679e-07
4.279999999999999777e-02 6.767465379198256414e-07
4.295000000000000207e-02 6.798921958761638962e-07
4.309999999999999942e-02 6.826693379480275325e-07
4.324999999999999678e-02 6.850699492133571766e-07
4.340000000000000108e-02 6.870864694974443410e-07
4.354999999999999843e-02 6.887116796860937029e-07
4.370000000000000273e-02 6.899389290992985480e-07
4.385000000000000009e-02 6.907619081175653264e-07
4.399999999999999745e-02 6.911749323990079574e-07
4.415000000000000174e-02 6.911727155056723859e-07
4.429999999999999910e-02 6.907506531206308864e-07
4.445000000000000340e-02 6.899044819874688983e-07
4.460000000000000075e-02 6.886306778142170515e-07
4.474999999999999811e-02 6.869261710562568624e-07
4.490000000000000241e-02 6.847884606031584553e-07
4.504999999999999977e-02 6.822156706220994238e-07
4.519999999999999712e-02 6.792064937144459691e-07
4.535000000000000142e-02 6.757603046025906224e-07
4.549999999999999878e-02 6.718769895996956620e-07
4.565000000000000308e-02 6.675570034531119745e-07
4.580000000000000043e-02 6.628016535614733584e-07
4.594999999999999779e-02 6.576126452273456380e-07
4.610000000000000209e-02 6.519924227177398279e-07
4.624999999999999944e-02 6.459438850470178295e-07
4.639999999999999680e-02 6.394707838808244560e-07
4.655000000000000110e-02 6.325773256321554072e-07
4.669999999999999846e-02 6.252684556784515735e-07
4.685000000000000275e-02 6.175495741445047315e-07
4.700000000000000011e-02 6.094267632761329878e-07
4.714999999999999747e-02 6.009066737533430569e-07
4.730000000000000177e-02 5.919965246903302614e-07
4.744999999999999912e-02 5.827041604788973927e-07
4.760000000000000342e-02 5.730379939450358506e-07
4.775000000000000078e-02 5.630068926620879211e-07
4.789999999999999813e-02 5.526202926375844982e-07
4.805000000000000243e-02 5.418881983132450841e-07
4.819999999999999979e-02 5.308210120347212069e-07
4.834999999999999715e-02 5.194296477384341415e-07
4.850000000000000144e-02 5.077255309515749104e-07
4.864999999999999880e-02 4.957204282618477009e-07
4.880000000000000310e-02 4.834266746911453083e-07
4.895000000000000046e-02 4.708567757916171104e-07