 -0.12000000000000000          0.0000000000000000
 -0.11889999999999999          0.0000000000000000
 -0.11780000000000000          0.0000000000000000
 -0.11670000000000000          0.0000000000000000
 -0.11559999999999999          0.0000000000000000
 -0.11449999999999999         -1.5575914378272195E-014
 -0.11340000000000000         -7.8273887751164478E-014
 -0.11230000000000000         -1.3448389537401573E-013
 -0.11119999999999999          6.3466938681529944E-014
 -0.11009999999999999          6.6941032795045374E-013
 -0.10900000000000000          9.5240352063208356E-013
 -0.10790000000000000         -9.0690524751427248E-013
 -0.10679999999999999         -5.7827987190450791E-012
 -0.10569999999999999         -9.9639853659572175E-012
 -0.10460000000000000         -4.6905426591414834E-012
 -0.10349999999999999          1.5980702872120389E-011
 -0.10239999999999999          4.1995754096468829E-011
 -0.10130000000000000          4.3457702714189139E-011
 -0.10020000000000000         -9.0400586322259002E-012
  -9.9099999999999994E-002    -1.0597456939764882E-010
  -9.7999999999999990E-002    -1.7720433453938256E-010
  -9.6899999999999986E-002    -1.2582308805964004E-010
  -9.5799999999999996E-002     8.5013600326089289E-011
  -9.4699999999999993E-002     3.5698385913995878E-010
  -9.3599999999999989E-002     4.7898390809208991E-010
  -9.2499999999999999E-002     2.7015067960434180E-010
  -9.1399999999999995E-002    -2.4613711069321198E-010
  -9.0299999999999991E-002    -7.8950013193690438E-010
  -8.9200000000000002E-002    -9.7533692233753300E-010
  -8.8099999999999984E-002    -5.9029148236078299E-010
  -8.6999999999999994E-002     2.1953995565926476E-010
  -8.5899999999999990E-002     1.0153166085657972E-009
  -8.4799999999999986E-002     1.3555937483644698E-009
  -8.3699999999999997E-002     1.0876236578027942E-009
  -8.2599999999999993E-002     4.1112524495900971E-010
  -8.1499999999999989E-002    -3.1985392112687805E-010
  -8.0399999999999999E-002    -8.6849122338250595E-010
  -7.9299999999999995E-002    -1.2248854153185107E-009
  -7.8199999999999992E-002    -1.4872719722447414E-009
  -7.7100000000000002E-002    -1.6647668799052440E-009
  -7.5999999999999984E-002    -1.6066059593811133E-009
  -7.4899999999999994E-002    -1.1139209554755780E-009
  -7.3799999999999991E-002    -1.0203682343501441E-010
  -7.2699999999999987E-002     1.3493811623632723E-009
  -7.1599999999999997E-002     3.0740034961951324E-009
  -7.0499999999999993E-002     4.8896420246080652E-009
  -6.9399999999999989E-002     6.5470575627557537E-009
  -6.8300000000000000E-002     7.6050659103543694E-009
  -6.7199999999999996E-002     7.3847532533477533E-009
  -6.6099999999999992E-002     5.0529553874412159E-009
  -6.5000000000000002E-002    -3.2972369279349323E-010
  -6.3899999999999985E-002    -1.0028768926417797E-008
  -6.2799999999999995E-002    -2.6137120912039791E-008
  -6.1699999999999991E-002    -5.2036046582770723E-008
  -6.0599999999999994E-002    -9.2383189098654839E-008
  -5.9499999999999990E-002    -1.5247762519265962E-007
  -5.8399999999999994E-002    -2.3731777787361352E-007
  -5.7299999999999990E-002    -3.5091341032966739E-007
  -5.6199999999999986E-002    -4.9623253062236472E-007
  -5.5099999999999996E-002    -6.7575797402241733E-007
  -5.3999999999999992E-002    -8.9238790224044351E-007
  -5.2899999999999989E-002    -1.1505064776429208E-006
  -5.1799999999999985E-002    -1.4572511872756877E-006
  -5.0699999999999995E-002    -1.8239610426462605E-006
  -4.9599999999999991E-002    -2.2674673800793244E-006
  -4.8499999999999988E-002    -2.8106594527343987E-006
  -4.7399999999999998E-002    -3.4820020573533839E-006
  -4.6299999999999994E-002    -4.3143681978108361E-006
  -4.5199999999999990E-002    -5.3440990086528473E-006
  -4.4099999999999986E-002    -6.6111078922403976E-006
  -4.2999999999999997E-002    -8.1601456258795224E-006
  -4.1899999999999993E-002    -1.0042650501418393E-005
  -4.0799999999999989E-002    -1.2318574590608478E-005
  -3.9699999999999985E-002    -1.5058113604027312E-005
  -3.8599999999999995E-002    -1.8343769625062123E-005
  -3.7499999999999992E-002    -2.2273032300290652E-005
  -3.6399999999999988E-002    -2.6961261028191075E-005
  -3.5299999999999984E-002    -3.2543925044592470E-005
  -3.4199999999999994E-002    -3.9177728467620909E-005
  -3.3099999999999991E-002    -4.7041165089467540E-005
  -3.1999999999999987E-002    -5.6335760746151209E-005
  -3.0899999999999997E-002    -6.7288900027051568E-005
  -2.9799999999999993E-002    -8.0158002674579620E-005
  -2.8699999999999989E-002    -9.5234856416936964E-005
  -2.7599999999999986E-002    -1.1284914944553748E-004
  -2.6499999999999996E-002    -1.3337080599740148E-004
  -2.5399999999999992E-002    -1.5721195086371154E-004
  -2.4299999999999988E-002    -1.8482892483007163E-004
  -2.3199999999999985E-002    -2.1672440925613046E-004
  -2.2099999999999995E-002    -2.5344875757582486E-004
  -2.0999999999999991E-002    -2.9560065013356507E-004
  -1.9899999999999987E-002    -3.4382773446850479E-004
  -1.8799999999999983E-002    -3.9882762939669192E-004
  -1.7699999999999994E-002    -4.6134970034472644E-004
  -1.6599999999999990E-002    -5.3219607798382640E-004
  -1.5499999999999986E-002    -6.1221991200000048E-004
  -1.4399999999999996E-002    -7.0232152938842773E-004
  -1.3299999999999992E-002    -8.0344174057245255E-004
  -1.2199999999999989E-002    -9.1655476717278361E-004
  -1.1099999999999985E-002    -1.0426611406728625E-003
  -9.9999999999999950E-003    -1.1827786220237613E-003
  -8.8999999999999913E-003    -1.3379316078498960E-003
  -7.7999999999999875E-003    -1.5091364039108157E-003
  -6.6999999999999837E-003    -1.6973853344097733E-003
  -5.5999999999999939E-003    -1.9036292796954513E-003
  -4.4999999999999901E-003    -2.1287610288709402E-003
  -3.3999999999999864E-003    -2.3735961876809597E-003
  -2.2999999999999826E-003    -2.6388522237539291E-003
  -1.1999999999999927E-003    -2.9251230880618095E-003
  -9.9999999999988987E-005    -3.2328525558114052E-003
   1.0000000000000148E-003    -3.5623074509203434E-003
   2.1000000000000185E-003    -3.9135525003075600E-003
   3.2000000000000084E-003    -4.2864237911999226E-003
   4.3000000000000121E-003    -4.6805050224065781E-003
   5.4000000000000159E-003    -5.0951023586094379E-003
   6.5000000000000058E-003    -5.5292202159762383E-003
   7.6000000000000234E-003    -5.9815426357090473E-003
   8.7000000000000133E-003    -6.4504197798669338E-003
   9.8000000000000032E-003    -6.9338544271886349E-003
   1.0900000000000021E-002    -7.4294949881732464E-003
   1.2000000000000011E-002    -7.9346336424350739E-003
   1.3100000000000001E-002    -8.4462072700262070E-003
   1.4200000000000018E-002    -8.9608095586299896E-003
   1.5300000000000008E-002    -9.4747096300125122E-003
   1.6400000000000026E-002    -9.9838767200708389E-003
   1.7500000000000016E-002    -1.0484019294381142E-002
   1.8600000000000005E-002    -1.0970621369779110E-002
   1.9700000000000023E-002    -1.1438999325037003E-002
   2.0800000000000013E-002    -1.1884357780218124E-002
   2.1900000000000003E-002    -1.2301860377192497E-002
   2.3000000000000020E-002    -1.2686703354120255E-002
   2.4100000000000010E-002    -1.3034196570515633E-002
   2.5200000000000000E-002    -1.3339844532310963E-002
   2.6300000000000018E-002    -1.3599436730146408E-002
   2.7400000000000008E-002    -1.3809139840304852E-002
   2.8500000000000025E-002    -1.3965588994324207E-002
   2.9600000000000015E-002    -1.4065975323319435E-002
   3.0700000000000005E-002    -1.4108131639659405E-002
   3.1800000000000023E-002    -1.4090612530708313E-002
   3.2900000000000013E-002    -1.4012760482728481E-002
   3.4000000000000002E-002    -1.3874773867428303E-002
   3.5100000000000020E-002    -1.3677752576768398E-002
   3.6200000000000010E-002    -1.3423730619251728E-002
   3.7300000000000028E-002    -1.3115693815052509E-002
   3.8400000000000017E-002    -1.2757575139403343E-002
   3.9500000000000007E-002    -1.2354230508208275E-002
   4.0600000000000025E-002    -1.1911399662494659E-002
   4.1700000000000015E-002    -1.1435644701123238E-002
   4.2800000000000005E-002    -1.0934260673820972E-002
   4.3900000000000022E-002    -1.0415171273052692E-002
   4.5000000000000012E-002    -9.8867984488606453E-003
   4.6100000000000002E-002    -9.3579143285751343E-003
   4.7200000000000020E-002    -8.8374828919768333E-003
   4.8300000000000010E-002    -8.3344858139753342E-003
   4.9400000000000027E-002    -7.8577296808362007E-003
   5.0500000000000017E-002    -7.4156527407467365E-003
   5.1600000000000007E-002    -7.0161204785108566E-003
   5.2700000000000025E-002    -6.6662272438406944E-003
   5.3800000000000014E-002    -6.3721025362610817E-003
   5.4900000000000004E-002    -6.1387275345623493E-003
   5.6000000000000022E-002    -5.9697628021240234E-003
   5.7100000000000012E-002    -5.8673941530287266E-003
   5.8200000000000002E-002    -5.8322041295468807E-003
   5.9300000000000019E-002    -5.8630681596696377E-003
   6.0400000000000009E-002    -5.9570861048996449E-003
   6.1500000000000027E-002    -6.1095445416867733E-003
   6.2600000000000017E-002    -6.3139153644442558E-003
   6.3700000000000007E-002    -6.5618953667581081E-003
   6.4800000000000024E-002    -6.8434821441769600E-003
   6.5900000000000014E-002    -7.1470923721790314E-003
   6.7000000000000004E-002    -7.4597178027033806E-003
   6.8100000000000022E-002    -7.7671194449067116E-003
   6.9200000000000012E-002    -8.0540543422102928E-003
   7.0300000000000029E-002    -8.3045316860079765E-003
   7.1400000000000019E-002    -8.5021024569869041E-003
   7.2500000000000009E-002    -8.6301676928997040E-003
   7.3600000000000027E-002    -8.6722979322075844E-003
   7.4700000000000016E-002    -8.6125703528523445E-003
   7.5800000000000006E-002    -8.4358984604477882E-003
   7.6900000000000024E-002    -8.1283664330840111E-003
   7.8000000000000014E-002    -7.6775453053414822E-003
   7.9100000000000004E-002    -7.0728021673858166E-003
   8.0200000000000021E-002    -6.3055716454982758E-003
   8.1300000000000011E-002    -5.3696013055741787E-003
   8.2400000000000029E-002    -4.2611546814441681E-003
   8.3500000000000019E-002    -2.9791747219860554E-003
   8.4600000000000009E-002    -1.5254016034305096E-003
   8.5700000000000026E-002     9.5559400506317616E-005
   8.6800000000000016E-002     1.8762222025543451E-003
   8.7900000000000006E-002     3.8062627427279949E-003
   8.9000000000000024E-002     5.8726160787045956E-003
   9.0100000000000013E-002     8.0596236512064934E-003
   9.1200000000000003E-002     1.0349231772124767E-002
   9.2300000000000021E-002     1.2721234001219273E-002
   9.3400000000000011E-002     1.5153553336858749E-002
   9.4500000000000028E-002     1.7622575163841248E-002
   9.5600000000000018E-002     2.0103499293327332E-002
   9.6700000000000008E-002     2.2570721805095673E-002
   9.7800000000000026E-002     2.4998238310217857E-002
   9.8900000000000016E-002     2.7360036969184875E-002
  0.10000000000000001          2.9630506411194801E-002
  0.10110000000000002          3.1784836202859879E-002
  0.10220000000000001          3.3799398690462112E-002
  0.10330000000000003          3.5652115941047668E-002
  0.10440000000000002          3.7322793155908585E-002
  0.10550000000000001          3.8793418556451797E-002
  0.10660000000000003          4.0048412978649139E-002
  0.10770000000000002          4.1074845939874649E-002
  0.10880000000000001          4.1862599551677704E-002
  0.10990000000000003          4.2404491454362869E-002
  0.11100000000000002          4.2696323245763779E-002
  0.11210000000000001          4.2736925184726715E-002
  0.11320000000000002          4.2528085410594940E-002
  0.11430000000000001          4.2074479162693024E-002
  0.11540000000000003          4.1383545845746994E-002
  0.11650000000000002          4.0465291589498520E-002
  0.11760000000000001          3.9332106709480286E-002
  0.11870000000000003          3.7998508661985397E-002
  0.11980000000000002          3.6480877548456192E-002
  0.12090000000000001          3.4797172993421555E-002
  0.12200000000000003          3.2966624945402145E-002
  0.12310000000000001          3.1009417027235031E-002
  0.12420000000000003          2.8946381062269211E-002
  0.12530000000000002          2.6798680424690247E-002
  0.12640000000000001          2.4587523192167282E-002
  0.12750000000000003          2.2333864122629166E-002
  0.12860000000000002          2.0058142021298409E-002
  0.12970000000000001          1.7780024558305740E-002
  0.13080000000000003          1.5518188476562500E-002
  0.13190000000000002          1.3290123082697392E-002
  0.13300000000000001          1.1111979372799397E-002
  0.13410000000000000          8.9984303340315819E-003
  0.13520000000000004          6.9625754840672016E-003
  0.13630000000000003          5.0158631056547165E-003
  0.13740000000000002          3.1680476386100054E-003
  0.13850000000000001          1.4271811814978719E-003
  0.13960000000000000         -2.0037009380757809E-004
  0.14070000000000005         -1.7098811222240329E-003
  0.14180000000000004         -3.0982051976025105E-003
  0.14290000000000003         -4.3636960908770561E-003
  0.14400000000000002         -5.5061131715774536E-003
  0.14510000000000001         -6.5265092998743057E-003
  0.14620000000000000         -7.4271084740757942E-003
  0.14730000000000004         -8.2111703231930733E-003
  0.14840000000000003         -8.8828569278120995E-003
  0.14950000000000002         -9.4471015036106110E-003
  0.15060000000000001         -9.9094733595848083E-003
  0.15170000000000000         -1.0276053100824356E-002
  0.15280000000000005         -1.0553302243351936E-002
  0.15390000000000004         -1.0747946798801422E-002
  0.15500000000000003         -1.0866860859096050E-002
  0.15610000000000002         -1.0916964150965214E-002
  0.15720000000000001         -1.0905130766332150E-002
  0.15830000000000000         -1.0838113725185394E-002
  0.15940000000000004         -1.0722474195063114E-002
  0.16050000000000003         -1.0564520955085754E-002
  0.16160000000000002         -1.0370262898504734E-002
  0.16270000000000001         -1.0145369917154312E-002
  0.16380000000000000         -9.8951430991292000E-003
  0.16490000000000005         -9.6244914457201958E-003
  0.16600000000000004         -9.3379281461238861E-003
  0.16710000000000003         -9.0395621955394745E-003
  0.16820000000000002         -8.7331011891365051E-003
  0.16930000000000001         -8.4218597039580345E-003
  0.17040000000000000         -8.1087667495012283E-003
  0.17150000000000004         -7.7963811345398426E-003
  0.17260000000000003         -7.4869091622531414E-003
  0.17370000000000002         -7.1822321042418480E-003
  0.17480000000000001         -6.8839280866086483E-003
  0.17590000000000000         -6.5932981669902802E-003
  0.17700000000000005         -6.3113858923316002E-003
  0.17810000000000004         -6.0389996506273746E-003
  0.17920000000000003         -5.7767350226640701E-003
  0.18030000000000002         -5.5249999277293682E-003
  0.18140000000000001         -5.2840416319668293E-003
  0.18250000000000000         -5.0539677031338215E-003
  0.18360000000000004         -4.8347637057304382E-003
  0.18470000000000003         -4.6263090334832668E-003
  0.18580000000000002         -4.4283904135227203E-003
  0.18690000000000001         -4.2407214641571045E-003
  0.18800000000000000         -4.0629599243402481E-003
  0.18910000000000005         -3.8947258144617081E-003
  0.19020000000000004         -3.7356128450483084E-003
  0.19130000000000003         -3.5851947031915188E-003
  0.19240000000000002         -3.4430308733135462E-003
  0.19350000000000001         -3.3086743205785751E-003
  0.19460000000000005         -3.1816794071346521E-003
  0.19570000000000004         -3.0616123694926500E-003
  0.19680000000000003         -2.9480569064617157E-003
  0.19790000000000002         -2.8406165074557066E-003
  0.19900000000000001         -2.7389132883399725E-003
  0.20010000000000000         -2.6425884570926428E-003
  0.20120000000000005         -2.5513039436191320E-003
  0.20230000000000004         -2.4647440295666456E-003
  0.20340000000000003         -2.3826183751225471E-003
  0.20450000000000002         -2.3046592250466347E-003
  0.20560000000000000         -2.2306186147034168E-003
  0.20670000000000005         -2.1602637134492397E-003
  0.20780000000000004         -2.0933742634952068E-003
  0.20890000000000003         -2.0297416485846043E-003
