 -0.12000000000000000          0.0000000000000000
 -0.11889999999999999          0.0000000000000000
 -0.11780000000000000          0.0000000000000000
 -0.11670000000000000          0.0000000000000000
 -0.11559999999999999          0.0000000000000000
 -0.11449999999999999          0.0000000000000000
 -0.11340000000000000          0.0000000000000000
 -0.11230000000000000          0.0000000000000000
 -0.11119999999999999         -4.5102766069535425E-021
 -0.11009999999999999          2.2027220329460453E-020
 -0.10900000000000000         -5.0052294968800231E-020
 -0.10790000000000000         -1.1603477667861906E-018
 -0.10679999999999999         -1.5608721349019699E-018
 -0.10569999999999999          1.2539522073266965E-017
 -0.10460000000000000          4.1188654582522612E-017
 -0.10349999999999999         -3.4022901432539040E-017
 -0.10239999999999999         -3.9630495786145453E-016
 -0.10130000000000000         -5.5025007259093062E-016
 -0.10020000000000000          1.4506273549182939E-015
  -9.9099999999999994E-002     6.2359133088936251E-015
  -9.7999999999999990E-002     4.9966435442048551E-015
  -9.6899999999999986E-002    -2.0896024981956890E-014
  -9.5799999999999996E-002    -6.5833636827584974E-014
  -9.4699999999999993E-002    -4.2515660046357762E-014
  -9.3599999999999989E-002     1.8349946941716849E-013
  -9.2499999999999999E-002     5.2869384217779647E-013
  -9.1399999999999995E-002     3.6893315551005113E-013
  -9.0299999999999991E-002    -1.1246961478458828E-012
  -8.9200000000000002E-002    -3.4042866182276699E-012
  -8.8099999999999984E-002    -2.9280698959216478E-012
  -8.6999999999999994E-002     4.8946385139414517E-012
  -8.5899999999999990E-002     1.7884771788545528E-011
  -8.4799999999999986E-002     1.9445231883019609E-011
  -8.3699999999999997E-002    -1.3326369521782233E-011
  -8.2599999999999993E-002    -7.6509999724638789E-011
  -8.1499999999999989E-002    -1.0515832649105050E-010
  -8.0399999999999999E-002     2.0238242505465909E-012
  -7.9299999999999995E-002     2.6104834960349876E-010
  -7.8199999999999992E-002     4.6164791434044616E-010
  -7.7100000000000002E-002     2.1341595157764459E-010
  -7.5999999999999984E-002    -6.6829236589072138E-010
  -7.4899999999999994E-002    -1.6406962455306484E-009
  -7.3799999999999991E-002    -1.4118433089294058E-009
  -7.2699999999999987E-002     1.0166396613442430E-009
  -7.1599999999999997E-002     4.6490851168812242E-009
  -7.0499999999999993E-002     5.8729843210869603E-009
  -6.9399999999999989E-002     7.8098438827112204E-010
  -6.8300000000000000E-002    -1.0007763506791889E-008
  -6.7199999999999996E-002    -1.8174285187910755E-008
  -6.6099999999999992E-002    -1.1618878303920610E-008
  -6.5000000000000002E-002     1.3790804054281125E-008
  -6.3899999999999985E-002     4.3139731786823177E-008
  -6.2799999999999995E-002     4.5966398687369292E-008
  -6.1699999999999991E-002     4.5005640880724229E-010
  -6.0599999999999994E-002    -7.6049801123190264E-008
  -5.9499999999999990E-002    -1.2114196579204872E-007
  -5.8399999999999994E-002    -6.8143961584610224E-008
  -5.7299999999999990E-002     8.4490558549532579E-008
  -5.6199999999999986E-002     2.3524776793237834E-007
  -5.5099999999999996E-002     2.3136870197504322E-007
  -5.3999999999999992E-002     1.1633045637893247E-009
  -5.2899999999999989E-002    -3.3383409459020186E-007
  -5.1799999999999985E-002    -4.9412290081818355E-007
  -5.0699999999999995E-002    -2.5455139507357671E-007
  -4.9599999999999991E-002     3.0923092708690092E-007
  -4.8499999999999988E-002     7.7858328495494789E-007
  -4.7399999999999998E-002     6.7729888542089611E-007
  -4.6299999999999994E-002    -8.0750375275329134E-008
  -4.5199999999999990E-002    -9.7446184099680977E-007
  -4.4099999999999986E-002    -1.1880671308972524E-006
  -4.2999999999999997E-002    -3.1976148306966934E-007
  -4.1899999999999993E-002     1.0921467037405819E-006
  -4.0799999999999989E-002     1.8097867950928048E-006
  -3.9699999999999985E-002     9.0510661721054930E-007
  -3.8599999999999995E-002    -1.2259380355317262E-006
  -3.7499999999999992E-002    -2.8443196242733393E-006
  -3.6399999999999988E-002    -2.1578964606305817E-006
  -3.5299999999999984E-002     9.5570896974095376E-007
  -3.4199999999999994E-002     4.3307168198225554E-006
  -3.3099999999999991E-002     4.8862007133720908E-006
  -3.1999999999999987E-002     1.2155188642282155E-006
  -3.0899999999999997E-002    -4.7062039811862633E-006
  -2.9799999999999993E-002    -8.4510629676515236E-006
  -2.8699999999999989E-002    -6.4217820181511343E-006
  -2.7599999999999986E-002     9.6100973223656183E-007
  -2.6499999999999996E-002     8.9502609625924379E-006
  -2.5399999999999992E-002     1.1722659110091627E-005
  -2.4299999999999988E-002     6.8708841354236938E-006
  -2.3199999999999985E-002    -2.5024246497196145E-006
  -2.2099999999999995E-002    -1.0012848179030698E-005
  -2.0999999999999991E-002    -1.0926040886261035E-005
  -1.9899999999999987E-002    -5.7692891459737439E-006
  -1.8799999999999983E-002     4.6775201667514921E-007
  -1.7699999999999994E-002     2.9523016564780846E-006
  -1.6599999999999990E-002     1.4780475794395898E-006
  -1.5499999999999986E-002     7.0624253112328006E-007
  -1.4399999999999996E-002     5.5552777666889597E-006
  -1.3299999999999992E-002     1.5397419701912440E-005
  -1.2199999999999989E-002     2.2272653950494714E-005
  -1.1099999999999985E-002     1.5675021131755784E-005
  -9.9999999999999950E-003    -8.5974788817111403E-006
  -8.8999999999999913E-003    -4.1826431697700173E-005
  -7.7999999999999875E-003    -6.3898478401824832E-005
  -6.6999999999999837E-003    -5.4141950386110693E-005
  -5.5999999999999939E-003    -6.1856121646997053E-006
  -4.4999999999999901E-003     6.2659659306518734E-005
  -3.3999999999999864E-003     1.1572583025554195E-004
  -2.2999999999999826E-003     1.1594658280955628E-004
  -1.1999999999999927E-003     5.0301474402658641E-005
  -9.9999999999988987E-005    -5.5926717323018238E-005
   1.0000000000000148E-003    -1.4770185225643218E-004
   2.1000000000000185E-003    -1.7080805264413357E-004
   3.2000000000000084E-003    -1.0717612167354673E-004
   4.3000000000000121E-003     9.6375915745738894E-006
   5.4000000000000159E-003     1.1322402133373544E-004
   6.5000000000000058E-003     1.4804449165239930E-004
   7.6000000000000234E-003     1.0801174357766286E-004
   8.7000000000000133E-003     3.9654216379858553E-005
   9.8000000000000032E-003     3.9191418181871995E-006
   1.0900000000000021E-002     2.3424017854267731E-005
   1.2000000000000011E-002     5.7350265706190839E-005
   1.3100000000000001E-002     2.9133643693057820E-005
   1.4200000000000018E-002    -1.0756634583231062E-004
   1.5300000000000008E-002    -3.1213069451041520E-004
   1.6400000000000026E-002    -4.5677780872210860E-004
   1.7500000000000016E-002    -3.9431345066986978E-004
   1.8600000000000005E-002    -5.8057565183844417E-005
   1.9700000000000023E-002     4.6764776925556362E-004
   2.0800000000000013E-002     9.5535663422197104E-004
   2.1900000000000003E-002     1.1277453741058707E-003
   2.3000000000000020E-002     7.9686031676828861E-004
   2.4100000000000010E-002    -1.6611167666269466E-005
   2.5200000000000000E-002    -1.0469829430803657E-003
   2.6300000000000018E-002    -1.8623744836077094E-003
   2.7400000000000008E-002    -2.0418483763933182E-003
   2.8500000000000025E-002    -1.3820551102980971E-003
   2.9600000000000015E-002    -3.3164127671625465E-005
   3.0700000000000005E-002     1.5216134488582611E-003
   3.1800000000000023E-002     2.6599157135933638E-003
   3.2900000000000013E-002     2.9079273808747530E-003
   3.4000000000000002E-002     2.1740614902228117E-003
   3.5100000000000020E-002     7.9317897325381637E-004
   3.6200000000000010E-002    -6.5518374321982265E-004
   3.7300000000000028E-002    -1.6595744527876377E-003
   3.8400000000000017E-002    -2.0443315152078867E-003
   3.9500000000000007E-002    -2.0402367226779461E-003
   4.0600000000000025E-002    -2.1220319904386997E-003
   4.1700000000000015E-002    -2.7127084322273731E-003
   4.2800000000000005E-002    -3.9301663637161255E-003
   4.3900000000000022E-002    -5.5263475514948368E-003
   4.5000000000000012E-002    -7.0615923032164574E-003
   4.6100000000000002E-002    -8.2233976572751999E-003
   4.7200000000000020E-002    -9.1063138097524643E-003
   4.8300000000000010E-002    -1.0269035585224628E-002
   4.9400000000000027E-002    -1.2488671578466892E-002
   5.0500000000000017E-002    -1.6311783343553543E-002
   5.1600000000000007E-002    -2.1660590544342995E-002
   5.2700000000000025E-002    -2.7782585471868515E-002
   5.3800000000000014E-002    -3.3667229115962982E-002
   5.4900000000000004E-002    -3.8760967552661896E-002
   5.6000000000000022E-002    -4.3566286563873291E-002
   5.7100000000000012E-002    -4.9708481878042221E-002
   5.8200000000000002E-002    -5.9342056512832642E-002
   5.9300000000000019E-002    -7.4190929532051086E-002
   6.0400000000000009E-002    -9.4788029789924622E-002
   6.1500000000000027E-002   -0.12038476020097733
   6.2600000000000017E-002   -0.14959940314292908
   6.3700000000000007E-002   -0.18140691518783569
   6.4800000000000024E-002   -0.21589092910289764
   6.5900000000000014E-002   -0.25436404347419739
   6.7000000000000004E-002   -0.29887819290161133
   6.8100000000000022E-002   -0.35152190923690796
   6.9200000000000012E-002   -0.41396543383598328
   7.0300000000000029E-002   -0.48747459053993225
   7.1400000000000019E-002   -0.57329148054122925
   7.2500000000000009E-002   -0.67301559448242188
   7.3600000000000027E-002   -0.78866159915924072
   7.4700000000000016E-002   -0.92228311300277710
   7.5800000000000006E-002    -1.0754108428955078
   7.6900000000000024E-002    -1.2486490011215210
   7.8000000000000014E-002    -1.4418790340423584
   7.9100000000000004E-002    -1.6552292108535767
   8.0200000000000021E-002    -1.8901407718658447
   8.1300000000000011E-002    -2.1500494480133057
   8.2400000000000029E-002    -2.4399092197418213
   8.3500000000000019E-002    -2.7645940780639648
   8.4600000000000009E-002    -3.1270265579223633
   8.5700000000000026E-002    -3.5269403457641602
   8.6800000000000016E-002    -3.9613282680511475
   8.7900000000000006E-002    -4.4262986183166504
   8.9000000000000024E-002    -4.9194407463073730
   9.0100000000000013E-002    -5.4409193992614746
   9.1200000000000003E-002    -5.9931392669677734
   9.2300000000000021E-002    -6.5785002708435059
   9.3400000000000011E-002    -7.1972646713256836
   9.4500000000000028E-002    -7.8454813957214355
   9.5600000000000018E-002    -8.5149908065795898
   9.6700000000000008E-002    -9.1949291229248047
   9.7800000000000026E-002    -9.8737258911132812
   9.8900000000000016E-002    -10.540398597717285
  0.10000000000000001         -11.185709953308105
  0.10110000000000002         -11.802044868469238
  0.10220000000000001         -12.380639076232910
  0.10330000000000003         -12.910727500915527
  0.10440000000000002         -13.376962661743164
  0.10550000000000001         -13.760266304016113
  0.10660000000000003         -14.038490295410156
  0.10770000000000002         -14.190083503723145
  0.10880000000000001         -14.194890975952148
  0.10990000000000003         -14.034897804260254
  0.11100000000000002         -13.693553924560547
  0.11210000000000001         -13.154846191406250
  0.11320000000000002         -12.403646469116211
  0.11430000000000001         -11.425535202026367
  0.11540000000000003         -10.207594871520996
  0.11650000000000002         -8.7339286804199219
  0.11760000000000001         -6.9947881698608398
  0.11870000000000003         -4.9786548614501953
  0.11980000000000002         -2.6829106807708740
  0.12090000000000001        -0.11092961579561234
  0.12200000000000003          2.7268033027648926
  0.12310000000000001          5.8139028549194336
  0.12420000000000003          9.1298990249633789
  0.12530000000000002          12.649994850158691
  0.12640000000000001          16.344612121582031
  0.12750000000000003          20.179082870483398
  0.12860000000000002          24.116851806640625
  0.12970000000000001          28.116250991821289
  0.13080000000000003          32.126651763916016
  0.13190000000000002          36.095638275146484
  0.13300000000000001          39.956729888916016
  0.13410000000000000          43.644390106201172
  0.13520000000000004          47.090251922607422
  0.13630000000000003          50.225849151611328
  0.13740000000000002          52.986785888671875
  0.13850000000000001          55.313865661621094
  0.13960000000000000          57.147533416748047
  0.14070000000000005          58.432971954345703
  0.14180000000000004          59.117252349853516
  0.14290000000000003          59.151576995849609
  0.14400000000000002          58.498214721679688
  0.14510000000000001          57.126659393310547
  0.14620000000000000          55.016483306884766
  0.14730000000000004          52.155105590820312
  0.14840000000000003          48.544155120849609
  0.14950000000000002          44.198200225830078
  0.15060000000000001          39.148647308349609
  0.15170000000000000          33.439167022705078
  0.15280000000000005          27.125047683715820
  0.15390000000000004          20.269359588623047
  0.15500000000000003          12.942635536193848
  0.15610000000000002          5.2272882461547852
  0.15720000000000001         -2.7830810546875000
  0.15830000000000000         -10.985213279724121
  0.15940000000000004         -19.270042419433594
  0.16050000000000003         -27.528738021850586
  0.16160000000000002         -35.646633148193359
  0.16270000000000001         -43.508972167968750
  0.16380000000000000         -50.996540069580078
  0.16490000000000005         -57.996021270751953
  0.16600000000000004         -64.405029296875000
  0.16710000000000003         -70.129707336425781
  0.16820000000000002         -75.082046508789062
  0.16930000000000001         -79.183189392089844
  0.17040000000000000         -82.363929748535156
  0.17150000000000004         -84.570625305175781
  0.17260000000000003         -85.767898559570312
  0.17370000000000002         -85.933303833007812
  0.17480000000000001         -85.058929443359375
  0.17590000000000000         -83.147422790527344
  0.17700000000000005         -80.215438842773438
  0.17810000000000004         -76.303108215332031
  0.17920000000000003         -71.464729309082031
  0.18030000000000002         -65.771492004394531
  0.18140000000000001         -59.299221038818359
  0.18250000000000000         -52.135162353515625
  0.18360000000000004         -44.380775451660156
  0.18470000000000003         -36.144649505615234
  0.18580000000000002         -27.542230606079102
  0.18690000000000001         -18.690998077392578
  0.18800000000000000         -9.7074060440063477
  0.18910000000000005        -0.70902210474014282
  0.19020000000000004          8.1806802749633789
  0.19130000000000003          16.839641571044922
  0.19240000000000002          25.149093627929688
  0.19350000000000001          33.003314971923828
  0.19460000000000005          40.307136535644531
  0.19570000000000004          46.971801757812500
  0.19680000000000003          52.914718627929688
  0.19790000000000002          58.057800292968750
  0.19900000000000001          62.339160919189453
  0.20010000000000000          65.718688964843750
  0.20120000000000005          68.175148010253906
  0.20230000000000004          69.697975158691406
  0.20340000000000003          70.281173706054688
  0.20450000000000002          69.923637390136719
  0.20560000000000000          68.637115478515625
  0.20670000000000005          66.455307006835938
  0.20780000000000004          63.428493499755859
  0.20890000000000003          59.618156433105469
