 -0.12000000000000000          0.0000000000000000
 -0.11889999999999999          0.0000000000000000
 -0.11780000000000000          0.0000000000000000
 -0.11670000000000000          0.0000000000000000
 -0.11559999999999999          0.0000000000000000
 -0.11449999999999999          0.0000000000000000
 -0.11340000000000000          0.0000000000000000
 -0.11230000000000000          0.0000000000000000
 -0.11119999999999999          0.0000000000000000
 -0.11009999999999999          0.0000000000000000
 -0.10900000000000000          0.0000000000000000
 -0.10790000000000000          0.0000000000000000
 -0.10679999999999999          9.3426587719579280E-024
 -0.10569999999999999          9.4881980869448681E-023
 -0.10460000000000000          3.0822769612514156E-022
 -0.10349999999999999         -5.3030415784836058E-022
 -0.10239999999999999         -8.0755340991886295E-021
 -0.10130000000000000         -2.9305768331834941E-020
 -0.10020000000000000         -3.2204063795378700E-020
  -9.9099999999999994E-002     1.4722901127360963E-019
  -9.7999999999999990E-002     7.7930593193908438E-019
  -9.6899999999999986E-002     1.5752112074230001E-018
  -9.5799999999999996E-002     7.9057599636648088E-020
  -9.4699999999999993E-002    -8.9073720035466207E-018
  -9.3599999999999989E-002    -2.6807722586594200E-017
  -9.2499999999999999E-002    -3.2649083475264019E-017
  -9.1399999999999995E-002     3.3369260003777187E-017
  -9.0299999999999991E-002     2.3236421907966726E-016
  -8.9200000000000002E-002     4.7627762651602850E-016
  -8.8099999999999984E-002     3.2392681308174222E-016
  -8.6999999999999994E-002    -9.4565744022609161E-016
  -8.5899999999999990E-002    -3.4835038872297729E-015
  -8.4799999999999986E-002    -5.2587409490737532E-015
  -8.3699999999999997E-002    -1.2430953889950441E-015
  -8.2599999999999993E-002     1.3479610324804419E-014
  -8.1499999999999989E-002     3.4837682462126110E-014
  -8.0399999999999999E-002     4.0118709271558597E-014
  -7.9299999999999995E-002    -7.6878937989451578E-015
  -7.8199999999999992E-002    -1.2570408039133674E-013
  -7.7100000000000002E-002    -2.5384344149240179E-013
  -7.5999999999999984E-002    -2.2615409707698458E-013
  -7.4899999999999994E-002     1.4704359149568524E-013
  -7.3799999999999991E-002     8.5258243607416739E-013
  -7.2699999999999987E-002     1.4271344522809315E-012
  -7.1599999999999997E-002     9.9145453132110095E-013
  -7.0499999999999993E-002    -1.1485649670933684E-012
  -6.9399999999999989E-002    -4.4534501954240913E-012
  -6.8300000000000000E-002    -6.4532012546136830E-012
  -6.7199999999999996E-002    -3.5810742392283768E-012
  -6.6099999999999992E-002     5.9470280262818864E-012
  -6.5000000000000002E-002     1.8554621381006164E-011
  -6.3899999999999985E-002     2.4308968032960010E-011
  -6.2799999999999995E-002     1.1677334446624776E-011
  -6.1699999999999991E-002    -2.2381478614885708E-011
  -6.0599999999999994E-002    -6.3129418359508804E-011
  -5.9499999999999990E-002    -7.9060098745475926E-011
  -5.8399999999999994E-002    -3.8862135731676517E-011
  -5.7299999999999990E-002     6.1392280148453438E-011
  -5.6199999999999986E-002     1.7866466639482326E-010
  -5.5099999999999996E-002     2.3103199908725003E-010
  -5.3999999999999992E-002     1.3998625869593440E-010
  -5.2899999999999989E-002    -1.0990520993292563E-010
  -5.1799999999999985E-002    -4.2883502304746912E-010
  -5.0699999999999995E-002    -6.3112981507629229E-010
  -4.9599999999999991E-002    -5.0967874365426269E-010
  -4.8499999999999988E-002     4.0873953527365003E-011
  -4.7399999999999998E-002     8.9771662326043611E-010
  -4.6299999999999994E-002     1.6515100398351024E-009
  -4.5199999999999990E-002     1.7011684283474438E-009
  -4.4099999999999986E-002     5.5685783761916241E-010
  -4.2999999999999997E-002    -1.7096366544677721E-009
  -4.1899999999999993E-002    -4.1190841848504078E-009
  -4.0799999999999989E-002    -4.9322737005752515E-009
  -3.9699999999999985E-002    -2.5495283662024804E-009
  -3.8599999999999995E-002     3.0858269273181804E-009
  -3.7499999999999992E-002     9.4884322621169304E-009
  -3.6399999999999988E-002     1.2187320486134468E-008
  -3.5299999999999984E-002     7.2764172465156207E-009
  -3.4199999999999994E-002    -5.1643778142818064E-009
  -3.3099999999999991E-002    -1.9277029750242036E-008
  -3.1999999999999987E-002    -2.5529173441896091E-008
  -3.0899999999999997E-002    -1.6584365880589758E-008
  -2.9799999999999993E-002     6.4642313724050382E-009
  -2.8699999999999989E-002     3.2381073822307371E-008
  -2.7599999999999986E-002     4.5185988284401901E-008
  -2.6499999999999996E-002     3.4084411737467235E-008
  -2.5399999999999992E-002     1.1982136394195209E-009
  -2.4299999999999988E-002    -3.8784232714306199E-008
  -2.3199999999999985E-002    -6.6893882433305407E-008
  -2.2099999999999995E-002    -6.9591294504789403E-008
  -2.0999999999999991E-002    -4.2838816938228774E-008
  -1.9899999999999987E-002     9.9894297278524391E-009
  -1.8799999999999983E-002     7.9584886236716557E-008
  -1.7699999999999994E-002     1.4572017903446977E-007
  -1.6599999999999990E-002     1.7096552085149597E-007
  -1.5499999999999986E-002     1.0894326862853632E-007
  -1.4399999999999996E-002    -6.2179928761452175E-008
  -1.3299999999999992E-002    -2.9522269073822827E-007
  -1.2199999999999989E-002    -4.5945424176352390E-007
  -1.1099999999999985E-002    -3.9472396906603535E-007
  -9.9999999999999950E-003    -2.7256234602646146E-008
  -8.8999999999999913E-003     5.2436064379435265E-007
  -7.7999999999999875E-003     9.5173516001523240E-007
  -6.6999999999999837E-003     9.1350631237219204E-007
  -5.5999999999999939E-003     2.7663071477945778E-007
  -4.4999999999999901E-003    -7.2259001626662211E-007
  -3.3999999999999864E-003    -1.5456429309779196E-006
  -2.2999999999999826E-003    -1.6503149709024001E-006
  -1.1999999999999927E-003    -8.4456979720926029E-007
  -9.9999999999988987E-005     5.4981194352876628E-007
   1.0000000000000148E-003     1.8538765971243265E-006
   2.1000000000000185E-003     2.4107719127641758E-006
   3.2000000000000084E-003     1.9295280253572855E-006
   4.3000000000000121E-003     5.7931026731239399E-007
   5.4000000000000159E-003    -1.1664944850053871E-006
   6.5000000000000058E-003    -2.7470948680274887E-006
   7.6000000000000234E-003    -3.6166816244076472E-006
   8.7000000000000133E-003    -3.2611658298264956E-006
   9.8000000000000032E-003    -1.3310545909916982E-006
   1.0900000000000021E-002     1.9935671389248455E-006
   1.2000000000000011E-002     5.6199151003966108E-006
   1.3100000000000001E-002     7.6205051300348714E-006
   1.4200000000000018E-002     6.0995535022811964E-006
   1.5300000000000008E-002     5.7111793694275548E-007
   1.6400000000000026E-002    -7.0589453571301419E-006
   1.7500000000000016E-002    -1.2874726962763816E-005
   1.8600000000000005E-002    -1.2900502952106763E-005
   1.9700000000000023E-002    -5.6606877478770912E-006
   2.0800000000000013E-002     6.3055990722205024E-006
   2.1900000000000003E-002     1.7209600628120825E-005
   2.3000000000000020E-002     2.0904399207211100E-005
   2.4100000000000010E-002     1.4321673006634228E-005
   2.5200000000000000E-002    -5.6898585398812429E-007
   2.6300000000000018E-002    -1.7427975762984715E-005
   2.7400000000000008E-002    -2.8434858904802240E-005
   2.8500000000000025E-002    -2.7830548788188025E-005
   2.9600000000000015E-002    -1.4450418348133098E-005
   3.0700000000000005E-002     7.6304477261146531E-006
   3.1800000000000023E-002     3.0310011425171979E-005
   3.2900000000000013E-002     4.4043026719009504E-005
   3.4000000000000002E-002     4.1230894566979259E-005
   3.5100000000000020E-002     1.9678967873915099E-005
   3.6200000000000010E-002    -1.5098753465281334E-005
   3.7300000000000028E-002    -5.0284867029404268E-005
   3.8400000000000017E-002    -6.9854620960541070E-005
   3.9500000000000007E-002    -6.1601407651323825E-005
   4.0600000000000025E-002    -2.4203445718740113E-005
   4.1700000000000015E-002     2.9602153517771512E-005
   4.2800000000000005E-002     7.6532975072041154E-005
   4.3900000000000022E-002     9.2622314696200192E-005
   4.5000000000000012E-002     6.5477957832626998E-005
   4.6100000000000002E-002     2.9151276521588443E-006
   4.7200000000000020E-002    -6.7258035414852202E-005
   4.8300000000000010E-002    -1.0788373765535653E-004
   4.9400000000000027E-002    -9.0064648247789592E-005
   5.0500000000000017E-002    -1.0074161764350720E-005
   5.1600000000000007E-002     1.0323219612473622E-004
   5.2700000000000025E-002     1.9615447672549635E-004
   5.3800000000000014E-002     2.1192918939050287E-004
   5.4900000000000004E-002     1.1797290062531829E-004
   5.6000000000000022E-002    -7.4177340138703585E-005
   5.7100000000000012E-002    -3.0686185345984995E-004
   5.8200000000000002E-002    -4.9475370906293392E-004
   5.9300000000000019E-002    -5.5624387459829450E-004
   6.0400000000000009E-002    -4.4398920726962388E-004
   6.1500000000000027E-002    -1.6194925410673022E-004
   6.2600000000000017E-002     2.3632142983842641E-004
   6.3700000000000007E-002     6.6460389643907547E-004
   6.4800000000000024E-002     1.0276644024997950E-003
   6.5900000000000014E-002     1.2435357784852386E-003
   6.7000000000000004E-002     1.2596244923770428E-003
   6.8100000000000022E-002     1.0601817630231380E-003
   6.9200000000000012E-002     6.6297035664319992E-004
   7.0300000000000029E-002     1.0352261597290635E-004
   7.1400000000000019E-002    -5.9045967645943165E-004
   7.2500000000000009E-002    -1.4250261010602117E-003
   7.3600000000000027E-002    -2.4513460230082273E-003
   7.4700000000000016E-002    -3.7506411317735910E-003
   7.5800000000000006E-002    -5.3936308249831200E-003
   7.6900000000000024E-002    -7.3925917968153954E-003
   7.8000000000000014E-002    -9.6742920577526093E-003
   7.9100000000000004E-002    -1.2098199687898159E-002
   8.0200000000000021E-002    -1.4523408375680447E-002
   8.1300000000000011E-002    -1.6902640461921692E-002
   8.2400000000000029E-002    -1.9363133236765862E-002
   8.3500000000000019E-002    -2.2232975810766220E-002
   8.4600000000000009E-002    -2.5995530188083649E-002
   8.5700000000000026E-002    -3.1183512881398201E-002
   8.6800000000000016E-002    -3.8259238004684448E-002
   8.7900000000000006E-002    -4.7536134719848633E-002
   8.9000000000000024E-002    -5.9184469282627106E-002
   9.0100000000000013E-002    -7.3322780430316925E-002
   9.1200000000000003E-002    -9.0154387056827545E-002
   9.2300000000000021E-002   -0.11008820682764053
   9.3400000000000011E-002   -0.13378041982650757
   9.4500000000000028E-002   -0.16209296882152557
   9.5600000000000018E-002   -0.19598770141601562
   9.6700000000000008E-002   -0.23643703758716583
   9.7800000000000026E-002   -0.28439676761627197
   9.8900000000000016E-002   -0.34084591269493103
  0.10000000000000001        -0.40688118338584900
  0.10110000000000002        -0.48378953337669373
  0.10220000000000001        -0.57308983802795410
  0.10330000000000003        -0.67653900384902954
  0.10440000000000002        -0.79611647129058838
  0.10550000000000001        -0.93399822711944580
  0.10660000000000003         -1.0925676822662354
  0.10770000000000002         -1.2743922472000122
  0.10880000000000001         -1.4821830987930298
  0.10990000000000003         -1.7186585664749146
  0.11100000000000002         -1.9864830970764160
  0.11210000000000001         -2.2881770133972168
  0.11320000000000002         -2.6262056827545166
  0.11430000000000001         -3.0029931068420410
  0.11540000000000003         -3.4210364818572998
  0.11650000000000002         -3.8829503059387207
  0.11760000000000001         -4.3914084434509277
  0.11870000000000003         -4.9487724304199219
  0.11980000000000002         -5.5568370819091797
  0.12090000000000001         -6.2165474891662598
  0.12200000000000003         -6.9279084205627441
  0.12310000000000001         -7.6899676322937012
  0.12420000000000003         -8.5007228851318359
  0.12530000000000002         -9.3573541641235352
  0.12640000000000001         -10.255950927734375
  0.12750000000000003         -11.191672325134277
  0.12860000000000002         -12.157846450805664
  0.12970000000000001         -13.146298408508301
  0.13080000000000003         -14.146353721618652
  0.13190000000000002         -15.145531654357910
  0.13300000000000001         -16.129360198974609
  0.13410000000000000         -17.082027435302734
  0.13520000000000004         -17.985382080078125
  0.13630000000000003         -18.819561004638672
  0.13740000000000002         -19.561990737915039
  0.13850000000000001         -20.188293457031250
  0.13960000000000000         -20.673530578613281
  0.14070000000000005         -20.990781784057617
  0.14180000000000004         -21.113359451293945
  0.14290000000000003         -21.014389038085938
  0.14400000000000002         -20.665582656860352
  0.14510000000000001         -20.039834976196289
  0.14620000000000000         -19.109449386596680
  0.14730000000000004         -17.848976135253906
  0.14840000000000003         -16.237167358398438
  0.14950000000000002         -14.253301620483398
  0.15060000000000001         -11.881805419921875
  0.15170000000000000         -9.1122207641601562
  0.15280000000000005         -5.9405622482299805
  0.15390000000000004         -2.3653774261474609
  0.15500000000000003          1.6054072380065918
  0.15610000000000002          5.9569325447082520
  0.15720000000000001          10.668324470520020
  0.15830000000000000          15.712902069091797
  0.15940000000000004          21.053508758544922
  0.16050000000000003          26.641700744628906
  0.16160000000000002          32.424053192138672
  0.16270000000000001          38.332336425781250
  0.16380000000000000          44.300807952880859
  0.16490000000000005          50.253749847412109
  0.16600000000000004          56.113895416259766
  0.16710000000000003          61.790981292724609
  0.16820000000000002          67.196029663085938
  0.16930000000000001          72.230705261230469
  0.17040000000000000          76.802467346191406
  0.17150000000000004          80.822486877441406
  0.17260000000000003          84.203842163085938
  0.17370000000000002          86.861602783203125
  0.17480000000000001          88.714103698730469
  0.17590000000000000          89.690757751464844
  0.17700000000000005          89.733451843261719
  0.17810000000000004          88.795631408691406
  0.17920000000000003          86.845710754394531
  0.18030000000000002          83.861000061035156
  0.18140000000000001          79.834747314453125
  0.18250000000000000          74.778388977050781
  0.18360000000000004          68.721145629882812
  0.18470000000000003          61.713413238525391
  0.18580000000000002          53.815223693847656
  0.18690000000000001          45.100940704345703
  0.18800000000000000          35.660202026367188
  0.18910000000000005          25.601093292236328
  0.19020000000000004          15.045064926147461
  0.19130000000000003          4.1263699531555176
  0.19240000000000002         -7.0183396339416504
  0.19350000000000001         -18.249361038208008
  0.19460000000000005         -29.423017501831055
  0.19570000000000004         -40.390541076660156
  0.19680000000000003         -51.002006530761719
  0.19790000000000002         -61.111221313476562
  0.19900000000000001         -70.584106445312500
  0.20010000000000000         -79.306983947753906
  0.20120000000000005         -87.162895202636719
  0.20230000000000004         -94.049057006835938
  0.20340000000000003         -99.878997802734375
  0.20450000000000002         -104.58376312255859
  0.20560000000000000         -108.11127471923828
  0.20670000000000005         -110.43508911132812
  0.20780000000000004         -111.54563903808594
  0.20890000000000003         -111.45266723632812
