 -0.12000000000000000          0.0000000000000000
 -0.11889999999999999          0.0000000000000000
 -0.11780000000000000          0.0000000000000000
 -0.11670000000000000          0.0000000000000000
 -0.11559999999999999          0.0000000000000000
 -0.11449999999999999          0.0000000000000000
 -0.11340000000000000          0.0000000000000000
 -0.11230000000000000          0.0000000000000000
 -0.11119999999999999          0.0000000000000000
 -0.11009999999999999          0.0000000000000000
 -0.10900000000000000         -1.2226394803074347E-034
 -0.10790000000000000          2.1675193800781555E-033
 -0.10679999999999999         -2.4604928182909059E-031
 -0.10569999999999999         -3.3919406710491468E-031
 -0.10460000000000000         -3.8251275015446817E-031
 -0.10349999999999999         -4.6154781718821969E-029
 -0.10239999999999999         -2.1671584477115703E-028
 -0.10130000000000000          1.3446551574807592E-028
 -0.10020000000000000          2.8166810177580877E-027
  -9.9099999999999994E-002     2.1918005287570105E-027
  -9.7999999999999990E-002    -2.9867460244513249E-026
  -9.6899999999999986E-002    -8.2741709826127096E-026
  -9.5799999999999996E-002     1.1411882489461586E-025
  -9.4699999999999993E-002     9.6243949222312758E-025
  -9.3599999999999989E-002     1.1862481071118992E-024
  -9.2499999999999999E-002    -4.4009421831185783E-024
  -9.1399999999999995E-002    -1.7561067691674700E-023
  -9.0299999999999991E-002    -1.0657288370760597E-023
  -8.9200000000000002E-002     7.9776102328033251E-023
  -8.8099999999999984E-002     2.3055281632602948E-022
  -8.6999999999999994E-002     7.8258182485094222E-023
  -8.5899999999999990E-002    -9.7172133691904111E-022
  -8.4799999999999986E-002    -2.4197835960853363E-021
  -8.3699999999999997E-002    -7.1913781907717442E-022
  -8.2599999999999993E-002     8.8778467867832148E-021
  -8.1499999999999989E-002     2.1299332086569332E-020
  -8.0399999999999999E-002     8.5948411573649747E-021
  -7.9299999999999995E-002    -6.3573230934052900E-020
  -7.8199999999999992E-002    -1.6004037167613385E-019
  -7.7100000000000002E-002    -9.5450154490689681E-020
  -7.5999999999999984E-002     3.5973562682169499E-019
  -7.4899999999999994E-002     1.0296118709721845E-018
  -7.3799999999999991E-002     8.5995836810847738E-019
  -7.2699999999999987E-002    -1.5569119043217957E-018
  -7.1599999999999997E-002    -5.6480917929080295E-018
  -7.0499999999999993E-002    -6.2451966675728016E-018
  -6.9399999999999989E-002     4.4419102585730054E-018
  -6.8300000000000000E-002     2.6146404921747855E-017
  -6.7199999999999996E-002     3.7162098179292083E-017
  -6.6099999999999992E-002    -8.4271506445677353E-019
  -6.5000000000000002E-002    -9.9893401266337419E-017
  -6.3899999999999985E-002    -1.8351747013784707E-016
  -6.2799999999999995E-002    -8.5901581647998852E-017
  -6.1699999999999991E-002     2.9823172451964820E-016
  -6.0599999999999994E-002     7.5482218775911863E-016
  -5.9499999999999990E-002     6.6010384016314976E-016
  -5.8399999999999994E-002    -5.7699545553784037E-016
  -5.7299999999999990E-002    -2.5606420094384259E-015
  -5.6199999999999986E-002    -3.2816275602953401E-015
  -5.5099999999999996E-002    -1.5213495238163444E-016
  -5.3999999999999992E-002     6.9109960267564607E-015
  -5.2899999999999989E-002     1.2531118924095051E-014
  -5.1799999999999985E-002     7.3892723333906542E-015
  -5.0699999999999995E-002    -1.3187976034031816E-014
  -4.9599999999999991E-002    -3.8118945798254131E-014
  -4.8499999999999988E-002    -3.9418582330544294E-014
  -4.7399999999999998E-002     7.8440434757385408E-015
  -4.6299999999999994E-002     9.0730672757874387E-014
  -4.5199999999999990E-002     1.3993106261385446E-013
  -4.4099999999999986E-002     6.5385156598936345E-014
  -4.2999999999999997E-002    -1.5180947319538840E-013
  -4.1899999999999993E-002    -3.7690721854319320E-013
  -4.0799999999999989E-002    -3.5567244136870679E-013
  -3.9699999999999985E-002     8.3783837073053702E-014
  -3.8599999999999995E-002     7.7036890321763307E-013
  -3.7499999999999992E-002     1.1285762905807739E-012
  -3.6399999999999988E-002     5.2941781817847366E-013
  -3.5299999999999984E-002    -1.0541845174572018E-012
  -3.4199999999999994E-002    -2.6102535931327164E-012
  -3.3099999999999991E-002    -2.4913823174627092E-012
  -3.1999999999999987E-002     2.4471830811778617E-013
  -3.0899999999999997E-002     4.4166818639890248E-012
  -2.9799999999999993E-002     6.6768548155626828E-012
  -2.8699999999999989E-002     3.6819393020581792E-012
  -2.7599999999999986E-002    -4.5328575962177986E-012
  -2.6499999999999996E-002    -1.2776891523957890E-011
  -2.5399999999999992E-002    -1.3154565978168442E-011
  -2.4299999999999988E-002    -1.4194565661762581E-012
  -2.3199999999999985E-002     1.7167670063322760E-011
  -2.2099999999999995E-002     2.8462676660012676E-011
  -2.0999999999999991E-002     1.8876296359326972E-011
  -1.9899999999999987E-002    -1.1621857122501300E-011
  -1.8799999999999983E-002    -4.3872426525037866E-011
  -1.7699999999999994E-002    -4.9617792513556580E-011
  -1.6599999999999990E-002    -1.3974349455381230E-011
  -1.5499999999999986E-002     4.6075202680961880E-011
  -1.4399999999999996E-002     8.5842763453136683E-011
  -1.3299999999999992E-002     6.3889830925756286E-011
  -1.2199999999999989E-002    -1.9615756935431605E-011
  -1.1099999999999985E-002    -1.0990246213093968E-010
  -9.9999999999999950E-003    -1.2995124420989157E-010
  -8.8999999999999913E-003    -4.2788328435960921E-011
  -7.7999999999999875E-003     1.0387986304483121E-010
  -6.6999999999999837E-003     1.9638518589104592E-010
  -5.5999999999999939E-003     1.3848640290081704E-010
  -4.4999999999999901E-003    -5.7637367101293080E-011
  -3.3999999999999864E-003    -2.5273941273162848E-010
  -2.2999999999999826E-003    -2.7082822096069492E-010
  -1.1999999999999927E-003    -4.6907519535288600E-011
  -9.9999999999988987E-005     2.8468027934991369E-010
   1.0000000000000148E-003     4.5581463603561190E-010
   2.1000000000000185E-003     2.6629110028153491E-010
   3.2000000000000084E-003    -2.2101573349253556E-010
   4.3000000000000121E-003    -6.6435196233172178E-010
   5.4000000000000159E-003    -6.6564825873527411E-010
   6.5000000000000058E-003    -9.8135083392847378E-011
   7.6000000000000234E-003     7.1638867060741518E-010
   8.7000000000000133E-003     1.1669452071316755E-009
   9.8000000000000032E-003     7.9261147645226515E-010
   1.0900000000000021E-002    -3.0310759457918834E-010
   1.2000000000000011E-002    -1.4119051483518774E-009
   1.3100000000000001E-002    -1.6656964696437626E-009
   1.4200000000000018E-002    -7.0073719049545957E-010
   1.5300000000000008E-002     9.5697572088937477E-010
   1.6400000000000026E-002     2.1493495871993673E-009
   1.7500000000000016E-002     1.8949632973885855E-009
   1.8600000000000005E-002     1.9346035884382218E-010
   1.9700000000000023E-002    -1.8230548182174289E-009
   2.0800000000000013E-002    -2.6218966997504367E-009
   2.1900000000000003E-002    -1.4378819246374519E-009
   2.3000000000000020E-002     9.9805252951057355E-010
   2.4100000000000010E-002     2.8331075263565708E-009
   2.5200000000000000E-002     2.4439650303520466E-009
   2.6300000000000018E-002    -1.8049561845145945E-010
   2.7400000000000008E-002    -3.1563285318725320E-009
   2.8500000000000025E-002    -3.9435010812383098E-009
   2.9600000000000015E-002    -1.3521281871931023E-009
   3.0700000000000005E-002     3.1992617444132065E-009
   3.1800000000000023E-002     6.3397784799690271E-009
   3.2900000000000013E-002     5.1216666463460570E-009
   3.4000000000000002E-002    -5.1142068357989956E-010
   3.5100000000000020E-002    -7.1370860332820030E-009
   3.6200000000000010E-002    -9.9266950215337602E-009
   3.7300000000000028E-002    -6.1478244717250163E-009
   3.8400000000000017E-002     2.4529482889334986E-009
   3.9500000000000007E-002     1.0400215799677426E-008
   4.0600000000000025E-002     1.2168351659624932E-008
   4.1700000000000015E-002     6.2507647946574707E-009
   4.2800000000000005E-002    -3.4976848084511403E-009
   4.3900000000000022E-002    -1.0508855119439886E-008
   4.5000000000000012E-002    -1.0341683065462348E-008
   4.6100000000000002E-002    -4.0106682419605022E-009
   4.7200000000000020E-002     2.9585009997390443E-009
   4.8300000000000010E-002     5.1875499451625728E-009
   4.9400000000000027E-002     2.0808315071008110E-009
   5.0500000000000017E-002    -1.6276371361811925E-009
   5.1600000000000007E-002    -3.1594216132191377E-010
   5.2700000000000025E-002     6.5839724783245401E-009
   5.3800000000000014E-002     1.2585337216819426E-008
   5.4900000000000004E-002     8.9062819341734212E-009
   5.6000000000000022E-002    -6.9016219406137225E-009
   5.7100000000000012E-002    -2.5692884264572058E-008
   5.8200000000000002E-002    -3.0899730774081036E-008
   5.9300000000000019E-002    -1.1281784395578143E-008
   6.0400000000000009E-002     2.6581142620329956E-008
   6.1500000000000027E-002     5.7283408239072742E-008
   6.2600000000000017E-002     5.1668965994622340E-008
   6.3700000000000007E-002     2.3498714085690153E-010
   6.4800000000000024E-002    -7.2110765358956996E-008
   6.5900000000000014E-002    -1.1465878202443491E-007
   6.7000000000000004E-002    -8.2842248616543657E-008
   6.8100000000000022E-002     2.5034108119825760E-008
   6.9200000000000012E-002     1.5344511439252528E-007
   7.0300000000000029E-002     2.1456098409089464E-007
   7.1400000000000019E-002     1.4376610124600120E-007
   7.2500000000000009E-002    -4.7685837500921480E-008
   7.3600000000000027E-002    -2.6172062916884897E-007
   7.4700000000000016E-002    -3.6112274415245338E-007
   7.5800000000000006E-002    -2.5435528527850693E-007
   7.6900000000000024E-002     3.4145045901823323E-008
   7.8000000000000014E-002     3.5883107329937047E-007
   7.9100000000000004E-002     5.2716262644025846E-007
   8.0200000000000021E-002     4.1528835481585702E-007
   8.1300000000000011E-002     5.4424887707682501E-008
   8.2400000000000029E-002    -3.7215710335658514E-007
   8.3500000000000019E-002    -6.2893730046198471E-007
   8.4600000000000009E-002    -5.6874131360018509E-007
   8.5700000000000026E-002    -2.2599778048970620E-007
   8.6800000000000016E-002     2.0143755818935460E-007
   8.7900000000000006E-002     4.7674231495875574E-007
   8.9000000000000024E-002     4.7796459057281027E-007
   9.0100000000000013E-002     2.7836927074531559E-007
   9.1200000000000003E-002     9.2016065877942310E-008
   9.2300000000000021E-002     1.1068328831242980E-007
   9.3400000000000011E-002     3.3700297308314475E-007
   9.4500000000000028E-002     5.3494471785597852E-007
   9.5600000000000018E-002     3.5486624483382911E-007
   9.6700000000000008E-002    -4.2061481053679017E-007
   9.7800000000000026E-002    -1.6545811831747415E-006
   9.8900000000000016E-002    -2.8119156922912225E-006
  0.10000000000000001         -3.1601871341990773E-006
  0.10110000000000002         -2.1401829144451767E-006
  0.10220000000000001          2.8375279725878499E-007
  0.10330000000000003          3.4980494092451409E-006
  0.10440000000000002          6.4380087678728160E-006
  0.10550000000000001          8.0333966252510436E-006
  0.10660000000000003          7.6764254117733799E-006
  0.10770000000000002          5.4549677770410199E-006
  0.10880000000000001          2.0085344658582471E-006
  0.10990000000000003         -1.9276981220173184E-006
  0.11100000000000002         -6.0389347709133290E-006
  0.11210000000000001         -1.0702699000830762E-005
  0.11320000000000002         -1.6839385352795944E-005
  0.11430000000000001         -2.5412056857021526E-005
  0.11540000000000003         -3.6876543163089082E-005
  0.11650000000000002         -5.0950511649716645E-005
  0.11760000000000001         -6.6910899477079511E-005
  0.11870000000000003         -8.4312858234625310E-005
  0.11980000000000002         -1.0372858378104866E-004
  0.12090000000000001         -1.2702491949312389E-004
  0.12200000000000003         -1.5692229499109089E-004
  0.12310000000000001         -1.9600932137109339E-004
  0.12420000000000003         -2.4578507873229682E-004
  0.12530000000000002         -3.0639907345175743E-004
  0.12640000000000001         -3.7743899156339467E-004
  0.12750000000000003         -4.5951060019433498E-004
  0.12860000000000002         -5.5580504704266787E-004
  0.12970000000000001         -6.7271344596520066E-004
  0.13080000000000003         -8.1898056669160724E-004
  0.13190000000000002         -1.0037062456831336E-003
  0.13300000000000001         -1.2342499103397131E-003
  0.13410000000000000         -1.5152901178225875E-003
  0.13520000000000004         -1.8497518030926585E-003
  0.13630000000000003         -2.2412994876503944E-003
  0.13740000000000002         -2.6971632614731789E-003
  0.13850000000000001         -3.2298099249601364E-003
  0.13960000000000000         -3.8565765134990215E-003
  0.14070000000000005         -4.5975712127983570E-003
  0.14180000000000004         -5.4731755517423153E-003
  0.14290000000000003         -6.5027195960283279E-003
  0.14400000000000002         -7.7051864936947823E-003
  0.14510000000000001         -9.1014700010418892E-003
  0.14620000000000000         -1.0716712102293968E-002
  0.14730000000000004         -1.2581165879964828E-002
  0.14840000000000003         -1.4728922396898270E-002
  0.14950000000000002         -1.7195310443639755E-002
  0.15060000000000001         -2.0014714449644089E-002
  0.15170000000000000         -2.3220472037792206E-002
  0.15280000000000005         -2.6847157627344131E-002
  0.15390000000000004         -3.0933946371078491E-002
  0.15500000000000003         -3.5526882857084274E-002
  0.15610000000000002         -4.0678128600120544E-002
  0.15720000000000001         -4.6442016959190369E-002
  0.15830000000000000         -5.2869677543640137E-002
  0.15940000000000004         -6.0004919767379761E-002
  0.16050000000000003         -6.7883446812629700E-002
  0.16160000000000002         -7.6535336673259735E-002
  0.16270000000000001         -8.5989162325859070E-002
  0.16380000000000000         -9.6274122595787048E-002
  0.16490000000000005        -0.10741814970970154
  0.16600000000000004        -0.11944275349378586
  0.16710000000000003        -0.13235619664192200
  0.16820000000000002        -0.14614877104759216
  0.16930000000000001        -0.16079165041446686
  0.17040000000000000        -0.17623887956142426
  0.17150000000000004        -0.19243104755878448
  0.17260000000000003        -0.20929676294326782
  0.17370000000000002        -0.22674952447414398
  0.17480000000000001        -0.24468128383159637
  0.17590000000000000        -0.26295512914657593
  0.17700000000000005        -0.28139999508857727
  0.17810000000000004        -0.29981136322021484
  0.17920000000000003        -0.31795632839202881
  0.18030000000000002        -0.33558136224746704
  0.18140000000000001        -0.35241717100143433
  0.18250000000000000        -0.36817896366119385
  0.18360000000000004        -0.38256379961967468
  0.18470000000000003        -0.39524778723716736
  0.18580000000000002        -0.40588352084159851
  0.18690000000000001        -0.41410276293754578
  0.18800000000000000        -0.41952672600746155
  0.18910000000000005        -0.42177563905715942
  0.19020000000000004        -0.42047628760337830
  0.19130000000000003        -0.41526907682418823
  0.19240000000000002        -0.40581500530242920
  0.19350000000000001        -0.39179962873458862
  0.19460000000000005        -0.37293702363967896
  0.19570000000000004        -0.34897744655609131
  0.19680000000000003        -0.31971776485443115
  0.19790000000000002        -0.28501361608505249
  0.19900000000000001        -0.24478848278522491
  0.20010000000000000        -0.19903482496738434
  0.20120000000000005        -0.14781495928764343
  0.20230000000000004         -9.1265827417373657E-002
  0.20340000000000003         -2.9603548347949982E-002
  0.20450000000000002          3.6870021373033524E-002
  0.20560000000000000         0.10776008665561676
  0.20670000000000005         0.18257614970207214
  0.20780000000000004         0.26073536276817322
  0.20890000000000003         0.34156933426856995
