  -8.00000000       0.00000000
  -7.84000015       0.00000000
  -7.67999983       0.00000000
  -7.51999998       0.00000000
  -7.36000013       0.00000000
  -7.19999981       0.00000000
  -7.03999996       0.00000000
  -6.88000011       0.00000000
  -6.71999979      -3.24280041E-32
  -6.55999994       4.71064592E-25
  -6.40000010       5.86424445E-24
  -6.23999977       2.85981169E-23
  -6.07999992       6.12863513E-23
  -5.92000008      -2.29327087E-23
  -5.76000023      -5.37311919E-22
  -5.59999990      -1.59334020E-21
  -5.44000006      -1.62773443E-21
  -5.28000021       4.57630969E-21
  -5.11999989       2.18300799E-20
  -4.96000004       3.09102305E-20
  -4.80000019      -4.15003654E-20
  -4.63999987      -2.51809650E-19
  -4.48000002      -3.45025331E-19
  -4.32000017       4.36230602E-19
  -4.15999985       2.35275892E-18
  -4.00000000       2.69233827E-18
  -3.83999991      -4.25199786E-18
  -3.68000007      -1.78178575E-17
  -3.51999998      -1.62927631E-17
  -3.35999990       3.32766489E-17
  -3.20000005       1.11466174E-16
  -3.03999996       8.19480157E-17
  -2.88000011      -2.09212175E-16
  -2.72000003      -5.94224053E-16
  -2.55999994      -3.67878400E-16
  -2.40000010       1.08327224E-15
  -2.24000001       2.77481133E-15
  -2.07999992       1.57976907E-15
  -1.91999996      -4.70959213E-15
  -1.75999999      -1.15744537E-14
  -1.60000002      -6.78460812E-15
  -1.44000006       1.72723757E-14
  -1.27999997       4.35034394E-14
  -1.12000000       2.89533818E-14
 -0.959999979      -5.26030872E-14
 -0.800000012      -1.46948629E-13
 -0.639999986      -1.17592026E-13
 -0.479999989       1.25830309E-13
 -0.319999993       4.40234329E-13
 -0.159999996       4.34171877E-13
   1.66533454E-16  -1.93093114E-13
  0.159999996      -1.14121874E-12
  0.319999993      -1.40855047E-12
  0.479999989      -6.95509934E-14
  0.639999986       2.44921813E-12
  0.800000012       3.90975533E-12
  0.959999979       1.77009709E-12
   1.12000000      -3.93796324E-12
   1.27999997      -9.01052410E-12
   1.44000006      -7.38996624E-12
   1.60000002       3.11707257E-12
   1.75999999       1.63791428E-11
   1.91999996       2.02242580E-11
   2.07999992       6.11786620E-12
   2.24000001      -2.06352123E-11
   2.40000010      -4.02607149E-11
   2.55999994      -3.16711900E-11
   2.72000003       8.37618950E-12
   2.88000011       5.61077122E-11
   3.03999996       7.30762742E-11
   3.20000005       3.52673793E-11
   3.35999990      -4.20613960E-11
   3.51999998      -1.06638871E-10
   3.68000007      -1.03649644E-10
   3.83999991      -2.09137568E-11
   4.00000000       9.14459411E-11
   4.15999985       1.50015292E-10
   4.32000017       1.02037385E-10
   4.48000002      -2.40042240E-11
   4.63999987      -1.29620828E-10
   4.80000019      -1.23324462E-10
   4.96000004      -6.91677878E-12
   5.11999989       1.08753097E-10
   5.28000021       9.12754386E-11
   5.44000006      -8.16065965E-11
   5.59999990      -2.64223504E-10
   5.76000023      -2.37309561E-10
   5.92000008       9.36054567E-11
   6.07999992       5.56415469E-10
   6.23999977       7.77009901E-10
   6.40000010       4.48181436E-10
   6.55999994      -3.82319593E-10
   6.71999979      -1.24701693E-09
   6.88000011      -1.51968405E-09
   7.03999996      -8.55772619E-10
   7.19999981       5.00691877E-10
   7.36000013       1.79691284E-09
   7.51999998       2.22748420E-09
   7.67999983       1.47378620E-09
   7.84000015      -5.48154855E-11
   8.00000000      -1.47124957E-09
   8.15999985      -2.00113726E-09
   8.31999969      -1.50583157E-09
   8.47999954      -5.57999147E-10
   8.64000034       3.63546151E-12
   8.80000019      -2.60614502E-10
   8.96000004      -9.78793824E-10
   9.11999989      -1.11805831E-09
   9.27999973       3.75163567E-10
   9.43999958       3.85927912E-09
   9.60000038       8.68069794E-09
   9.76000023       1.34725475E-08
   9.92000008       1.68749779E-08
   10.0799999       1.81793052E-08
   10.2399998       1.73942780E-08
   10.3999996       1.45429189E-08
   10.5600004       8.43483949E-09
   10.7200003      -4.58289540E-09
   10.8800001      -3.15486837E-08
   11.0400000      -8.36783300E-08
   11.1999998      -1.77828127E-07
   11.3599997      -3.39693941E-07
   11.5200005      -6.09576773E-07
   11.6800003      -1.05107824E-06
   11.8400002      -1.76284698E-06
   12.0000000      -2.89371633E-06
   12.1599998      -4.66202073E-06
   12.3199997      -7.38006929E-06
   12.4799995      -1.14843560E-05
   12.6400003      -1.75712157E-05
   12.8000002      -2.64365171E-05
   12.9600000      -3.91167596E-05
   13.1199999      -5.69274598E-05
   13.2799997      -8.14927189E-05
   13.4399996      -1.14757509E-04
   13.6000004      -1.58972340E-04
   13.7600002      -2.16638669E-04
   13.9200001      -2.90403492E-04
   14.0799999      -3.82893777E-04
   14.2399998      -4.96484048E-04
   14.3999996      -6.32997602E-04
   14.5600004      -7.93347601E-04
   14.7200003      -9.77134448E-04
   14.8800001      -1.18222728E-03
   15.0400000      -1.40436890E-03
   15.1999998      -1.63685204E-03
   15.3599997      -1.87032227E-03
   15.5200005      -2.09276471E-03
   15.6800003      -2.28972151E-03
   15.8400002      -2.44477810E-03
   16.0000000      -2.54033040E-03
   16.1599998      -2.55862973E-03
   16.3199997      -2.48305639E-03
   16.4799995      -2.29955581E-03
   16.6399994      -1.99812860E-03
   16.7999992      -1.57424295E-03
   16.9599991      -1.03002228E-03
   17.1200008      -3.75066942E-04
   17.2800007       3.73217888E-04
   17.4400005       1.18988298E-03
   17.6000004       2.04333267E-03
   17.7600002       2.89685163E-03
   17.9200001       3.71069089E-03
   18.0799999       4.44457354E-03
   18.2399998       5.06043620E-03
   18.3999996       5.52518060E-03
   18.5599995       5.81318885E-03
   18.7199993       5.90836722E-03
   18.8799992       5.80551988E-03
   19.0400009       5.51090343E-03
   19.2000008       5.04189171E-03
   19.3600006       4.42576502E-03
   19.5200005       3.69771896E-03
   19.6800003       2.89827771E-03
   19.8400002       2.07033264E-03
   20.0000000       1.25608675E-03
   20.1599998       4.94167907E-04
   20.3199997      -1.82837830E-04
   20.4799995      -7.50233477E-04
   20.6399994      -1.19231234E-03
   20.7999992      -1.50266325E-03
   20.9599991      -1.68371550E-03
   21.1200008      -1.74563448E-03
   21.2800007      -1.70473312E-03
   21.4400005      -1.58160250E-03
   21.6000004      -1.39916525E-03
   21.7600002      -1.18084950E-03
   21.9200001      -9.49033594E-04
   22.0799999      -7.23867270E-04
   22.2399998      -5.22506831E-04
   22.3999996      -3.58745339E-04
   22.5599995      -2.42967901E-04
   22.7199993      -1.82331132E-04
   22.8799992      -1.81054158E-04
   23.0400009      -2.40715584E-04
   23.2000008      -3.60474864E-04
   23.3600006      -5.37171960E-04
   23.5200005      -7.65302684E-04
   23.6800003      -1.03690987E-03
   23.8400002      -1.34146435E-03
   24.0000000      -1.66583015E-03
   24.1599998      -1.99440797E-03
   24.3199997      -2.30952678E-03
   24.4799995      -2.59213219E-03
   24.6399994      -2.82276049E-03
   24.7999992      -2.98274984E-03
   24.9599991      -3.05559114E-03
   25.1200008      -3.02829174E-03
   25.2800007      -2.89261038E-03
   25.4400005      -2.64601759E-03
   25.6000004      -2.29226984E-03
   25.7600002      -1.84151018E-03
   25.9200001      -1.30986574E-03
   26.0799999      -7.18553143E-04
   26.2399998      -9.25638524E-05
   26.3999996       5.40973328E-04
   26.5599995       1.15461973E-03
   26.7199993       1.72250427E-03
   26.8799992       2.22210749E-03
   27.0400009       2.63582007E-03
   27.2000008       2.95215915E-03
   27.3600006       3.16654588E-03
   27.5200005       3.28157260E-03
   27.6800003       3.30671202E-03
   27.8400002       3.25744948E-03
   28.0000000       3.15384450E-03
   28.1599998       3.01857409E-03
   28.3199997       2.87454436E-03
   28.4799995       2.74221553E-03
   28.6399994       2.63682194E-03
   28.7999992       2.56573292E-03
   28.9599991       2.52621784E-03
   29.1200008       2.50390684E-03
   29.2800007       2.47220718E-03
   29.4400005       2.39289389E-03
   29.6000004       2.21798965E-03
   29.7600002       1.89294782E-03
   29.9200001       1.36101362E-03
   30.0799999       5.68498333E-04
   30.2399998      -5.29424055E-04
   30.3999996      -1.96289504E-03
   30.5599995      -3.74207087E-03
   30.7199993      -5.85289532E-03
   30.8799992      -8.25442933E-03
   31.0400009      -1.08781233E-02
   31.2000008      -1.36292428E-02
   31.3600006      -1.63904764E-02
   31.5200005      -1.90275703E-02
   31.6800003      -2.13966276E-02
   31.8400002      -2.33525690E-02
