  -8.00000000       0.00000000
  -7.84000015       0.00000000
  -7.67999983       0.00000000
  -7.51999998       0.00000000
  -7.36000013       0.00000000
  -7.19999981      -3.43671251E-40
  -7.03999996      -8.42628469E-19
  -6.88000011       1.00676333E-19
  -6.71999979       1.02264000E-17
  -6.55999994      -8.63519732E-18
  -6.40000010      -1.69049936E-16
  -6.23999977      -3.42474479E-16
  -6.07999992       2.86867110E-16
  -5.92000008       2.07557610E-15
  -5.76000023       1.52962472E-15
  -5.59999990      -8.08669131E-15
  -5.44000006      -2.27795772E-14
  -5.28000021      -1.11990919E-14
  -5.11999989       6.11139286E-14
  -4.96000004       1.44969133E-13
  -4.80000019       5.71776852E-14
  -4.63999987      -3.45092471E-13
  -4.48000002      -7.78228773E-13
  -4.32000017      -4.24629082E-13
  -4.15999985       1.27523144E-12
  -4.00000000       3.23188481E-12
  -3.83999991       2.49112037E-12
  -3.68000007      -3.08023442E-12
  -3.51999998      -1.05346990E-11
  -3.35999990      -1.11629846E-11
  -3.20000005       2.33808741E-12
  -3.03999996       2.46720717E-11
  -2.88000011       3.52138596E-11
  -2.72000003       1.33105714E-11
  -2.55999994      -3.67334878E-11
  -2.40000010      -7.67013328E-11
  -2.24000001      -6.07088893E-11
  -2.07999992       1.80723578E-11
  -1.91999996       1.05701767E-10
  -1.75999999       1.24412869E-10
  -1.60000002       4.58183838E-11
  -1.44000006      -7.01623204E-11
  -1.27999997      -1.21998606E-10
  -1.12000000      -6.69390932E-11
 -0.959999979       2.46179795E-11
 -0.800000012       3.14212961E-11
 -0.639999986      -8.38569630E-11
 -0.479999989      -2.01895792E-10
 -0.319999993      -1.32421893E-10
 -0.159999996       1.93925362E-10
   1.66533454E-16   6.00853589E-10
  0.159999996       7.48613116E-10
  0.319999993       3.89886984E-10
  0.479999989      -3.95773719E-10
  0.639999986      -1.18837629E-09
  0.800000012      -1.47264656E-09
  0.959999979      -9.83705450E-10
   1.12000000       8.52290877E-11
   1.27999997       1.16520982E-09
   1.44000006       1.65056957E-09
   1.60000002       1.29459221E-09
   1.75999999       4.07420514E-10
   1.91999996      -3.06310671E-10
   2.07999992      -2.24810393E-10
   2.24000001       6.71410760E-10
   2.40000010       1.61510272E-09
   2.55999994       1.44250811E-09
   2.72000003      -5.67431047E-10
   2.88000011      -3.91918142E-09
   3.03999996      -6.80942547E-09
   3.20000005      -6.96958047E-09
   3.35999990      -3.01611847E-09
   3.51999998       4.61674743E-09
   3.68000007       1.39272318E-08
   3.83999991       2.26988153E-08
   4.00000000       2.99342418E-08
   4.15999985       3.61199959E-08
   4.32000017       4.18671533E-08
   4.48000002       4.57138150E-08
   4.63999987       4.24747419E-08
   4.80000019       2.28485160E-08
   4.96000004      -2.65040594E-08
   5.11999989      -1.24298140E-07
   5.28000021      -2.99070422E-07
   5.44000006      -5.97181611E-07
   5.59999990      -1.09372502E-06
   5.76000023      -1.90578760E-06
   5.92000008      -3.20883851E-06
   6.07999992      -5.25863607E-06
   6.23999977      -8.42188001E-06
   6.40000010      -1.32185742E-05
   6.55999994      -2.03781146E-05
   6.71999979      -3.09100142E-05
   6.88000011      -4.61891723E-05
   7.03999996      -6.80540688E-05
   7.19999981      -9.89137407E-05
   7.36000013      -1.41855198E-04
   7.51999998      -2.00737530E-04
   7.67999983      -2.80252920E-04
   7.84000015      -3.85929219E-04
   8.00000000      -5.24044968E-04
   8.15999985      -7.01426703E-04
   8.31999969      -9.25100350E-04
   8.47999954      -1.20177714E-03
   8.64000034      -1.53716654E-03
   8.80000019      -1.93512777E-03
   8.96000004      -2.39669601E-03
   9.11999989      -2.91904877E-03
   9.27999973      -3.49450251E-03
   9.43999958      -4.10966063E-03
   9.60000038      -4.74484498E-03
   9.76000023      -5.37395431E-03
   9.92000008      -5.96486777E-03
   10.0799999      -6.48048893E-03
   10.2399998      -6.88045891E-03
   10.3999996      -7.12351361E-03
   10.5600004      -7.17038335E-03
   10.7200003      -6.98704040E-03
   10.8800001      -6.54805126E-03
   11.0400000      -5.83970407E-03
   11.1999998      -4.86258557E-03
   11.3599997      -3.63326515E-03
   11.5200005      -2.18482246E-03
   11.6800003      -5.66032249E-04
   11.8400002       1.16084144E-03
   12.0000000       2.92355916E-03
   12.1599998       4.64448566E-03
   12.3199997       6.24586642E-03
   12.4799995       7.65533186E-03
   12.6400003       8.81108921E-03
   12.8000002       9.66629200E-03
   12.9600000       1.01921288E-02
   13.1199999       1.03793144E-02
   13.2799997       1.02378493E-02
   13.4399996       9.79507342E-03
   13.6000004       9.09229089E-03
   13.7600002       8.18034634E-03
   13.9200001       7.11471168E-03
   14.0799999       5.95064368E-03
   14.2399998       4.73897811E-03
   14.3999996       3.52301588E-03
   14.5600004       2.33680010E-03
   14.7200003       1.20488589E-03
   14.8800001       1.43482699E-04
   15.0400000      -8.37339438E-04
   15.1999998      -1.73084124E-03
   15.3599997      -2.53074197E-03
   15.5200005      -3.22882156E-03
   15.6800003      -3.81344627E-03
   15.8400002      -4.26932191E-03
   16.0000000      -4.57857223E-03
   16.1599998      -4.72302968E-03
   16.3199997      -4.68741683E-03
   16.4799995      -4.46294574E-03
   16.6399994      -4.05075261E-03
   16.7999992      -3.46457982E-03
   16.9599991      -2.73219449E-03
   17.1200008      -1.89516123E-03
   17.2800007      -1.00680871E-03
   17.4400005      -1.28449101E-04
   17.6000004       6.75858289E-04
   17.7600002       1.34550757E-03
   17.9200001       1.82987365E-03
   18.0799999       2.09445483E-03
   18.2399998       2.12592748E-03
   18.3999996       1.93549215E-03
   18.5599995       1.56004145E-03
   18.7199993       1.06088689E-03
   18.8799992       5.20009780E-04
   19.0400009       3.40380357E-05
   19.2000008      -2.93621997E-04
   19.3600006      -3.61887272E-04
   19.5200005      -8.15833482E-05
   19.6800003       6.15305267E-04
   19.8400002       1.76754268E-03
   20.0000000       3.37846112E-03
   20.1599998       5.41231548E-03
   20.3199997       7.79361697E-03
   20.4799995       1.04096420E-02
   20.6399994       1.31160840E-02
   20.7999992       1.57455448E-02
   20.9599991       1.81182884E-02
   21.1200008       2.00545434E-02
   21.2800007       2.13873908E-02
   21.4400005       2.19752677E-02
   21.6000004       2.17130892E-02
   21.7600002       2.05410551E-02
   21.9200001       1.84504073E-02
   22.0799999       1.54856462E-02
   22.2399998       1.17429430E-02
   22.3999996       7.36488029E-03
   22.5599995       2.53189751E-03
   22.7199993      -2.54889135E-03
   22.8799992      -7.65661895E-03
   23.0400009      -1.25703178E-02
   23.2000008      -1.70822404E-02
   23.3600006      -2.10098606E-02
   23.5200005      -2.42056996E-02
   23.6800003      -2.65643280E-02
   23.8400002      -2.80261803E-02
   24.0000000      -2.85781138E-02
   24.1599998      -2.82508656E-02
   24.3199997      -2.71138977E-02
   24.4799995      -2.52681896E-02
   24.6399994      -2.28377767E-02
   24.7999992      -1.99607443E-02
   24.9599991      -1.67804565E-02
   25.1200008      -1.34375989E-02
   25.2800007      -1.00635234E-02
   25.4400005      -6.77516218E-03
   25.6000004      -3.67164728E-03
   25.7600002      -8.32527177E-04
   25.9200001       1.68258953E-03
   26.0799999       3.83326225E-03
   26.2399998       5.59664937E-03
   26.3999996       6.96546212E-03
   26.5599995       7.94572383E-03
   26.7199993       8.55455175E-03
   26.8799992       8.81810393E-03
   27.0400009       8.76974966E-03
   27.2000008       8.44847690E-03
   27.3600006       7.89747853E-03
   27.5200005       7.16285082E-03
   27.6800003       6.29234128E-03
   27.8400002       5.33406390E-03
   28.0000000       4.33517434E-03
   28.1599998       3.34048178E-03
   28.3199997       2.39104126E-03
   28.4799995       1.52277609E-03
   28.6399994       7.65208912E-04
   28.7999992       1.40387783E-04
   28.9599991      -3.37898411E-04
   29.1200008      -6.64527062E-04
   29.2800007      -8.43000656E-04
   29.4400005      -8.84912850E-04
   29.6000004      -8.08909361E-04
   29.7600002      -6.39176695E-04
   29.9200001      -4.03536571E-04
   30.0799999      -1.31271881E-04
   30.2399998       1.49148342E-04
   30.3999996       4.12249647E-04
   30.5599995       6.37436169E-04
   30.7199993       8.10391677E-04
   30.8799992       9.23851447E-04
   31.0400009       9.77660529E-04
   31.2000008       9.78109078E-04
   31.3600006       9.36619937E-04
   31.5200005       8.67941359E-04
   31.6800003       7.88056292E-04
   31.8400002       7.12058216E-04
