  -8.00000000       0.00000000
  -7.84000015       0.00000000
  -7.67999983       0.00000000
  -7.51999998       0.00000000
  -7.36000013       0.00000000
  -7.19999981       0.00000000
  -7.03999996       0.00000000
  -6.88000011       0.00000000
  -6.71999979       0.00000000
  -6.55999994       2.92912386E-32
  -6.40000010       3.31244617E-25
  -6.23999977       2.64631713E-24
  -6.07999992       1.35698102E-23
  -5.92000008       5.18389026E-23
  -5.76000023       1.08194760E-22
  -5.59999990      -2.61437434E-23
  -5.44000006      -7.31242101E-22
  -5.28000021      -1.41755886E-21
  -5.11999989       8.17129843E-22
  -4.96000004       7.48710495E-21
  -4.80000019       8.89729199E-21
  -4.63999987      -1.28749257E-20
  -4.48000002      -4.77396466E-20
  -4.32000017      -2.97015936E-20
  -4.15999985       9.10949710E-20
  -4.00000000       2.13853072E-19
  -3.83999991       1.20619748E-19
  -3.68000007      -2.86018428E-19
  -3.51999998      -9.14564076E-19
  -3.35999990      -1.44406875E-18
  -3.20000005      -2.80795403E-19
  -3.03999996       5.90291553E-18
  -2.88000011       1.52723912E-17
  -2.72000003       7.43852588E-18
  -2.55999994      -4.62437009E-17
  -2.40000010      -1.13912604E-16
  -2.24000001      -3.94913892E-17
  -2.07999992       3.15196577E-16
  -1.91999996       6.59330976E-16
  -1.75999999       1.20197072E-16
  -1.60000002      -1.76317214E-15
  -1.44000006      -3.19197780E-15
  -1.27999997      -2.07206348E-16
  -1.12000000       8.26928959E-15
 -0.959999979       1.35703504E-14
 -0.800000012       2.05582493E-16
 -0.639999986      -3.33258303E-14
 -0.479999989      -5.22016614E-14
 -0.319999993      -2.04326687E-15
 -0.159999996       1.17151921E-13
   1.66533454E-16   1.84430948E-13
  0.159999996       2.41866108E-14
  0.319999993      -3.60678284E-13
  0.479999989      -6.00170358E-13
  0.639999986      -1.65892514E-13
  0.800000012       9.64466137E-13
  0.959999979       1.78787161E-12
   1.12000000       8.19813672E-13
   1.27999997      -2.18059555E-12
   1.44000006      -4.81477575E-12
   1.60000002      -3.21318037E-12
   1.75999999       3.88375269E-12
   1.91999996       1.15086994E-11
   2.07999992       1.04170145E-11
   2.24000001      -4.17662476E-12
   2.40000010      -2.37536258E-11
   2.55999994      -2.84072904E-11
   2.72000003      -3.51792705E-12
   2.88000011       4.02800467E-11
   3.03999996       6.52192467E-11
   3.20000005       3.39927426E-11
   3.35999990      -4.94561649E-11
   3.51999998      -1.24215374E-10
   3.68000007      -1.09726284E-10
   3.83999991       2.02881306E-11
   4.00000000       1.88301597E-10
   4.15999985       2.47465215E-10
   4.32000017       9.75836426E-11
   4.48000002      -2.01136149E-10
   4.63999987      -4.26993135E-10
   4.80000019      -3.47742557E-10
   4.96000004       6.82754062E-11
   5.11999989       5.58257551E-10
   5.28000021       7.11475101E-10
   5.44000006       2.94352015E-10
   5.59999990      -4.90002650E-10
   5.76000023      -1.06158049E-09
   5.92000008      -8.75671258E-10
   6.07999992       9.03280714E-11
   6.23999977       1.19191490E-09
   6.40000010       1.52514368E-09
   6.55999994       6.51897092E-10
   6.71999979      -9.27238675E-10
   6.88000011      -2.01778638E-09
   7.03999996      -1.61914016E-09
   7.19999981       1.94025088E-10
   7.36000013       2.15168661E-09
   7.51999998       2.65378053E-09
   7.67999983       1.04442277E-09
   7.84000015      -1.70358472E-09
   8.00000000      -3.53644025E-09
   8.15999985      -2.81765167E-09
   8.31999969       3.01857844E-10
   8.47999954       3.74312714E-09
   8.64000034       4.85120166E-09
   8.80000019       2.37662090E-09
   8.96000004      -2.35950637E-09
   9.11999989      -6.11080697E-09
   9.27999973      -5.90177374E-09
   9.43999958      -1.30854261E-09
   9.60000038       4.89115637E-09
   9.76000023       8.39601810E-09
   9.92000008       6.40270592E-09
   10.0799999      -1.61418795E-10
   10.2399998      -6.98161040E-09
   10.3999996      -9.28910371E-09
   10.5600004      -5.39301137E-09
   10.7200003       1.87047400E-09
   10.8800001       7.10984827E-09
   11.0400000       6.54134436E-09
   11.1999998       1.22091970E-09
   11.3599997      -3.37830519E-09
   11.5200005      -1.49964230E-09
   11.6800003       8.04066680E-09
   11.8400002       2.02026236E-08
   12.0000000       2.69590359E-08
   12.1599998       2.31349802E-08
   12.3199997       1.00454454E-08
   12.4799995      -6.58560051E-09
   12.6400003      -2.35119106E-08
   12.8000002      -4.67247254E-08
   12.9600000      -9.31837718E-08
   13.1199999      -1.87127981E-07
   13.2799997      -3.56025879E-07
   13.4399996      -6.32924923E-07
   13.6000004      -1.06820016E-06
   13.7600002      -1.74753029E-06
   13.9200001      -2.80965605E-06
   14.0799999      -4.46002741E-06
   14.2399998      -6.98270742E-06
   14.3999996      -1.07575315E-05
   14.5600004      -1.62883807E-05
   14.7200003      -2.42420138E-05
   14.8800001      -3.54896947E-05
   15.0400000      -5.11404505E-05
   15.1999998      -7.25567807E-05
   15.3599997      -1.01348029E-04
   15.5200005      -1.39339580E-04
   15.6800003      -1.88514590E-04
   15.8400002      -2.50920508E-04
   16.0000000      -3.28528316E-04
   16.1599998      -4.23033518E-04
   16.3199997      -5.35594765E-04
   16.4799995      -6.66519103E-04
   16.6399994      -8.14916275E-04
   16.7999992      -9.78352735E-04
   16.9599991      -1.15254498E-03
   17.1200008      -1.33112923E-03
   17.2800007      -1.50555070E-03
   17.4400005      -1.66511186E-03
   17.6000004      -1.79722102E-03
   17.7600002      -1.88787014E-03
   17.9200001      -1.92235888E-03
   18.0799999      -1.88624603E-03
   18.2399998      -1.76648551E-03
   18.3999996      -1.55266607E-03
   18.5599995      -1.23825355E-03
   18.7199993      -8.21718539E-04
   18.8799992      -3.07431765E-04
   19.0400009       2.93787685E-04
   19.2000008       9.64562758E-04
   19.3600006       1.68134947E-03
   19.5200005       2.41534947E-03
   19.6800003       3.13391024E-03
   19.8400002       3.80233000E-03
   20.0000000       4.38594306E-03
   20.1599998       4.85232612E-03
   20.3199997       5.17345220E-03
   20.4799995       5.32761542E-03
   20.6399994       5.30097540E-03
   20.7999992       5.08858124E-03
   20.9599991       4.69481060E-03
   21.1200008       4.13319794E-03
   21.2800007       3.42568173E-03
   21.4400005       2.60136253E-03
   21.6000004       1.69487344E-03
   21.7600002       7.44507357E-04
   21.9200001      -2.09768303E-04
   22.0799999      -1.12828054E-03
   22.2399998      -1.97349652E-03
   22.3999996      -2.71166326E-03
   22.5599995      -3.31418426E-03
   22.7199993      -3.75870406E-03
   22.8799992      -4.02989145E-03
   23.0400009      -4.11992846E-03
   23.2000008      -4.02871752E-03
   23.3600006      -3.76381725E-03
   23.5200005      -3.34009621E-03
   23.6800003      -2.77912407E-03
   23.8400002      -2.10828078E-03
   24.0000000      -1.35960348E-03
   24.1599998      -5.68364514E-04
   24.3199997       2.28582649E-04
   24.4799995       9.94634582E-04
   24.6399994       1.69534667E-03
   24.7999992       2.30030203E-03
   24.9599991       2.78480235E-03
   25.1200008       3.13124387E-03
   25.2800007       3.33004748E-03
   25.4400005       3.38003645E-03
   25.6000004       3.28820292E-03
   25.7600002       3.06887296E-03
   25.9200001       2.74233101E-03
   26.0799999       2.33302522E-03
   26.2399998       1.86751725E-03
   26.3999996       1.37236516E-03
   26.5599995       8.72154953E-04
   26.7199993       3.87880078E-04
   26.8799992      -6.41663573E-05
   27.0400009      -4.72895714E-04
   27.2000008      -8.32306163E-04
   27.3600006      -1.14080275E-03
   27.5200005      -1.40007306E-03
   27.6800003      -1.61369191E-03
   27.8400002      -1.78566133E-03
   28.0000000      -1.91910029E-03
   28.1599998      -2.01527751E-03
   28.3199997      -2.07311823E-03
   28.4799995      -2.08925898E-03
   28.6399994      -2.05864757E-03
   28.7999992      -1.97560783E-03
   28.9599991      -1.83522166E-03
   29.1200008      -1.63482095E-03
   29.2800007      -1.37535587E-03
   29.4400005      -1.06241938E-03
   29.6000004      -7.06741004E-04
   29.7600002      -3.24025401E-04
   29.9200001       6.59152502E-05
   30.0799999       4.40692384E-04
   30.2399998       7.77391950E-04
   30.3999996       1.05491409E-03
   30.5599995       1.25631283E-03
   30.7199993       1.37083069E-03
   30.8799992       1.39533973E-03
   31.0400009       1.33494136E-03
   31.2000008       1.20256329E-03
   31.3600006       1.01750402E-03
   31.5200005       8.03011062E-04
   31.6800003       5.83117187E-04
   31.8400002       3.79064324E-04
