  -8.00000000       0.00000000
  -7.84000015       0.00000000
  -7.67999983       0.00000000
  -7.51999998       0.00000000
  -7.36000013       0.00000000
  -7.19999981      -7.82333032E-25
  -7.03999996       2.20630860E-19
  -6.88000011      -3.47237724E-18
  -6.71999979      -1.60294235E-17
  -6.55999994       3.02572639E-18
  -6.40000010       1.16304096E-16
  -6.23999977       7.31599562E-17
  -6.07999992      -8.37773395E-16
  -5.92000008      -2.18675658E-15
  -5.76000023       1.36386731E-16
  -5.59999990       1.02588624E-14
  -5.44000006       1.76098777E-14
  -5.28000021      -9.73302859E-15
  -5.11999989      -8.45921911E-14
  -4.96000004      -1.22549838E-13
  -4.80000019       4.88338245E-14
  -4.63999987       4.55908748E-13
  -4.48000002       6.64987596E-13
  -4.32000017      -7.44776081E-14
  -4.15999985      -1.85554501E-12
  -4.00000000      -3.03492344E-12
  -3.83999991      -8.53238107E-13
  -3.68000007       5.35150960E-12
  -3.51999998       1.08121064E-11
  -3.35999990       6.96375509E-12
  -3.20000005      -9.86319360E-12
  -3.03999996      -2.92200500E-11
  -2.88000011      -2.91424350E-11
  -2.72000003       4.40568328E-12
  -2.55999994       5.52495619E-11
  -2.40000010       7.80408793E-11
  -2.24000001       3.41908481E-11
  -2.07999992      -6.23131685E-11
  -1.91999996      -1.37574493E-10
  -1.75999999      -1.12948727E-10
  -1.60000002       1.54524570E-11
  -1.44000006       1.51729226E-10
  -1.27999997       1.72996437E-10
  -1.12000000       4.84721499E-11
 -0.959999979      -1.11012456E-10
 -0.800000012      -1.42615406E-10
 -0.639999986       3.68070288E-12
 -0.479999989       1.84118068E-10
 -0.319999993       1.69549583E-10
 -0.159999996      -1.27028540E-10
   1.66533454E-16  -5.11219289E-10
  0.159999996      -6.15683393E-10
  0.319999993      -2.02516198E-10
  0.479999989       5.86020121E-10
  0.639999986       1.25915955E-09
  0.800000012       1.29786981E-09
  0.959999979       5.27884292E-10
   1.12000000      -7.35888295E-10
   1.27999997      -1.86800531E-09
   1.44000006      -2.28189734E-09
   1.60000002      -1.70630943E-09
   1.75999999      -2.62096816E-10
   1.91999996       1.60960301E-09
   2.07999992       3.26262506E-09
   2.24000001       3.98972499E-09
   2.40000010       3.25614158E-09
   2.55999994       1.00023911E-09
   2.72000003      -2.19376028E-09
   2.88000011      -5.26725641E-09
   3.03999996      -7.16286452E-09
   3.20000005      -7.23504057E-09
   3.35999990      -5.21389598E-09
   3.51999998      -7.80584097E-10
   3.68000007       6.66916966E-09
   3.83999991       1.74952088E-08
   4.00000000       3.06215888E-08
   4.15999985       4.25740687E-08
   4.32000017       4.76570072E-08
   4.48000002       3.91811454E-08
   4.63999987       1.04027800E-08
   4.80000019      -4.65091610E-08
   4.96000004      -1.44196378E-07
   5.11999989      -3.05845418E-07
   5.28000021      -5.71833027E-07
   5.44000006      -1.00735838E-06
   5.59999990      -1.71306590E-06
   5.76000023      -2.84187126E-06
   5.92000008      -4.62485286E-06
   6.07999992      -7.40781206E-06
   6.23999977      -1.16993278E-05
   6.40000010      -1.82314689E-05
   6.55999994      -2.80351960E-05
   6.71999979      -4.25323669E-05
   6.88000011      -6.36441109E-05
   7.03999996      -9.39112942E-05
   7.19999981      -1.36618342E-04
   7.36000013      -1.95906992E-04
   7.51999998      -2.76862935E-04
   7.67999983      -3.85552557E-04
   7.84000015      -5.28982375E-04
   8.00000000      -7.14948110E-04
   8.15999985      -9.51738737E-04
   8.31999969      -1.24766282E-03
   8.47999954      -1.61037757E-03
   8.64000034      -2.04601209E-03
   8.80000019      -2.55810586E-03
   8.96000004      -3.14640184E-03
   9.11999989      -3.80557240E-03
   9.27999973      -4.52399300E-03
   9.43999958      -5.28269634E-03
   9.60000038      -6.05468592E-03
   9.76000023      -6.80476939E-03
   9.92000008      -7.49007938E-03
   10.0799999      -8.06139316E-03
   10.2399998      -8.46532173E-03
   10.3999996      -8.64735153E-03
   10.5600004      -8.55561439E-03
   10.7200003      -8.14518705E-03
   10.8800001      -7.38257682E-03
   11.0400000      -6.25002291E-03
   11.1999998      -4.74915886E-03
   11.3599997      -2.90360535E-03
   11.5200005      -7.60106952E-04
   11.6800003       1.61206152E-03
   11.8400002       4.12356015E-03
   12.0000000       6.66927639E-03
   12.1599998       9.13422462E-03
   12.3199997       1.14006503E-02
   12.4799995       1.33557934E-02
   12.6400003       1.48996543E-02
   12.8000002       1.59520991E-02
   12.9600000       1.64586641E-02
   13.1199999       1.63945146E-02
   13.2799997       1.57662760E-02
   13.4399996       1.46115189E-02
   13.6000004       1.29959946E-02
   13.7600002       1.10089052E-02
   13.9200001       8.75659753E-03
   14.0799999       6.35526935E-03
   14.2399998       3.92329507E-03
   14.3999996       1.57377089E-03
   14.5600004      -5.92169818E-04
   14.7200003      -2.49084411E-03
   14.8800001      -4.06000530E-03
   15.0400000      -5.26117440E-03
   15.1999998      -6.08028751E-03
   15.3599997      -6.52674818E-03
   15.5200005      -6.63106982E-03
   15.6800003      -6.44132681E-03
   15.8400002      -6.01871498E-03
   16.0000000      -5.43250237E-03
   16.1599998      -4.75469185E-03
   16.3199997      -4.05471167E-03
   16.4799995      -3.39444960E-03
   16.6399994      -2.82395491E-03
   16.7999992      -2.37809983E-03
   16.9599991      -2.07448797E-03
   17.1200008      -1.91282004E-03
   17.2800007      -1.87585247E-03
   17.4400005      -1.93195394E-03
   17.6000004      -2.03911914E-03
   17.7600002      -2.15015095E-03
   17.9200001      -2.21857289E-03
   18.0799999      -2.20471551E-03
   18.2399998      -2.08134088E-03
   18.3999996      -1.83816068E-03
   18.5599995      -1.48467429E-03
   18.7199993      -1.05088891E-03
   18.8799992      -5.85696660E-04
   19.0400009      -1.52930210E-04
   19.2000008       1.74622051E-04
   19.3600006       3.22709384E-04
   19.5200005       2.23891868E-04
   19.6800003      -1.74256042E-04
   19.8400002      -9.01891908E-04
   20.0000000      -1.96141331E-03
   20.1599998      -3.32437386E-03
   20.3199997      -4.93121520E-03
   20.4799995      -6.69393083E-03
   20.6399994      -8.50147195E-03
   20.7999992      -1.02274371E-02
   20.9599991      -1.17393183E-02
   21.1200008      -1.29085006E-02
   21.2800007      -1.36200665E-02
   21.4400005      -1.37815680E-02
   21.6000004      -1.33299921E-02
   21.7600002      -1.22363996E-02
   21.9200001      -1.05079180E-02
   22.0799999      -8.18707328E-03
   22.2399998      -5.34864794E-03
   22.3999996      -2.09450908E-03
   22.5599995       1.45305647E-03
   22.7199993       5.15884068E-03
   22.8799992       8.88239965E-03
   23.0400009       1.24853551E-02
   23.2000008       1.58378296E-02
   23.3600006       1.88237485E-02
   23.5200005       2.13447828E-02
   23.6800003       2.33229939E-02
   23.8400002       2.47022454E-02
   24.0000000       2.54486185E-02
   24.1599998       2.55500246E-02
   24.3199997       2.50152852E-02
   24.4799995       2.38728300E-02
   24.6399994       2.21691132E-02
   24.7999992       1.99668668E-02
   24.9599991       1.73431206E-02
   25.1200008       1.43869687E-02
   25.2800007       1.11969979E-02
   25.4400005       7.87830539E-03
   25.6000004       4.53909906E-03
   25.7600002       1.28691900E-03
   25.9200001      -1.77541887E-03
   26.0799999      -4.55399230E-03
   26.2399998      -6.96783699E-03
   26.3999996      -8.95266049E-03
   26.5599995      -1.04639204E-02
   26.7199993      -1.14790266E-02
   26.8799992      -1.19984709E-02
   27.0400009      -1.20457485E-02
   27.2000008      -1.16660297E-02
   27.3600006      -1.09236110E-02
   27.5200005      -9.89827793E-03
   27.6800003      -8.68075155E-03
   27.8400002      -7.36749684E-03
   28.0000000      -6.05520047E-03
   28.1599998      -4.83523728E-03
   28.3199997      -3.78845632E-03
   28.4799995      -2.98060197E-03
   28.6399994      -2.45862291E-03
   28.7999992      -2.24810280E-03
   28.9599991      -2.35196133E-03
   29.1200008      -2.75051384E-03
   29.2800007      -3.40289483E-03
   29.4400005      -4.24977671E-03
   29.6000004      -5.21723600E-03
   29.7600002      -6.22155983E-03
   29.9200001      -7.17471400E-03
   30.0799999      -7.99015630E-03
   30.2399998      -8.58862419E-03
   30.3999996      -8.90352204E-03
   30.5599995      -8.88554379E-03
   30.7199993      -8.50620121E-03
   30.8799992      -7.75998877E-03
   31.0400009      -6.66499976E-03
   31.2000008      -5.26191480E-03
   31.3600006      -3.61140422E-03
   31.5200005      -1.79011072E-03
   31.6800003       1.14495255E-04
   31.8400002       2.00999971E-03
