  -8.00000000       0.00000000
  -7.84000015       0.00000000
  -7.67999983       0.00000000
  -7.51999998       0.00000000
  -7.36000013       0.00000000
  -7.19999981       0.00000000
  -7.03999996       1.94780487E-43
  -6.88000011       2.21891058E-21
  -6.71999979       1.65163363E-20
  -6.55999994       1.94483100E-19
  -6.40000010       8.12080069E-19
  -6.23999977       5.32414750E-19
  -6.07999992      -4.84012907E-18
  -5.92000008      -1.10738407E-17
  -5.76000023       1.23318327E-17
  -5.59999990       7.97865530E-17
  -5.44000006       6.18729775E-17
  -5.28000021      -2.65601924E-16
  -5.11999989      -6.54920528E-16
  -4.96000004       6.75765466E-17
  -4.80000019       2.53058547E-15
  -4.63999987       3.57574408E-15
  -4.48000002      -2.99161915E-15
  -4.32000017      -1.57575979E-14
  -4.15999985      -1.47363811E-14
  -4.00000000       2.30730250E-14
  -3.83999991       7.52967499E-14
  -3.68000007       5.23510305E-14
  -3.51999998      -1.12469170E-13
  -3.35999990      -2.96611721E-13
  -3.20000005      -1.79104805E-13
  -3.03999996       4.06866625E-13
  -2.88000011       1.00036017E-12
  -2.72000003       6.24460607E-13
  -2.55999994      -1.12949721E-12
  -2.40000010      -2.91751606E-12
  -2.24000001      -2.13539104E-12
  -2.07999992       2.30678215E-12
  -1.91999996       7.27475805E-12
  -1.75999999       6.63804081E-12
  -1.60000002      -2.69141957E-12
  -1.44000006      -1.49804388E-11
  -1.27999997      -1.76259285E-11
  -1.12000000      -2.31637170E-12
 -0.959999979       2.35544622E-11
 -0.800000012       3.80398456E-11
 -0.639999986       2.16986481E-11
 -0.479999989      -2.20679395E-11
 -0.319999993      -6.27721555E-11
 -0.159999996      -6.28329611E-11
   1.66533454E-16  -9.08516404E-12
  0.159999996       6.92984489E-11
  0.319999993       1.14367044E-10
  0.479999989       8.01666719E-11
  0.639999986      -2.58397696E-11
  0.800000012      -1.34699238E-10
  0.959999979      -1.58518060E-10
   1.12000000      -6.27432065E-11
   1.27999997       8.91544685E-11
   1.44000006       1.72224610E-10
   1.60000002       1.08612480E-10
   1.75999999      -4.26449778E-11
   1.91999996      -1.19145499E-10
   2.07999992      -1.48056636E-11
   2.24000001       1.76038045E-10
   2.40000010       2.03493736E-10
   2.55999994      -9.09090719E-11
   2.72000003      -5.40987977E-10
   2.88000011      -7.06304126E-10
   3.03999996      -2.43340098E-10
   3.20000005       7.00339953E-10
   3.35999990       1.46440071E-09
   3.51999998       1.33370048E-09
   3.68000007       1.42158896E-10
   3.83999991      -1.48821588E-09
   4.00000000      -2.50828402E-09
   4.15999985      -2.14732676E-09
   4.32000017      -4.38129810E-10
   4.48000002       1.79618120E-09
   4.63999987       3.43063844E-09
   4.80000019       3.63505692E-09
   4.96000004       2.22797980E-09
   5.11999989      -3.23512078E-10
   5.28000021      -3.14758886E-09
   5.44000006      -5.28456878E-09
   5.59999990      -5.97104544E-09
   5.76000023      -4.84848828E-09
   5.92000008      -2.04402473E-09
   6.07999992       1.95805394E-09
   6.23999977       6.66120492E-09
   6.40000010       1.19079528E-08
   6.55999994       1.78373920E-08
   6.71999979       2.41785294E-08
   6.88000011       2.91410380E-08
   7.03999996       2.86917885E-08
   7.19999981       1.68620602E-08
   7.36000013      -1.33022686E-08
   7.51999998      -6.97158029E-08
   7.67999983      -1.63858587E-07
   7.84000015      -3.16414571E-07
   8.00000000      -5.64746188E-07
   8.15999985      -9.70905035E-07
   8.31999969      -1.63085144E-06
   8.47999954      -2.68807003E-06
   8.64000034      -4.35550237E-06
   8.80000019      -6.94792288E-06
   8.96000004      -1.09241755E-05
   9.11999989      -1.69377909E-05
   9.27999973      -2.58956625E-05
   9.43999958      -3.90262649E-05
   9.60000038      -5.79577863E-05
   9.76000023      -8.48025156E-05
   9.92000008      -1.22238038E-04
   10.0799999      -1.73571214E-04
   10.2399998      -2.42767157E-04
   10.3999996      -3.34424258E-04
   10.5600004      -4.53674642E-04
   10.7200003      -6.05988840E-04
   10.8800001      -7.96864566E-04
   11.0400000      -1.03138457E-03
   11.1999998      -1.31364155E-03
   11.3599997      -1.64604373E-03
   11.5200005      -2.02853256E-03
   11.6800003      -2.45777238E-03
   11.8400002      -2.92638782E-03
   12.0000000      -3.42234084E-03
   12.1599998      -3.92854679E-03
   12.3199997      -4.42284672E-03
   12.4799995      -4.87841386E-03
   12.6400003      -5.26468176E-03
   12.8000002      -5.54880220E-03
   12.9600000      -5.69761405E-03
   13.1199999      -5.68001252E-03
   13.2799997      -5.46957972E-03
   13.4399996      -5.04723610E-03
   13.6000004      -4.40367684E-03
   13.7600002      -3.54131195E-03
   13.9200001      -2.47547217E-03
   14.0799999      -1.23467844E-03
   14.2399998       1.40133794E-04
   14.3999996       1.59744651E-03
   14.5600004       3.07795289E-03
   14.7200003       4.51811356E-03
   14.8800001       5.85418241E-03
   15.0400000       7.02634174E-03
   15.1999998       7.98257254E-03
   15.3599997       8.68191943E-03
   15.5200005       9.09685623E-03
   15.6800003       9.21461917E-03
   15.8400002       9.03741270E-03
   16.0000000       8.58160481E-03
   16.1599998       7.87601620E-03
   16.3199997       6.95958547E-03
   16.4799995       5.87864965E-03
   16.6399994       4.68411762E-03
   16.7999992       3.42873228E-03
   16.9599991       2.16457411E-03
   17.1200008       9.40878701E-04
   17.2800007      -1.97815098E-04
   17.4400005      -1.21321692E-03
   17.6000004      -2.07457901E-03
   17.7600002      -2.75975768E-03
   17.9200001      -3.25602409E-03
   18.0799999      -3.56055982E-03
   18.2399998      -3.68053652E-03
   18.3999996      -3.63266398E-03
   18.5599995      -3.44210840E-03
   18.7199993      -3.14073497E-03
   18.8799992      -2.76470836E-03
   19.0400009      -2.35157693E-03
   19.2000008      -1.93709508E-03
   19.3600006      -1.55210076E-03
   19.5200005      -1.21983059E-03
   19.6800003      -9.54018615E-04
   19.8400002      -7.58075505E-04
   20.0000000      -6.25506858E-04
   20.1599998      -5.41578804E-04
   20.3199997      -4.86060453E-04
   20.4799995      -4.36707342E-04
   20.6399994      -3.73030634E-04
   20.7999992      -2.79829605E-04
   20.9599991      -1.49975327E-04
   21.1200008       1.39855956E-05
   21.2800007       1.99688133E-04
   21.4400005       3.86346364E-04
   21.6000004       5.47555857E-04
   21.7600002       6.55164418E-04
   21.9200001       6.83720980E-04
   22.0799999       6.14914985E-04
   22.2399998       4.41400305E-04
   22.3999996       1.69453269E-04
   22.5599995      -1.79943832E-04
   22.7199993      -5.71809185E-04
   22.8799992      -9.59644385E-04
   23.0400009      -1.28946430E-03
   23.2000008      -1.50496105E-03
   23.3600006      -1.55325187E-03
   23.5200005      -1.39058277E-03
   23.6800003      -9.87357693E-04
   23.8400002      -3.31941352E-04
   24.0000000       5.67166193E-04
   24.1599998       1.68099988E-03
   24.3199997       2.96167331E-03
   24.4799995       4.34563030E-03
   24.6399994       5.75827900E-03
   24.7999992       7.11952848E-03
   24.9599991       8.34969431E-03
   25.1200008       9.37520992E-03
   25.2800007       1.01336502E-02
   25.4400005       1.05776964E-02
   25.6000004       1.06777269E-02
   25.7600002       1.04229162E-02
   25.9200001       9.82084684E-03
   26.0799999       8.89579859E-03
   26.2399998       7.68598216E-03
   26.3999996       6.24007965E-03
   26.5599995       4.61346097E-03
   26.7199993       2.86445511E-03
   26.8799992       1.05101010E-03
   27.0400009      -7.72009371E-04
   27.2000008      -2.55471352E-03
   27.3600006      -4.25324030E-03
   27.5200005      -5.83003554E-03
   27.6800003      -7.25350855E-03
   27.8400002      -8.49730056E-03
   28.0000000      -9.53941606E-03
   28.1599998      -1.03614843E-02
   28.3199997      -1.09483805E-02
   28.4799995      -1.12883169E-02
   28.6399994      -1.13734687E-02
   28.7999992      -1.12010287E-02
   28.9599991      -1.07745910E-02
   29.1200008      -1.01055838E-02
   29.2800007      -9.21449251E-03
   29.4400005      -8.13156925E-03
   29.6000004      -6.89677196E-03
   29.7600002      -5.55879995E-03
   29.9200001      -4.17315867E-03
   30.0799999      -2.79933400E-03
   30.2399998      -1.49724435E-03
   30.3999996      -3.23266810E-04
   30.5599995       6.73789997E-04
   30.7199993       1.45635533E-03
   30.8799992       2.00102059E-03
   31.0400009       2.30039493E-03
   31.2000008       2.36367784E-03
   31.3600006       2.21584877E-03
   31.5200005       1.89552002E-03
   31.6800003       1.45163387E-03
   31.8400002       9.39307036E-04
