  -8.00000000       0.00000000
  -7.84000015       0.00000000
  -7.67999983       0.00000000
  -7.51999998       0.00000000
  -7.36000013       0.00000000
  -7.19999981       0.00000000
  -7.03999996      -4.90454463E-44
  -6.88000011       1.34972642E-21
  -6.71999979       1.34706734E-20
  -6.55999994       6.94567663E-20
  -6.40000010       2.32712996E-19
  -6.23999977       4.74369883E-19
  -6.07999992       2.44102214E-19
  -5.92000008      -1.66481224E-18
  -5.76000023      -4.74752620E-18
  -5.59999990      -1.92673236E-18
  -5.44000006       1.70589805E-17
  -5.28000021       3.99503255E-17
  -5.11999989       8.52657941E-18
  -4.96000004      -1.21055249E-16
  -4.80000019      -2.18356160E-16
  -4.63999987       4.10133320E-17
  -4.48000002       7.22520639E-16
  -4.32000017       9.95952351E-16
  -4.15999985      -4.48625442E-16
  -4.00000000      -3.23420621E-15
  -3.83999991      -3.62360144E-15
  -3.68000007       2.42002395E-15
  -3.51999998       1.16952922E-14
  -3.35999990       1.13377766E-14
  -3.20000005      -8.24308917E-15
  -3.03999996      -3.32619301E-14
  -2.88000011      -2.86087716E-14
  -2.72000003       2.18287184E-14
  -2.55999994       7.41381715E-14
  -2.40000010       5.18675780E-14
  -2.24000001      -5.28926607E-14
  -2.07999992      -1.21595740E-13
  -1.91999996      -2.33368250E-14
  -1.75999999       1.68882364E-13
  -1.60000002       1.53584773E-13
  -1.44000006      -2.46122133E-13
  -1.27999997      -6.58336937E-13
  -1.12000000      -3.14295980E-13
 -0.959999979       1.02850302E-12
 -0.800000012       2.25322495E-12
 -0.639999986       1.44704116E-12
 -0.479999989      -2.00853461E-12
 -0.319999993      -5.72611359E-12
 -0.159999996      -5.44309086E-12
   1.66533454E-16   9.22793959E-13
  0.159999996       9.79418890E-12
  0.319999993       1.33481316E-11
  0.479999989       6.13395619E-12
  0.639999986      -8.58967324E-12
  0.800000012      -1.97398591E-11
  0.959999979      -1.75693262E-11
   1.12000000      -3.36700329E-12
   1.27999997       1.07227369E-11
   1.44000006       1.39176396E-11
   1.60000002       9.84300922E-12
   1.75999999       1.42916122E-11
   1.91999996       3.41486596E-11
   2.07999992       4.66050080E-11
   2.24000001       8.07920137E-12
   2.40000010      -9.87147655E-11
   2.55999994      -2.14871662E-10
   2.72000003      -2.14125745E-10
   2.88000011       6.37893872E-13
   3.03999996       3.69629466E-10
   3.20000005       6.40818232E-10
   3.35999990       5.14161769E-10
   3.51999998      -9.61679625E-11
   3.68000007      -8.91347551E-10
   3.83999991      -1.30868760E-09
   4.00000000      -9.17390386E-10
   4.15999985       1.93929789E-10
   4.32000017       1.38546907E-09
   4.48000002       1.88449589E-09
   4.63999987       1.35616640E-09
   4.80000019       1.53735885E-10
   4.96000004      -9.81213777E-10
   5.11999989      -1.51523549E-09
   5.28000021      -1.48210311E-09
   5.44000006      -1.28327782E-09
   5.59999990      -1.14570886E-09
   5.76000023      -8.04788847E-10
   5.92000008       2.22940222E-10
   6.07999992       2.01317807E-09
   6.23999977       3.91049193E-09
   6.40000010       4.95217956E-09
   6.55999994       4.76822892E-09
   6.71999979       4.11357171E-09
   6.88000011       4.33804503E-09
   7.03999996       5.93000005E-09
   7.19999981       7.10818648E-09
   7.36000013       3.53275342E-09
   7.51999998      -1.06255458E-08
   7.67999983      -4.12115995E-08
   7.84000015      -9.38264364E-08
   8.00000000      -1.76000782E-07
   8.15999985      -3.01812776E-07
   8.31999969      -4.97814028E-07
   8.47999954      -8.08938239E-07
   8.64000034      -1.30406318E-06
   8.80000019      -2.08243432E-06
   8.96000004      -3.28310080E-06
   9.11999989      -5.09915753E-06
   9.27999973      -7.79715720E-06
   9.43999958      -1.17405125E-05
   9.60000038      -1.74149191E-05
   9.76000023      -2.54537281E-05
   9.92000008      -3.66611639E-05
   10.0799999      -5.20303729E-05
   10.2399998      -7.27519073E-05
   10.3999996      -1.00206918E-04
   10.5600004      -1.35938448E-04
   10.7200003      -1.81593787E-04
   10.8800001      -2.38831562E-04
   11.0400000      -3.09188006E-04
   11.1999998      -3.93901777E-04
   11.3599997      -4.93701780E-04
   11.5200005      -6.08570408E-04
   11.6800003      -7.37499795E-04
   11.8400002      -8.78262974E-04
   12.0000000      -1.02722808E-03
   12.1599998      -1.17924483E-03
   12.3199997      -1.32763619E-03
   12.4799995      -1.46432687E-03
   12.6400003      -1.58012647E-03
   12.8000002      -1.66517496E-03
   12.9600000      -1.70953607E-03
   13.1199999      -1.70390808E-03
   13.2799997      -1.64041040E-03
   13.4399996      -1.51337555E-03
   13.6000004      -1.32007233E-03
   13.7600002      -1.06127816E-03
   13.9200001      -7.41625088E-04
   14.0799999      -3.69668793E-04
   14.2399998       4.23487218E-05
   14.3999996       4.79045266E-04
   14.5600004       9.22726176E-04
   14.7200003       1.35443697E-03
   14.8800001       1.75515388E-03
   15.0400000       2.10700557E-03
   15.1999998       2.39441660E-03
   15.3599997       2.60506803E-03
   15.5200005       2.73060170E-03
   15.6800003       2.76701455E-03
   15.8400002       2.71474244E-03
   16.0000000       2.57844361E-03
   16.1599998       2.36653839E-03
   16.3199997       2.09056470E-03
   16.4799995       1.76441250E-03
   16.6399994       1.40350580E-03
   16.7999992       1.02398486E-03
   16.9599991       6.41933817E-04
   17.1200008       2.72672187E-04
   17.2800007      -6.98830190E-05
   17.4400005      -3.73789255E-04
   17.6000004      -6.29581278E-04
   17.7600002      -8.30687117E-04
   17.9200001      -9.73728253E-04
   18.0799999      -1.05866441E-03
   18.2399998      -1.08874426E-03
   18.3999996      -1.07022584E-03
   18.5599995      -1.01184787E-03
   18.7199993      -9.24060587E-04
   18.8799992      -8.18064902E-04
   19.0400009      -7.04750535E-04
   19.2000008      -5.93654288E-04
   19.3600006      -4.92072082E-04
   19.5200005      -4.04453342E-04
   19.6800003      -3.32177558E-04
   19.8400002      -2.73765327E-04
   20.0000000      -2.25512966E-04
   20.1599998      -1.82466247E-04
   20.3199997      -1.39587151E-04
   20.4799995      -9.29290545E-05
   20.6399994      -4.06241670E-05
   20.7999992       1.64937901E-05
   20.9599991       7.47632730E-05
   21.1200008       1.28121828E-04
   21.2800007       1.69050865E-04
   21.4400005       1.89908911E-04
   21.6000004       1.84450371E-04
   21.7600002       1.49286032E-04
   21.9200001       8.50394208E-05
   22.0799999      -3.01332534E-06
   22.2399998      -1.04963314E-04
   22.3999996      -2.06993369E-04
   22.5599995      -2.92740238E-04
   22.7199993      -3.45124892E-04
   22.8799992      -3.48409347E-04
   23.0400009      -2.90207507E-04
   23.2000008      -1.63179357E-04
   23.3600006       3.38209538E-05
   23.5200005       2.95302394E-04
   23.6800003       6.09457667E-04
   23.8400002       9.59191646E-04
   24.0000000       1.32370740E-03
   24.1599998       1.68043724E-03
   24.3199997       2.00708257E-03
   24.4799995       2.28352658E-03
   24.6399994       2.49341503E-03
   24.7999992       2.62525491E-03
   24.9599991       2.67295307E-03
   25.1200008       2.63579935E-03
   25.2800007       2.51796120E-03
   25.4400005       2.32759980E-03
   25.6000004       2.07573315E-03
   25.7600002       1.77498022E-03
   25.9200001       1.43832469E-03
   26.0799999       1.07801706E-03
   26.2399998       7.04705191E-04
   26.3999996       3.26853769E-04
   26.5599995      -4.95239619E-05
   26.7199993      -4.20817145E-04
   26.8799992      -7.85459881E-04
   27.0400009      -1.14330323E-03
   27.2000008      -1.49477366E-03
   27.3600006      -1.83990994E-03
   27.5200005      -2.17738422E-03
   27.6800003      -2.50363420E-03
   27.8400002      -2.81222328E-03
   28.0000000      -3.09354370E-03
   28.1599998      -3.33495229E-03
   28.3199997      -3.52139445E-03
   28.4799995      -3.63650755E-03
   28.6399994      -3.66414641E-03
   28.7999992      -3.59019078E-03
   28.9599991      -3.40446271E-03
   29.1200008      -3.10252537E-03
   29.2800007      -2.68714502E-03
   29.4400005      -2.16919812E-03
   29.6000004      -1.56785909E-03
   29.7600002      -9.09979222E-04
   29.9200001      -2.28653298E-04
   30.0799999       4.38950810E-04
   30.2399998       1.05433445E-03
   30.3999996       1.58074975E-03
   30.5599995       1.98634318E-03
   30.7199993       2.24704994E-03
   30.8799992       2.34893989E-03
   31.0400009       2.28977110E-03
   31.2000008       2.07956927E-03
   31.3600006       1.74014713E-03
   31.5200005       1.30356359E-03
   31.6800003       8.09624908E-04
   31.8400002       3.02625966E-04
