  -8.00000000       0.00000000
  -7.84000015       0.00000000
  -7.67999983       0.00000000
  -7.51999998       0.00000000
  -7.36000013       0.00000000
  -7.19999981       0.00000000
  -7.03999996       0.00000000
  -6.88000011       0.00000000
  -6.71999979       0.00000000
  -6.55999994       2.08875108E-25
  -6.40000010       6.85436034E-24
  -6.23999977       2.70047851E-23
  -6.07999992      -3.37248411E-24
  -5.92000008      -1.78187826E-22
  -5.76000023      -9.31417979E-23
  -5.59999990       8.72939897E-22
  -5.44000006      -1.07865117E-23
  -5.28000021      -8.55201113E-21
  -5.11999989      -1.22517719E-20
  -4.96000004       3.58693431E-20
  -4.80000019       1.24466655E-19
  -4.63999987       1.32363891E-20
  -4.48000002      -5.45254816E-19
  -4.32000017      -8.58652612E-19
  -4.15999985       9.22371627E-19
  -4.00000000       4.55436629E-18
  -3.83999991       3.09318813E-18
  -3.68000007      -1.15759154E-17
  -3.51999998      -2.68782976E-17
  -3.35999990      -9.63088649E-20
  -3.20000005       8.62197418E-17
  -3.03999996       1.25633356E-16
  -2.88000011      -7.82929361E-17
  -2.72000003      -4.89586949E-16
  -2.55999994      -5.08288854E-16
  -2.40000010       6.08914727E-16
  -2.24000001       2.32096154E-15
  -2.07999992       1.93704217E-15
  -1.91999996      -3.03494764E-15
  -1.75999999      -9.58513749E-15
  -1.60000002      -7.40894383E-15
  -1.44000006       1.14299032E-14
  -1.27999997       3.50744214E-14
  -1.12000000       2.86620872E-14
 -0.959999979      -3.30941295E-14
 -0.800000012      -1.13642819E-13
 -0.639999986      -1.07401257E-13
 -0.479999989       6.68503474E-14
 -0.319999993       3.20830304E-13
 -0.159999996       3.69107902E-13
   1.66533454E-16  -4.18550286E-14
  0.159999996      -7.61206961E-13
  0.319999993      -1.11247545E-12
  0.479999989      -3.64575964E-13
  0.639999986       1.39863425E-12
  0.800000012       2.82486187E-12
  0.959999979       2.05305759E-12
   1.12000000      -1.49215568E-12
   1.27999997      -5.71995793E-12
   1.44000006      -6.62057952E-12
   1.60000002      -1.39180876E-12
   1.75999999       8.14318231E-12
   1.91999996       1.50790769E-11
   2.07999992       1.16230307E-11
   2.24000001      -4.08352952E-12
   2.40000010      -2.37020559E-11
   2.55999994      -3.18107658E-11
   2.72000003      -1.64984415E-11
   2.88000011       1.89448353E-11
   3.03999996       5.29725430E-11
   3.20000005       5.72519879E-11
   3.35999990       1.80669455E-11
   3.51999998      -4.73686194E-11
   3.68000007      -9.55837770E-11
   3.83999991      -8.51863927E-11
   4.00000000      -1.12726668E-11
   4.15999985       8.24040836E-11
   4.32000017       1.29696434E-10
   4.48000002       9.24457524E-11
   4.63999987      -4.49764358E-12
   4.80000019      -8.76788642E-11
   4.96000004      -9.45825848E-11
   5.11999989      -3.14246650E-11
   5.28000021       2.54015541E-11
   5.44000006      -3.00469762E-12
   5.59999990      -1.11320834E-10
   5.76000023      -1.84617752E-10
   5.92000008      -7.79070489E-11
   6.07999992       2.41783454E-10
   6.23999977       6.03777750E-10
   6.40000010       6.95511149E-10
   6.55999994       2.78156137E-10
   6.71999979      -5.75978931E-10
   6.88000011      -1.41637835E-09
   7.03999996      -1.62782088E-09
   7.19999981      -8.40006675E-10
   7.36000013       7.29672545E-10
   7.51999998       2.27733721E-09
   7.67999983       2.83495960E-09
   7.84000015       1.88966798E-09
   8.00000000      -2.10127457E-10
   8.15999985      -2.37908204E-09
   8.31999969      -3.42546480E-09
   8.47999954      -2.79966406E-09
   8.64000034      -9.53829571E-10
   8.80000019       9.59291424E-10
   8.96000004       1.87561833E-09
   9.11999989       1.57340618E-09
   9.27999973       8.62479033E-10
   9.43999958       1.04312703E-09
   9.60000038       2.96842417E-09
   9.76000023       6.34212016E-09
   9.92000008       9.76003545E-09
   10.0799999       1.15089991E-08
   10.2399998       1.05862981E-08
   10.3999996       7.17313497E-09
   10.5600004       2.07208806E-09
   10.7200003      -4.75908735E-09
   10.8800001      -1.59021418E-08
   11.0400000      -3.76723506E-08
   11.1999998      -8.06160827E-08
   11.3599997      -1.59931417E-07
   11.5200005      -2.97010132E-07
   11.6800003      -5.23266181E-07
   11.8400002      -8.86806504E-07
   12.0000000      -1.46175364E-06
   12.1599998      -2.35966650E-06
   12.3199997      -3.74276215E-06
   12.4799995      -5.83923111E-06
   12.6400003      -8.96130678E-06
   12.8000002      -1.35263726E-05
   12.9600000      -2.00802697E-05
   13.1199999      -2.93205121E-05
   13.2799997      -4.21157492E-05
   13.4399996      -5.95168349E-05
   13.6000004      -8.27541517E-05
   13.7600002      -1.13215327E-04
   13.9200001      -1.52397130E-04
   14.0799999      -2.01826246E-04
   14.2399998      -2.62944872E-04
   14.3999996      -3.36959900E-04
   14.5600004      -4.24659083E-04
   14.7200003      -5.26201853E-04
   14.8800001      -6.40898128E-04
   15.0400000      -7.66994897E-04
   15.1999998      -9.01494699E-04
   15.3599997      -1.04003341E-03
   15.5200005      -1.17684680E-03
   15.6800003      -1.30484882E-03
   15.8400002      -1.41584326E-03
   16.0000000      -1.50087487E-03
   16.1599998      -1.55071646E-03
   16.3199997      -1.55647181E-03
   16.4799995      -1.51026051E-03
   16.6399994      -1.40593795E-03
   16.7999992      -1.23978895E-03
   16.9599991      -1.01113273E-03
   17.1200008      -7.22772558E-04
   17.2800007      -3.81227903E-04
   17.4400005       3.29603722E-06
   17.6000004       4.17228090E-04
   17.7600002       8.44239490E-04
   17.9200001       1.26611372E-03
   18.0799999       1.66382315E-03
   18.2399998       2.01873574E-03
   18.3999996       2.31385836E-03
   18.5599995       2.53501744E-03
   18.7199993       2.67186668E-03
   18.8799992       2.71864212E-03
   19.0400009       2.67458172E-03
   19.2000008       2.54397606E-03
   19.3600006       2.33583897E-03
   19.5200005       2.06322572E-03
   19.6800003       1.74226810E-03
   19.8400002       1.39101106E-03
   20.0000000       1.02815987E-03
   20.1599998       6.71841437E-04
   20.3199997       3.38483922E-04
   20.4799995       4.18962409E-05
   20.6399994      -2.07390694E-04
   20.7999992      -4.02491773E-04
   20.9599991      -5.40246197E-04
   21.1200008      -6.21037965E-04
   21.2800007      -6.48410758E-04
   21.4400005      -6.28542213E-04
   21.6000004      -5.69643104E-04
   21.7600002      -4.81340743E-04
   21.9200001      -3.74093768E-04
   22.0799999      -2.58667656E-04
   22.2399998      -1.45683254E-04
   22.3999996      -4.52369204E-05
   22.5599995       3.34232973E-05
   22.7199993       8.21836802E-05
   22.8799992       9.43324630E-05
   23.0400009       6.48220885E-05
   23.2000008      -9.47134049E-06
   23.3600006      -1.29501175E-04
   23.5200005      -2.93837744E-04
   23.6800003      -4.98521491E-04
   23.8400002      -7.37017195E-04
   24.0000000      -1.00030529E-03
   24.1599998      -1.27713836E-03
   24.3199997      -1.55447819E-03
   24.4799995      -1.81810977E-03
   24.6399994      -2.05340679E-03
   24.7999992      -2.24620639E-03
   24.9599991      -2.38373224E-03
   25.1200008      -2.45549460E-03
   25.2800007      -2.45408714E-03
   25.4400005      -2.37580831E-03
   25.6000004      -2.22103158E-03
   25.7600002      -1.99428480E-03
   25.9200001      -1.70400576E-03
   26.0799999      -1.36198441E-03
   26.2399998      -9.82521684E-04
   26.3999996      -5.81362285E-04
   26.5599995      -1.74488436E-04
   26.7199993       2.23128081E-04
   26.8799992       5.98704210E-04
   27.0400009       9.42648796E-04
   27.2000008       1.24929228E-03
   27.3600006       1.51726010E-03
   27.5200005       1.74943020E-03
   27.6800003       1.95244513E-03
   27.8400002       2.13578460E-03
   28.0000000       2.31044879E-03
   28.1599998       2.48734839E-03
   28.3199997       2.67553469E-03
   28.4799995       2.88043707E-03
   28.6399994       3.10230162E-03
   28.7999992       3.33502446E-03
   28.9599991       3.56555707E-03
   29.1200008       3.77403270E-03
   29.2800007       3.93468933E-03
   29.4400005       4.01760079E-03
   29.6000004       3.99113121E-03
   29.7600002       3.82495672E-03
   29.9200001       3.49339354E-03
   30.0799999       2.97874119E-03
   30.2399998       2.27429299E-03
   30.3999996       1.38668437E-03
   30.5599995       3.37279023E-04
   30.7199993      -8.37630709E-04
   30.8799992      -2.08793650E-03
   31.0400009      -3.35214776E-03
   31.2000008      -4.56102937E-03
   31.3600006      -5.64220781E-03
   31.5200005      -6.52540522E-03
   31.6800003      -7.14789983E-03
   31.8400002      -7.45973922E-03
