  -8.00000000       0.00000000
  -7.84000015       0.00000000
  -7.67999983       0.00000000
  -7.51999998       0.00000000
  -7.36000013       0.00000000
  -7.19999981      -2.90371737E-20
  -7.03999996       8.97667222E-15
  -6.88000011       6.32511282E-14
  -6.71999979       1.72854732E-13
  -6.55999994       8.56785278E-14
  -6.40000010      -8.63133078E-13
  -6.23999977      -2.96071934E-12
  -6.07999992      -4.18377225E-12
  -5.92000008       3.00283398E-13
  -5.76000023       1.30154446E-11
  -5.59999990       2.47882947E-11
  -5.44000006       1.35312855E-11
  -5.28000021      -3.52731802E-11
  -5.11999989      -9.58485583E-11
  -4.96000004      -9.75128520E-11
  -4.80000019       1.80082199E-11
  -4.63999987       2.08243492E-10
  -4.48000002       3.08283121E-10
  -4.32000017       1.46566037E-10
  -4.15999985      -2.66500988E-10
  -4.00000000      -6.59146071E-10
  -3.83999991      -6.56006416E-10
  -3.68000007      -8.83017964E-11
  -3.51999998       7.95097932E-10
  -3.35999990       1.40950163E-09
  -3.20000005       1.17986176E-09
  -3.03999996      -5.01902755E-11
  -2.88000011      -1.76426518E-09
  -2.72000003      -2.85468960E-09
  -2.55999994      -2.17094076E-09
  -2.40000010       5.62408897E-10
  -2.24000001       4.03773814E-09
  -2.07999992       5.73773029E-09
  -1.91999996       3.67601238E-09
  -1.75999999      -1.59934932E-09
  -1.60000002      -6.71924161E-09
  -1.44000006      -7.84425591E-09
  -1.27999997      -3.99997369E-09
  -1.12000000       1.80087878E-09
 -0.959999979       5.18014875E-09
 -0.800000012       4.49511006E-09
 -0.639999986       2.19061480E-09
 -0.479999989       1.72598225E-09
 -0.319999993       3.27920358E-09
 -0.159999996       3.24682414E-09
   1.66533454E-16  -1.33427780E-09
  0.159999996      -8.13865153E-09
  0.319999993      -1.04549764E-08
  0.479999989      -3.76795928E-09
  0.639999986       8.53492121E-09
  0.800000012       1.69698762E-08
  0.959999979       1.45113139E-08
   1.12000000       3.76845710E-09
   1.27999997      -4.58225990E-09
   1.44000006      -9.54749058E-10
   1.60000002       1.50881831E-08
   1.75999999       3.52978446E-08
   1.91999996       5.05391355E-08
   2.07999992       5.77578483E-08
   2.24000001       5.93653482E-08
   2.40000010       5.58691262E-08
   2.55999994       3.81455330E-08
   2.72000003      -1.59479345E-08
   2.88000011      -1.42276050E-07
   3.03999996      -3.94340191E-07
   3.20000005      -8.54856694E-07
   3.35999990      -1.65485221E-06
   3.51999998      -2.99770045E-06
   3.68000007      -5.18791603E-06
   3.83999991      -8.66962364E-06
   4.00000000      -1.40830043E-05
   4.15999985      -2.23458264E-05
   4.32000017      -3.47626446E-05
   4.48000002      -5.31612022E-05
   4.63999987      -8.00558992E-05
   4.80000019      -1.18842028E-04
   4.96000004      -1.74023837E-04
   5.11999989      -2.51468271E-04
   5.28000021      -3.58656776E-04
   5.44000006      -5.04885626E-04
   5.59999990      -7.01356737E-04
   5.76000023      -9.61101498E-04
   5.92000008      -1.29868777E-03
   6.07999992      -1.72966230E-03
   6.23999977      -2.26967526E-03
   6.40000010      -2.93324445E-03
   6.55999994      -3.73214320E-03
   6.71999979      -4.67344979E-03
   6.88000011      -5.75736025E-03
   7.03999996      -6.97492156E-03
   7.19999981      -8.30589235E-03
   7.36000013      -9.71698388E-03
   7.51999998      -1.11607565E-02
   7.67999983      -1.25754438E-02
   7.84000015      -1.38859684E-02
   8.00000000      -1.50062973E-02
   8.15999985      -1.58432499E-02
   8.31999969      -1.63016859E-02
   8.47999954      -1.62908491E-02
   8.64000034      -1.57315526E-02
   8.80000019      -1.45636220E-02
   8.96000004      -1.27530480E-02
   9.11999989      -1.02981161E-02
   9.27999973      -7.23386137E-03
   9.43999958      -3.63420811E-03
   9.60000038       3.88644170E-04
   9.76000023       4.68785921E-03
   9.92000008       9.08862241E-03
   10.0799999       1.33975158E-02
   10.2399998       1.74140465E-02
   10.3999996       2.09435038E-02
   10.5600004       2.38101613E-02
   10.7200003       2.58696862E-02
   10.8800001       2.70197336E-02
   11.0400000       2.72076819E-02
   11.1999998       2.64348183E-02
   11.3599997       2.47565415E-02
   11.5200005       2.22785007E-02
   11.6800003       1.91489328E-02
   11.8400002       1.55478548E-02
   12.0000000       1.16739608E-02
   12.1599998       7.73044256E-03
   12.3199997       3.91090848E-03
   12.4799995       3.86621832E-04
   12.6400003      -2.70388881E-03
   12.8000002      -5.26205031E-03
   12.9600000      -7.23280432E-03
   13.1199999      -8.60439055E-03
   13.2799997      -9.40459967E-03
   13.4399996      -9.69409477E-03
   13.6000004      -9.55761224E-03
   13.7600002      -9.09403805E-03
   13.9200001      -8.40638485E-03
   14.0799999      -7.59265106E-03
   14.2399998      -6.73836423E-03
   14.3999996      -5.91134885E-03
   14.5600004      -5.15897013E-03
   14.7200003      -4.50779544E-03
   14.8800001      -3.96535080E-03
   15.0400000      -3.52349854E-03
   15.1999998      -3.16277356E-03
   15.3599997      -2.85702362E-03
   15.5200005      -2.57773092E-03
   15.6800003      -2.29754462E-03
   15.8400002      -1.99275347E-03
   16.0000000      -1.64461206E-03
   16.1599998      -1.23960664E-03
   16.3199997      -7.68891536E-04
   16.4799995      -2.27242737E-04
   16.6399994       3.88076820E-04
   16.7999992       1.07817526E-03
   16.9599991       1.84287166E-03
   17.1200008       2.68041762E-03
   17.2800007       3.58664547E-03
   17.4400005       4.55369661E-03
   17.6000004       5.56858396E-03
   17.7600002       6.61190925E-03
   17.9200001       7.65706971E-03
   18.0799999       8.67026672E-03
   18.2399998       9.61147901E-03
   18.3999996       1.04364241E-02
   18.5599995       1.10994261E-02
   18.7199993       1.15569243E-02
   18.8799992       1.17712850E-02
   19.0400009       1.17145227E-02
   19.2000008       1.13714244E-02
   19.3600006       1.07417181E-02
   19.5200005       9.84096620E-03
   19.6800003       8.70006438E-03
   19.8400002       7.36330822E-03
   20.0000000       5.88519732E-03
   20.1599998       4.32626298E-03
   20.3199997       2.74836528E-03
   20.4799995       1.20996719E-03
   20.6399994      -2.38108230E-04
   20.7999992      -1.55600382E-03
   20.9599991      -2.71690404E-03
   21.1200008      -3.70766409E-03
   21.2800007      -4.52796556E-03
   21.4400005      -5.18817641E-03
   21.6000004      -5.70624741E-03
   21.7600002      -6.10409677E-03
   21.9200001      -6.40398078E-03
   22.0799999      -6.62529096E-03
   22.2399998      -6.78217970E-03
   22.3999996      -6.88228337E-03
   22.5599995      -6.92663435E-03
   22.7199993      -6.91067660E-03
   22.8799992      -6.82612369E-03
   23.0400009      -6.66331733E-03
   23.2000008      -6.41370518E-03
   23.3600006      -6.07207976E-03
   23.5200005      -5.63828228E-03
   23.6800003      -5.11818100E-03
   23.8400002      -4.52386821E-03
   24.0000000      -3.87312705E-03
   24.1599998      -3.18832463E-03
   24.3199997      -2.49489909E-03
   24.4799995      -1.81963271E-03
   24.6399994      -1.18886936E-03
   24.7999992      -6.26822119E-04
   24.9599991      -1.54046589E-04
   25.1200008       2.13890613E-04
   25.2800007       4.67520993E-04
   25.4400005       6.04306522E-04
   25.6000004       6.29098970E-04
   25.7600002       5.54114871E-04
   25.9200001       3.98338278E-04
   26.0799999       1.86300240E-04
   26.2399998      -5.37682572E-05
   26.3999996      -2.92347162E-04
   26.5599995      -5.01442759E-04
   26.7199993      -6.57539698E-04
   26.8799992      -7.44345423E-04
   27.0400009      -7.54967914E-04
   27.2000008      -6.93223090E-04
   27.3600006      -5.73854893E-04
   27.5200005      -4.21570934E-04
   27.6800003      -2.68926407E-04
   27.8400002      -1.53239103E-04
   28.0000000      -1.12845410E-04
   28.1599998      -1.83088108E-04
   28.3199997      -3.92437389E-04
   28.4799995      -7.59103219E-04
   28.6399994      -1.28842297E-03
   28.7999992      -1.97122665E-03
   28.9599991      -2.78329500E-03
   29.1200008      -3.68595007E-03
   29.2800007      -4.62774420E-03
   29.4400005      -5.54717099E-03
   29.6000004      -6.37627207E-03
   29.7600002      -7.04497378E-03
   29.9200001      -7.48595968E-03
   30.0799999      -7.63981603E-03
   30.2399998      -7.46012386E-03
   30.3999996      -6.91810157E-03
   30.5599995      -6.00638101E-03
   30.7199993      -4.74144099E-03
   30.8799992      -3.16432095E-03
   31.0400009      -1.33937097E-03
   31.2000008       6.49048539E-04
   31.3600006       2.70176097E-03
   31.5200005       4.71152458E-03
   31.6800003       6.57078205E-03
   31.8400002       8.17970745E-03
