  -4.80000019       0.00000000
  -4.76000023       0.00000000
  -4.71999979       0.00000000
  -4.67999983       0.00000000
  -4.63999987       0.00000000
  -4.59999990       0.00000000
  -4.55999994       0.00000000
  -4.51999998       0.00000000
  -4.48000002       0.00000000
  -4.44000006       0.00000000
  -4.40000010       0.00000000
  -4.36000013       0.00000000
  -4.32000017       0.00000000
  -4.28000021       6.53005084E-43
  -4.23999977       1.66810569E-41
  -4.19999981       2.19757230E-40
  -4.15999985       1.99575450E-39
  -4.11999989       1.40455816E-38
  -4.07999992       8.15966735E-38
  -4.03999996       4.06965683E-37
  -4.00000000       1.78940783E-36
  -3.96000004       7.06854944E-36
  -3.92000008       2.54385271E-35
  -3.88000011       8.42980691E-35
  -3.83999991       2.59362566E-34
  -3.79999995       7.45786330E-34
  -3.75999999       2.01480375E-33
  -3.72000003       5.13599673E-33
  -3.68000007       1.23968413E-32
  -3.64000010       2.84140112E-32
  -3.59999990       6.19858448E-32
  -3.55999994       1.28938612E-31
  -3.51999998       2.56093340E-31
  -3.48000002       4.86111724E-31
  -3.44000006       8.82237098E-31
  -3.40000010       1.53072357E-30
  -3.35999990       2.53705686E-30
  -3.31999993       4.01016042E-30
  -3.27999997       6.02731738E-30
  -3.24000001       8.57266250E-30
  -3.20000005       1.14455210E-29
  -3.16000009       1.41435240E-29
  -3.11999989       1.57409324E-29
  -3.07999992       1.48051998E-29
  -3.03999996       9.42182157E-30
  -3.00000000      -2.57818261E-30
  -2.96000004      -2.30848568E-29
  -2.92000008      -5.27913347E-29
  -2.88000011      -8.98916126E-29
  -2.83999991      -1.28544461E-28
  -2.79999995      -1.57477742E-28
  -2.75999999      -1.59378936E-28
  -2.72000003      -1.11968860E-28
  -2.68000007       8.23207534E-30
  -2.64000010       2.18626969E-28
  -2.59999990       5.19605210E-28
  -2.55999994       8.81073949E-28
  -2.51999998       1.22946177E-27
  -2.48000002       1.44040426E-27
  -2.44000006       1.34425962E-27
  -2.40000010       7.52285859E-28
  -2.35999990      -4.90486064E-28
  -2.31999993      -2.42513176E-27
  -2.27999997      -4.88073673E-27
  -2.24000001      -7.38119122E-27
  -2.20000005      -9.09467338E-27
  -2.16000009      -8.87513662E-27
  -2.11999989      -5.44644707E-27
  -2.07999992       2.23679006E-27
  -2.03999996       1.44584245E-26
  -2.00000000       3.01130702E-26
  -1.96000004       4.61395006E-26
  -1.91999996       5.72578048E-26
  -1.88000000       5.63065495E-26
  -1.84000003       3.54594857E-26
  -1.79999995      -1.15254312E-26
  -1.75999999      -8.61325483E-26
  -1.72000003      -1.81485771E-25
  -1.67999995      -2.79269259E-25
  -1.63999999      -3.48536645E-25
  -1.60000002      -3.47975075E-25
  -1.55999994      -2.32987505E-25
  -1.51999998       3.18165044E-26
  -1.48000002       4.55546465E-25
  -1.44000006       1.00215736E-24
  -1.39999998       1.57473469E-24
  -1.36000001       2.00971131E-24
  -1.32000005       2.08848420E-24
  -1.27999997       1.57266097E-24
  -1.24000001       2.65351583E-25
  -1.20000005      -1.90562466E-24
  -1.15999997      -4.79550438E-24
  -1.12000000      -7.96367706E-24
  -1.08000004      -1.06382973E-23
  -1.03999996      -1.17577115E-23
  -1.00000000      -1.01172586E-23
 -0.959999979      -4.63496605E-24
 -0.920000017       5.27652336E-24
 -0.879999995       1.92798710E-23
 -0.839999974       3.57127082E-23
 -0.800000012       5.13405697E-23
 -0.759999990       6.14072868E-23
 -0.720000029       6.01203265E-23
 -0.680000007       4.16636288E-23
 -0.639999986       1.74059536E-24
 -0.600000024      -6.04843574E-23
 -0.560000002      -1.40344161E-22
 -0.519999981      -2.26001102E-22
 -0.479999989      -2.97771843E-22
 -0.439999998      -3.29130996E-22
 -0.400000006      -2.90009149E-22
 -0.360000014      -1.52743818E-22
 -0.319999993       9.94414833E-23
 -0.280000001       4.62261181E-22
 -0.239999995       9.00204141E-22
 -0.200000003       1.33900841E-21
 -0.159999996       1.66414391E-21
 -0.119999997       1.72895369E-21
  -7.99999982E-02   1.37557834E-21
  -3.99999991E-02   4.70156657E-22
   2.77555756E-16  -1.04916158E-21
   3.99999991E-02  -3.11705202E-21
   7.99999982E-02  -5.48939390E-21
  0.119999997      -7.71081046E-21
  0.159999996      -9.12042073E-21
  0.200000003      -8.91499317E-21
  0.239999995      -6.28365975E-21
  0.280000001      -6.16748621E-22
  0.319999993       8.22731770E-21
  0.360000014       1.96373146E-20
  0.400000006       3.20130723E-20
  0.439999998       4.26661763E-20
  0.479999989       4.79550496E-20
  0.519999981       4.37398762E-20
  0.560000002       2.62011091E-20
  0.600000024      -7.00904222E-21
  0.639999986      -5.54164546E-20
  0.680000007      -1.14430201E-19
  0.720000029      -1.74467707E-19
  0.759999990      -2.20933376E-19
  0.800000012      -2.35471359E-19
  0.839999974      -1.98784452E-19
  0.879999995      -9.50442285E-20
  0.920000017       8.24794455E-20
  0.959999979       3.25428027E-19
   1.00000000       6.05348919E-19
   1.03999996       8.71387212E-19
   1.08000004       1.05247980E-18
   1.12000000       1.06553570E-18
   1.15999997       8.30250900E-19
   1.20000005       2.89838891E-19
   1.24000001      -5.64811588E-19
   1.27999997      -1.67195701E-18
   1.32000005      -2.88284003E-18
   1.36000001      -3.95943235E-18
   1.39999998      -4.59247740E-18
   1.44000006      -4.44398938E-18
   1.48000002      -3.21421831E-18
   1.51999998      -7.27269706E-19
   1.55999994       2.97716116E-18
   1.60000002       7.56492983E-18
   1.63999999       1.23648670E-17
   1.67999995       1.63865902E-17
   1.72000003       1.84180995E-17
   1.75999999       1.72116135E-17
   1.79999995       1.17490666E-17
   1.84000003       1.55735372E-18
   1.88000000      -1.29789155E-17
   1.91999996      -3.03780062E-17
   1.96000004      -4.79751123E-17
   2.00000000      -6.20646054E-17
   2.03999996      -6.83211878E-17
   2.07999992      -6.25071669E-17
   2.11999989      -4.14126650E-17
   2.16000009      -3.90666981E-18
   2.20000005       4.80890647E-17
   2.24000001       1.08938185E-16
   2.27999997       1.69186480E-16
   2.31999993       2.16226468E-16
   2.35999990       2.35844413E-16
   2.40000010       2.14615676E-16
   2.44000006       1.42925057E-16
   2.48000002       1.81869306E-17
   2.51999998      -1.52335157E-16
   2.55999994      -3.49813993E-16
   2.59999990      -5.43944706E-16
   2.64000010      -6.95370057E-16
   2.68000007      -7.60671427E-16
   2.72000003      -6.99699825E-16
   2.75999999      -4.84484052E-16
   2.79999995      -1.08413845E-16
   2.83999991       4.06037711E-16
   2.88000011       1.00299437E-15
   2.92000008       1.59408350E-15
   2.96000004       2.06588075E-15
   3.00000000       2.29429144E-15
   3.03999996       2.16503379E-15
   3.07999992       1.59797996E-15
   3.11999989       5.71772015E-16
   3.16000009      -8.55880365E-16
   3.20000005      -2.53720080E-15
   3.24000001      -4.23716373E-15
   3.27999997      -5.65321224E-15
   3.31999993      -6.45258264E-15
   3.35999990      -6.32484584E-15
   3.40000010      -5.04385716E-15
   3.44000006      -2.53015285E-15
   3.48000002       1.09744140E-15
   3.51999998       5.49295488E-15
   3.55999994       1.00878583E-14
   3.59999990       1.41362625E-14
   3.64000010       1.68022758E-14
   3.68000007       1.72839038E-14
   3.72000003       1.49600825E-14
   3.75999999       9.54040568E-15
   3.79999995       1.19202597E-15
   3.83999991      -9.38335306E-15
   3.88000011      -2.09466284E-14
   3.92000008      -3.18092449E-14
   3.96000004      -4.00163877E-14
   4.00000000      -4.36146108E-14
   4.03999996      -4.09763267E-14
   4.07999992      -3.11385066E-14
   4.11999989      -1.41018187E-14
   4.15999985       8.96740906E-15
   4.19999981       3.56852677E-14
   4.23999977       6.25863632E-14
   4.28000021       8.54622362E-14
   4.32000017       9.98857437E-14
   4.36000013       1.01871629E-13
   4.40000010       8.85924363E-14
   4.44000006       5.90449185E-14
   4.48000002       1.45519583E-14
   4.51999998      -4.10092119E-14
   4.55999994      -1.01336820E-13
   4.59999990      -1.58234225E-13
   4.63999987      -2.02525442E-13
   4.67999983      -2.25279105E-13
   4.71999979      -2.19203155E-13
   4.76000023      -1.80023422E-13
   4.80000019      -1.07632321E-13
   4.84000015      -6.79597785E-15
   4.88000011       1.12756281E-13
   4.92000008       2.36969000E-13
   4.96000004       3.48838065E-13
   5.00000000       4.30432816E-13
   5.03999996       4.65355781E-13
   5.07999992       4.41338399E-13
   5.11999989       3.52608513E-13
   5.15999985       2.01650749E-13
   5.19999981       1.92804270E-17
   5.23999977      -2.32040651E-13
   5.28000021      -4.67262676E-13
   5.32000017      -6.74244026E-13
   5.36000013      -8.21279730E-13
   5.40000010      -8.80712983E-13
   5.44000006      -8.33239619E-13
   5.48000002      -6.71549567E-13
   5.51999998      -4.02712586E-13
   5.55999994      -4.88343259E-14
   5.59999990       3.54293472E-13
   5.63999987       7.60564192E-13
   5.67999983       1.11867601E-12
   5.71999979       1.37844890E-12
   5.76000023       1.49756618E-12
   5.80000019       1.44783512E-12
   5.84000015       1.22005314E-12
   5.88000011       8.26688978E-13
   5.92000008       3.01840340E-13
   5.96000004      -3.01721701E-13
   6.00000000      -9.18201170E-13
   6.03999996      -1.47649492E-12
   6.07999992      -1.90901223E-12
   6.11999989      -2.16041031E-12
   6.15999985      -2.19500047E-12
   6.19999981      -2.00171607E-12
   6.23999977      -1.59583544E-12
   6.28000021      -1.01712063E-12
   6.32000017      -3.24560637E-13
   6.36000013       4.11547641E-13
   6.40000010       1.11899205E-12
   6.44000006       1.73304340E-12
   6.48000002       2.20433285E-12
   6.51999998       2.50388208E-12
   6.55999994       2.62441696E-12
   6.59999990       2.57771604E-12
   6.63999987       2.38849348E-12
   6.67999983       2.08599999E-12
   6.71999979       1.69508504E-12
   6.76000023       1.22872665E-12
   6.80000019       6.83957448E-13
   6.84000015       4.26422678E-14
   6.88000011      -7.22252011E-13
   6.92000008      -1.63531970E-12
   6.96000004      -2.70388963E-12
   7.00000000      -3.90232117E-12
   7.03999996      -5.15876447E-12
   7.07999992      -6.34793130E-12
   7.11999989      -7.29303683E-12
   7.15999985      -7.77901007E-12
   7.19999981      -7.57741873E-12
   7.23999977      -6.48156182E-12
   7.28000021      -4.34800286E-12
   7.32000017      -1.13893053E-12
   7.36000013       3.04159475E-12
   7.40000010       7.92486389E-12
   7.44000006       1.30748606E-11
   7.48000002       1.79104665E-11
   7.51999998       2.17542772E-11
   7.55999994       2.39059952E-11
   7.59999990       2.37342906E-11
   7.63999987       2.07770866E-11
   7.67999983       1.48373553E-11
   7.71999979       6.05990345E-12
   7.76000023      -5.02493143E-12
   7.80000019      -1.75023104E-11
   7.84000015      -3.01256901E-11
   7.88000011      -4.14222823E-11
   7.92000008      -4.98448019E-11
   7.96000004      -5.39559543E-11
   8.00000000      -5.26255532E-11
   8.03999996      -4.52159803E-11
   8.07999992      -3.17298895E-11
   8.11999989      -1.28958884E-11
   8.15999985       9.82678522E-12
   8.19999981       3.43351424E-11
   8.23999977       5.80605460E-11
   8.27999973       7.82257176E-11
   8.31999969       9.21565532E-11
   8.35999966       9.76150549E-11
   8.39999962       9.31132740E-11
   8.43999958       7.81666398E-11
   8.47999954       5.34488079E-11
   8.52000046       2.08190895E-11
   8.56000042      -1.67926645E-11
   8.60000038      -5.56419875E-11
   8.64000034      -9.15466453E-11
   8.68000031      -1.20347246E-10
   8.72000027      -1.38400985E-10
   8.76000023      -1.43048962E-10
   8.80000019      -1.32997002E-10
   8.84000015      -1.08556032E-10
   8.88000011      -7.17016446E-11
   8.92000008      -2.59336823E-11
   8.96000004       2.40601202E-11
   9.00000000       7.29060909E-11
   9.03999996       1.15159153E-10
   9.07999992       1.45958481E-10
   9.11999989       1.61643393E-10
   9.15999985       1.60248162E-10
   9.19999981       1.41805928E-10
   9.23999977       1.08411759E-10
   9.27999973       6.40241957E-11
   9.31999969       1.40173654E-11
   9.35999966      -3.54702309E-11
   9.39999962      -7.83148199E-11
   9.43999958      -1.09217073E-10
   9.47999954      -1.24435656E-10
   9.52000046      -1.22341540E-10
   9.56000042      -1.03708334E-10
   9.60000038      -7.16846096E-11
   9.64000034      -3.14340498E-11
   9.68000031       1.05256828E-11
   9.72000027       4.72112974E-11
   9.76000023       7.21793250E-11
   9.80000019       8.05147823E-11
   9.84000015       6.96627755E-11
   9.88000011       3.99747596E-11
   9.92000008      -5.12782785E-12
   9.96000004      -5.94234800E-11
   10.0000000      -1.14587978E-10
   10.0400000      -1.61252803E-10
   10.0799999      -1.90302593E-10
   10.1199999      -1.94247063E-10
   10.1599998      -1.68478814E-10
   10.1999998      -1.12230378E-10
   10.2399998      -2.90702948E-11
   10.2799997       7.31702962E-11
   10.3199997       1.83078788E-10
   10.3599997       2.86906748E-10
   10.3999996       3.70255077E-10
   10.4399996       4.20002505E-10
   10.4799995       4.26231495E-10
   10.5200005       3.83886117E-10
   10.5600004       2.93910091E-10
   10.6000004       1.63665553E-10
   10.6400003       6.51326779E-12
   10.6800003      -1.59459432E-10
   10.7200003      -3.13462534E-10
   10.7600002      -4.34568742E-10
   10.8000002      -5.04519593E-10
   10.8400002      -5.10416098E-10
   10.8800001      -4.46922610E-10
   10.9200001      -3.17651822E-10
   10.9600000      -1.35476338E-10
   11.0000000       7.83610052E-11
   11.0400000       2.96322494E-10
   11.0799999       4.87664464E-10
   11.1199999       6.22225216E-10
   11.1599998       6.74486800E-10
   11.1999998       6.27423724E-10
   11.2399998       4.75646078E-10
   11.2799997       2.27405636E-10
   11.3199997      -9.48526119E-11
   11.3599997      -4.55547627E-10
   11.3999996      -8.08596357E-10
   11.4399996      -1.10140264E-09
   11.4799995      -1.27981148E-09
   11.5200005      -1.29351552E-09
   11.5600004      -1.10133980E-09
   11.6000004      -6.75840273E-10
   11.6400003      -6.73550278E-12
   11.6800003       8.97169783E-10
   11.7200003       2.00771422E-09
   11.7600002       3.27870397E-09
   11.8000002       4.64856509E-09
   11.8400002       6.04389072E-09
   11.8800001       7.38331751E-09
   11.9200001       8.58113935E-09
   11.9600000       9.55007451E-09
   12.0000000       1.02026929E-08
   12.0400000       1.04511546E-08
   12.0799999       1.02051141E-08
   12.1199999       9.36776168E-09
   12.1599998       7.83020315E-09
   12.1999998       5.46441115E-09
   12.2399998       2.11508411E-09
   12.2799997      -2.40932696E-09
   12.3199997      -8.34622860E-09
   12.3599997      -1.59891371E-08
   12.3999996      -2.56987249E-08
   12.4399996      -3.79150755E-08
   12.4799995      -5.31716822E-08
   12.5200005      -7.21119804E-08
   12.5600004      -9.55091508E-08
   12.6000004      -1.24290153E-07
   12.6400003      -1.59564863E-07
   12.6800003      -2.02660900E-07
   12.7200003      -2.55165020E-07
   12.7600002      -3.18971644E-07
   12.8000002      -3.96338578E-07
   12.8400002      -4.89951162E-07
   12.8800001      -6.02994248E-07
   12.9200001      -7.39232974E-07
   12.9600000      -9.03103171E-07
   13.0000000      -1.09981158E-06
   13.0400000      -1.33544609E-06
   13.0799999      -1.61709829E-06
   13.1199999      -1.95299845E-06
   13.1599998      -2.35266384E-06
   13.1999998      -2.82706196E-06
   13.2399998      -3.38878772E-06
   13.2799997      -4.05226001E-06
   13.3199997      -4.83393069E-06
   13.3599997      -5.75251124E-06
   13.3999996      -6.82921518E-06
   13.4399996      -8.08801360E-06
   13.4799995      -9.55590622E-06
   13.5200005      -1.12631978E-05
   13.5600004      -1.32437899E-05
   13.6000004      -1.55354592E-05
   13.6400003      -1.81801643E-05
   13.6800003      -2.12243049E-05
   13.7200003      -2.47190037E-05
   13.7600002      -2.87203584E-05
   13.8000002      -3.32896379E-05
   13.8400002      -3.84934792E-05
   13.8800001      -4.44040052E-05
   13.9200001      -5.10988903E-05
   13.9600000      -5.86613678E-05
   14.0000000      -6.71801172E-05
   14.0400000      -7.67490637E-05
   14.0799999      -8.74670950E-05
   14.1199999      -9.94375805E-05
   14.1599998      -1.12767833E-04
   14.1999998      -1.27568303E-04
   14.2399998      -1.43951707E-04
   14.2799997      -1.62031924E-04
   14.3199997      -1.81922747E-04
   14.3599997      -2.03736330E-04
   14.3999996      -2.27581506E-04
   14.4399996      -2.53562030E-04
   14.4799995      -2.81774264E-04
   14.5200005      -3.12305114E-04
   14.5600004      -3.45229404E-04
   14.6000004      -3.80607380E-04
   14.6400003      -4.18481766E-04
   14.6800003      -4.58874943E-04
   14.7200003      -5.01786068E-04
   14.7600002      -5.47187810E-04
   14.8000002      -5.95023565E-04
   14.8400002      -6.45204389E-04
   14.8800001      -6.97606069E-04
   14.9200001      -7.52066553E-04
   14.9600000      -8.08383222E-04
   15.0000000      -8.66311195E-04
   15.0400000      -9.25561239E-04
   15.0799999      -9.85798310E-04
   15.1199999      -1.04664126E-03
   15.1599998      -1.10766175E-03
   15.1999998      -1.16838561E-03
   15.2399998      -1.22829329E-03
   15.2799997      -1.28682202E-03
   15.3199997      -1.34336832E-03
   15.3599997      -1.39729166E-03
   15.3999996      -1.44791882E-03
   15.4399996      -1.49454921E-03
   15.4799995      -1.53646071E-03
   15.5200005      -1.57291675E-03
   15.5600004      -1.60317414E-03
   15.6000004      -1.62649155E-03
   15.6400003      -1.64213823E-03
   15.6800003      -1.64940418E-03
   15.7200003      -1.64760964E-03
   15.7600002      -1.63611642E-03
   15.8000002      -1.61433755E-03
   15.8400002      -1.58174848E-03
   15.8800001      -1.53789739E-03
   15.9200001      -1.48241513E-03
   15.9600000      -1.41502498E-03
   16.0000000      -1.33555173E-03
   16.0400009      -1.24392926E-03
   16.0799999      -1.14020763E-03
   16.1200008      -1.02455926E-03
   16.1599998      -8.97282793E-04
   16.2000008      -7.58806069E-04
   16.2399998      -6.09687238E-04
   16.2800007      -4.50614520E-04
   16.3199997      -2.82403344E-04
   16.3600006      -1.05992644E-04
   16.3999996       7.75617737E-05
   16.4400005       2.67094612E-04
   16.4799995       4.61341115E-04
   16.5200005       6.58948382E-04
   16.5599995       8.58488376E-04
   16.6000004       1.05847232E-03
   16.6399994       1.25736604E-03
   16.6800003       1.45360676E-03
   16.7199993       1.64562080E-03
   16.7600002       1.83184037E-03
   16.7999992       2.01072334E-03
   16.8400002       2.18077027E-03
   16.8799992       2.34054239E-03
   16.9200001       2.48867925E-03
   16.9599991       2.62391521E-03
   17.0000000       2.74509424E-03
   17.0400009       2.85118399E-03
   17.0799999       2.94128945E-03
   17.1200008       3.01466184E-03
   17.1599998       3.07070906E-03
   17.2000008       3.10900109E-03
   17.2399998       3.12927528E-03
   17.2800007       3.13143851E-03
   17.3199997       3.11556761E-03
   17.3600006       3.08190659E-03
   17.3999996       3.03086336E-03
   17.4400005       2.96300254E-03
   17.4799995       2.87903822E-03
   17.5200005       2.77982303E-03
   17.5599995       2.66633648E-03
   17.6000004       2.53967312E-03
   17.6399994       2.40102713E-03
   17.6800003       2.25167791E-03
   17.7199993       2.09297449E-03
   17.7600002       1.92631828E-03
   17.7999992       1.75314839E-03
   17.8400002       1.57492398E-03
   17.8799992       1.39310944E-03
   17.9200001       1.20915752E-03
   17.9599991       1.02449593E-03
   18.0000000       8.40512163E-04
   18.0400009       6.58541685E-04
   18.0799999       4.79855429E-04
   18.1200008       3.05649271E-04
   18.1599998       1.37035124E-04
   18.2000008      -2.49670975E-05
   18.2399998      -1.79436014E-04
   18.2800007      -3.25553730E-04
   18.3199997      -4.62609518E-04
   18.3600006      -5.90002222E-04
   18.3999996      -7.07241066E-04
   18.4400005      -8.13945488E-04
   18.4799995      -9.09844006E-04
   18.5200005      -9.94771486E-04
   18.5599995      -1.06866576E-03
   18.6000004      -1.13156391E-03
   18.6399994      -1.18359656E-03
   18.6800003      -1.22498232E-03
   18.7199993      -1.25602179E-03
   18.7600002      -1.27709075E-03
   18.7999992      -1.28863286E-03
   18.8400002      -1.29115209E-03
   18.8799992      -1.28520548E-03
   18.9200001      -1.27139431E-03
   18.9599991      -1.25035713E-03
   19.0000000      -1.22276088E-03
   19.0400009      -1.18929404E-03
   19.0799999      -1.15065719E-03
   19.1200008      -1.10755663E-03
   19.1599998      -1.06069644E-03
   19.2000008      -1.01077149E-03
   19.2399998      -9.58460267E-04
   19.2800007      -9.04418994E-04
   19.3199997      -8.49275384E-04
   19.3600006      -7.93623505E-04
   19.3999996      -7.38018774E-04
   19.4400005      -6.82973885E-04
   19.4799995      -6.28955429E-04
   19.5200005      -5.76380757E-04
   19.5599995      -5.25616226E-04
   19.6000004      -4.76975634E-04
   19.6399994      -4.30719840E-04
   19.6800003      -3.87056876E-04
   19.7199993      -3.46142944E-04
   19.7600002      -3.08084156E-04
   19.7999992      -2.72938836E-04
   19.8400002      -2.40720663E-04
   19.8799992      -2.11402221E-04
   19.9200001      -1.84919118E-04
   19.9599991      -1.61174525E-04
   20.0000000      -1.40043878E-04
   20.0400009      -1.21380101E-04
   20.0799999      -1.05018546E-04
   20.1200008      -9.07822323E-05
   20.1599998      -7.84868098E-05
   20.2000008      -6.79453078E-05
   20.2399998      -5.89726260E-05
   20.2800007      -5.13896084E-05
   20.3199997      -4.50266161E-05
   20.3600006      -3.97265576E-05
   20.3999996      -3.53473406E-05
   20.4400005      -3.17636368E-05
   20.4799995      -2.88680712E-05
   20.5200005      -2.65716608E-05
   20.5599995      -2.48036631E-05
   20.6000004      -2.35107691E-05
   20.6399994      -2.26557386E-05
   20.6800003      -2.22155086E-05
   20.7199993      -2.21788814E-05
   20.7600002      -2.25438489E-05
   20.7999992      -2.33147002E-05
   20.8400002      -2.44989551E-05
   20.8799992      -2.61043078E-05
   20.9200001      -2.81356333E-05
   20.9599991      -3.05921785E-05
   21.0000000      -3.34650576E-05
   21.0400009      -3.67350985E-05
   21.0799999      -4.03711674E-05
   21.1200008      -4.43289682E-05
   21.1599998      -4.85504206E-05
   21.2000008      -5.29635872E-05
   21.2399998      -5.74831756E-05
   21.2800007      -6.20116334E-05
   21.3199997      -6.64407853E-05
   21.3600006      -7.06538922E-05
   21.3999996      -7.45282159E-05
   21.4400005      -7.79379188E-05
   21.4799995      -8.07572142E-05
   21.5200005      -8.28637058E-05
   21.5599995      -8.41418150E-05
   21.6000004      -8.44861133E-05
   21.6399994      -8.38046253E-05
   21.6800003      -8.20217829E-05
   21.7199993      -7.90811246E-05
   21.7600002      -7.49475585E-05
   21.7999992      -6.96091156E-05
   21.8400002      -6.30781797E-05
   21.8799992      -5.53921454E-05
   21.9200001      -4.66134334E-05
   21.9599991      -3.68289147E-05
   22.0000000      -2.61487312E-05
   22.0400009      -1.47045475E-05
   22.0799999      -2.64725736E-06
   22.1200008       9.85576480E-06
   22.1599998       2.26238571E-05
   22.2000008       3.54665390E-05
   22.2399998       4.81873067E-05
   22.2800007       6.05875466E-05
   22.3199997       7.24705314E-05
   22.3600006       8.36454492E-05
   22.3999996       9.39312667E-05
   22.4400005       1.03160499E-04
   22.4799995       1.11182664E-04
   22.5200005       1.17867392E-04
   22.5599995       1.23107166E-04
   22.6000004       1.26819650E-04
   22.6399994       1.28949454E-04
   22.6800003       1.29469423E-04
   22.7199993       1.28381362E-04
   22.7600002       1.25716280E-04
   22.7999992       1.21533965E-04
   22.8400002       1.15922230E-04
   22.8799992       1.08995482E-04
   22.9200001       1.00892961E-04
   22.9599991       9.17765574E-05
   23.0000000       8.18281769E-05
   23.0400009       7.12469409E-05
   23.0799999       6.02460423E-05
   23.1200008       4.90494058E-05
   23.1599998       3.78882905E-05
   23.2000008       2.69977118E-05
   23.2399998       1.66129066E-05
   23.2800007       6.96579582E-06
   23.3199997      -1.71851832E-06
   23.3600006      -9.22508207E-06
   23.3999996      -1.53523015E-05
   23.4400005      -1.99149545E-05
   23.4799995      -2.27469754E-05
   23.5200005      -2.37039985E-05
   23.5599995      -2.26656139E-05
   23.6000004      -1.95372995E-05
   23.6399994      -1.42520503E-05
   23.6800003      -6.77168191E-06
   23.7199993       2.91224478E-06
   23.7600002       1.47778237E-05
   23.7999992       2.87725870E-05
   23.8400002       4.48136343E-05
   23.8799992       6.27881309E-05
   23.9200001       8.25541429E-05
   23.9599991       1.03941798E-04
   24.0000000       1.26754807E-04
   24.0400009       1.50772234E-04
   24.0799999       1.75750596E-04
   24.1200008       2.01426214E-04
   24.1599998       2.27517783E-04
   24.2000008       2.53729115E-04
   24.2399998       2.79752217E-04
   24.2800007       3.05270252E-04
   24.3199997       3.29960778E-04
   24.3600006       3.53499170E-04
   24.3999996       3.75561853E-04
   24.4400005       3.95829673E-04
   24.4799995       4.13991336E-04
   24.5200005       4.29746520E-04
   24.5599995       4.42809309E-04
   24.6000004       4.52911307E-04
   24.6399994       4.59804549E-04
   24.6800003       4.63264412E-04
   24.7199993       4.63092496E-04
   24.7600002       4.59118834E-04
   24.7999992       4.51204571E-04
   24.8400002       4.39243799E-04
   24.8799992       4.23165562E-04
   24.9200001       4.02935373E-04
   24.9599991       3.78556666E-04
   25.0000000       3.50071612E-04
   25.0400009       3.17561877E-04
   25.0799999       2.81149027E-04
   25.1200008       2.40994385E-04
   25.1599998       1.97298621E-04
   25.2000008       1.50300955E-04
   25.2399998       1.00277852E-04
   25.2800007       4.75413763E-05
   25.3199997      -7.56296822E-06
   25.3600006      -6.46587941E-05
   25.3999996      -1.23341859E-04
   25.4400005      -1.83183452E-04
   25.4799995      -2.43734365E-04
   25.5200005      -3.04529007E-04
   25.5599995      -3.65090120E-04
   25.6000004      -4.24933736E-04
   25.6399994      -4.83574317E-04
   25.6800003      -5.40530367E-04
   25.7199993      -5.95330144E-04
   25.7600002      -6.47516979E-04
   25.7999992      -6.96655887E-04
   25.8400002      -7.42338656E-04
   25.8799992      -7.84190022E-04
   25.9200001      -8.21872905E-04
   25.9599991      -8.55093647E-04
   26.0000000      -8.83606961E-04
   26.0400009      -9.07220179E-04
   26.0799999      -9.25797212E-04
   26.1200008      -9.39261343E-04
   26.1599998      -9.47598193E-04
   26.2000008      -9.50856891E-04
   26.2399998      -9.49151115E-04
   26.2800007      -9.42658749E-04
   26.3199997      -9.31620540E-04
   26.3600006      -9.16338351E-04
   26.3999996      -8.97171441E-04
   26.4400005      -8.74532445E-04
   26.4799995      -8.48881900E-04
   26.5200005      -8.20721965E-04
   26.5599995      -7.90588732E-04
   26.6000004      -7.59044371E-04
   26.6399994      -7.26667640E-04
   26.6800003      -6.94043993E-04
   26.7199993      -6.61755214E-04
   26.7600002      -6.30368129E-04
   26.7999992      -6.00423431E-04
   26.8400002      -5.72423625E-04
   26.8799992      -5.46822033E-04
   26.9200001      -5.24010684E-04
   26.9599991      -5.04309719E-04
   27.0000000      -4.87956626E-04
   27.0400009      -4.75096982E-04
   27.0799999      -4.65775694E-04
   27.1200008      -4.59929695E-04
   27.1599998      -4.57382383E-04
   27.2000008      -4.57839371E-04
   27.2399998      -4.60886484E-04
   27.2800007      -4.65989753E-04
   27.3199997      -4.72497428E-04
   27.3600006      -4.79644514E-04
   27.3999996      -4.86559788E-04
   27.4400005      -4.92274994E-04
   27.4799995      -4.95736778E-04
   27.5200005      -4.95820947E-04
   27.5599995      -4.91348619E-04
   27.6000004      -4.81105351E-04
   27.6399994      -4.63861274E-04
   27.6800003      -4.38393588E-04
   27.7199993      -4.03510028E-04
   27.7600002      -3.58073652E-04
   27.7999992      -3.01028107E-04
   27.8400002      -2.31423095E-04
   27.8799992      -1.48439809E-04
   27.9200001      -5.14155072E-05
   27.9599991       6.01329630E-05
   28.0000000       1.86487494E-04
   28.0400009       3.27708782E-04
   28.0799999       4.83619515E-04
   28.1200008       6.53790077E-04
   28.1599998       8.37527914E-04
   28.2000008       1.03387109E-03
   28.2399998       1.24158466E-03
   28.2800007       1.45916385E-03
   28.3199997       1.68483867E-03
   28.3600006       1.91658549E-03
   28.3999996       2.15214211E-03
   28.4400005       2.38902890E-03
   28.4799995       2.62457156E-03
   28.5200005       2.85593141E-03
   28.5599995       3.08013824E-03
   28.6000004       3.29412520E-03
   28.6399994       3.49476910E-03
   28.6800003       3.67893139E-03
   28.7199993       3.84350354E-03
   28.7600002       3.98545107E-03
   28.7999992       4.10185894E-03
   28.8400002       4.18997882E-03
   28.8799992       4.24727192E-03
   28.9200001       4.27145511E-03
   28.9599991       4.26053861E-03
   29.0000000       4.21286840E-03
   29.0400009       4.12715878E-03
   29.0799999       4.00252221E-03
   29.1200008       3.83849768E-03
   29.1599998       3.63507052E-03
   29.2000008       3.39268730E-03
   29.2399998       3.11226561E-03
   29.2800007       2.79519707E-03
   29.3199997       2.44334433E-03
   29.3600006       2.05903128E-03
   29.3999996       1.64502719E-03
   29.4400005       1.20452431E-03
   29.4799995       7.41109718E-04