  -8.00000000       0.00000000
  -7.84000015       0.00000000
  -7.67999983       0.00000000
  -7.51999998       0.00000000
  -7.36000013       0.00000000
  -7.19999981       0.00000000
  -7.03999996      -1.98181057E-22
  -6.88000011      -4.77225980E-24
  -6.71999979      -2.84714693E-22
  -6.55999994      -8.87732091E-21
  -6.40000010       2.36553521E-21
  -6.23999977       5.27073282E-20
  -6.07999992      -1.50592835E-20
  -5.92000008      -3.84491928E-19
  -5.76000023      -4.90910342E-19
  -5.59999990       6.40760417E-19
  -5.44000006       1.83476146E-18
  -5.28000021       2.26597009E-18
  -5.11999989       4.06158269E-19
  -4.96000004      -9.03670585E-20
  -4.80000019       8.81618527E-18
  -4.63999987       1.93106373E-17
  -4.48000002       7.55804852E-18
  -4.32000017      -3.77312183E-17
  -4.15999985      -1.05354825E-16
  -4.00000000      -1.04102599E-16
  -3.83999991       1.05067515E-16
  -3.68000007       3.76777725E-16
  -3.51999998       2.93199475E-16
  -3.35999990      -3.20953145E-16
  -3.20000005      -1.07519980E-15
  -3.03999996      -9.97787342E-16
  -2.88000011       8.18072626E-16
  -2.72000003       3.64145563E-15
  -2.55999994       3.93341179E-15
  -2.40000010      -2.63098534E-15
  -2.24000001      -1.42548208E-14
  -2.07999992      -1.89268394E-14
  -1.91999996      -2.05025582E-16
  -1.75999999       4.30546949E-14
  -1.60000002       7.42631461E-14
  -1.44000006       3.43503573E-14
  -1.27999997      -8.75016002E-14
  -1.12000000      -1.89090158E-13
 -0.959999979      -1.14059722E-13
 -0.800000012       1.41109089E-13
 -0.639999986       3.04024655E-13
 -0.479999989       7.94186494E-14
 -0.319999993      -3.62398777E-13
 -0.159999996      -3.43336769E-13
   1.66533454E-16   4.94968758E-13
  0.159999996       1.29822130E-12
  0.319999993       5.41091857E-13
  0.479999989      -1.88003627E-12
  0.639999986      -3.44404887E-12
  0.800000012      -1.18434863E-12
  0.959999979       4.01208147E-12
   1.12000000       6.53504507E-12
   1.27999997       1.70885420E-12
   1.44000006      -7.36210138E-12
   1.60000002      -1.05092714E-11
   1.75999999      -1.22191135E-12
   1.91999996       1.30986706E-11
   2.07999992       1.53330855E-11
   2.24000001      -2.24901825E-12
   2.40000010      -2.39486746E-11
   2.55999994      -2.17381460E-11
   2.72000003       1.22286218E-11
   2.88000011       4.69780152E-11
   3.03999996       3.64293248E-11
   3.20000005      -2.81679402E-11
   3.35999990      -8.97252411E-11
   3.51999998      -7.08717043E-11
   3.68000007       4.22833643E-11
   3.83999991       1.60406466E-10
   4.00000000       1.48994206E-10
   4.15999985      -3.36896448E-11
   4.32000017      -2.49497645E-10
   4.48000002      -2.78705808E-10
   4.63999987      -3.74657215E-11
   4.80000019       3.20111770E-10
   4.96000004       4.53533627E-10
   5.11999989       2.09280551E-10
   5.28000021      -2.78932405E-10
   5.44000006      -6.08791462E-10
   5.59999990      -4.13509865E-10
   5.76000023       2.72543405E-10
   5.92000008       8.16840040E-10
   6.07999992       6.78523182E-10
   6.23999977      -1.99849970E-10
   6.40000010      -1.13569076E-09
   6.55999994      -1.27127886E-09
   6.71999979      -3.76431830E-10
   6.88000011       7.81062215E-10
   7.03999996       1.14789767E-09
   7.19999981       1.18509536E-10
   7.36000013      -1.23357391E-09
   7.51999998      -1.38388290E-09
   7.67999983       4.57138799E-10
   7.84000015       2.71517031E-09
   8.00000000       2.93916558E-09
   8.15999985       1.12594079E-09
   8.31999969      -8.16874013E-10
   8.47999954      -7.08573478E-10
   8.64000034       5.90530957E-10
   8.80000019       1.28158639E-09
   8.96000004       3.17930432E-10
   9.11999989      -1.04570019E-09
   9.27999973      -1.05056130E-09
   9.43999958       3.29588468E-10
   9.60000038       1.42319123E-09
   9.76000023       1.18086396E-09
   9.92000008      -4.80175344E-11
   10.0799999      -1.40041045E-09
   10.2399998      -1.67265934E-09
   10.3999996      -9.33983890E-10
   10.5600004       3.08235465E-10
   10.7200003       7.21480597E-10
   10.8800001      -1.56093402E-10
   11.0400000      -1.24298327E-09
   11.1999998      -1.13748000E-09
   11.3599997       8.54844029E-10
   11.5200005       1.96444194E-09
   11.6800003       1.94035521E-09
   11.8400002       2.41199394E-10
   12.0000000      -6.46653009E-10
   12.1599998       8.40789161E-10
   12.3199997       4.09895851E-09
   12.4799995       5.99118399E-09
   12.6400003       3.73480225E-09
   12.8000002      -1.55178448E-09
   12.9600000      -5.61593660E-09
   13.1199999      -4.90463004E-09
   13.2799997      -5.19775889E-10
   13.4399996       3.51295859E-09
   13.6000004       3.05553138E-09
   13.7600002      -1.64302216E-09
   13.9200001      -6.04664097E-09
   14.0799999      -6.00369487E-09
   14.2399998      -1.98033856E-09
   14.3999996       1.94584371E-09
   14.5600004       2.01031969E-09
   14.7200003      -1.86041127E-09
   14.8800001      -5.63793234E-09
   15.0400000      -4.81291007E-09
   15.1999998       1.33678890E-09
   15.3599997       8.72414319E-09
   15.5200005       1.11897540E-08
   15.6800003       6.20340268E-09
   15.8400002      -2.38593767E-09
   16.0000000      -7.23210070E-09
   16.1599998      -4.28090097E-09
   16.3199997       3.44916962E-09
   16.4799995       8.29557845E-09
   16.6399994       5.43986234E-09
   16.7999992      -2.13885309E-09
   16.9599991      -6.55853150E-09
   17.1200008      -3.98024280E-09
   17.2800007       1.82663440E-09
   17.4400005       4.67151517E-09
   17.6000004       2.12362328E-09
   17.7600002      -2.13382845E-09
   17.9200001      -2.42415910E-09
   18.0799999       2.02815742E-09
   18.2399998       6.63419764E-09
   18.3999996       5.32165201E-09
   18.5599995      -1.79047333E-09
   18.7199993      -7.62933894E-09
   18.8799992      -5.62620084E-09
   19.0400009       3.52848972E-09
   19.2000008       1.09679341E-08
   19.3600006       7.90479326E-09
   19.5200005      -4.82904605E-09
   19.6800003      -1.62295368E-08
   19.8400002      -1.55028719E-08
   20.0000000      -2.74059464E-09
   20.1599998       1.12117817E-08
   20.3199997       1.47719428E-08
   20.4799995       6.90649715E-09
   20.6399994      -2.95600655E-09
   20.7999992      -4.76249040E-09
   20.9599991       2.46250442E-09
   21.1200008       1.04473141E-08
   21.2800007       9.68417702E-09
   21.4400005      -3.33691436E-10
   21.6000004      -1.11426752E-08
   21.7600002      -1.31596671E-08
   21.9200001      -5.22367527E-09
   22.0799999       6.06021944E-09
   22.2399998       1.25131692E-08
   22.3999996       1.15320171E-08
   22.5599995       6.23187191E-09
   22.7199993       1.16850551E-09
   22.8799992      -2.02411776E-09
   23.0400009      -4.63823469E-09
   23.2000008      -7.35278860E-09
   23.3600006      -9.03775454E-09
   23.5200005      -7.48854667E-09
   23.6800003      -2.05628825E-09
   23.8400002       4.31967973E-09
   24.0000000       6.10652195E-09
   24.1599998       4.58575705E-10
   24.3199997      -8.83963835E-09
   24.4799995      -1.38428113E-08
   24.6399994      -9.61990132E-09
   24.7999992       8.69354588E-10
   24.9599991       9.12705644E-09
   25.1200008       8.63418048E-09
   25.2800007       7.73330511E-10
   25.4400005      -6.89479185E-09
   25.6000004      -7.46005036E-09
   25.7600002      -7.22070792E-10
   25.9200001       7.34930516E-09
   26.0799999       1.02709743E-08
   26.2399998       5.88365889E-09
   26.3999996      -2.79584422E-09
   26.5599995      -1.02897646E-08
   26.7199993      -1.21979582E-08
   26.8799992      -7.50209850E-09
   27.0400009       9.09279152E-10
   27.2000008       7.86407650E-09
   27.3600006       9.05971476E-09
   27.5200005       4.57448301E-09
   27.6800003      -9.04816611E-10
   27.8400002      -1.93719374E-09
   28.0000000       2.75647949E-09
   28.1599998       9.06902731E-09
   28.3199997       1.12712861E-08
   28.4799995       7.22271842E-09
   28.6399994       4.39549619E-10
   28.7999992      -3.12857651E-09
   28.9599991      -2.70326650E-10
   29.1200008       6.32269570E-09
   29.2800007       1.03922222E-08
   29.4400005       6.98789249E-09
   29.6000004      -2.11342166E-09
   29.7600002      -8.34884339E-09
   29.9200001      -4.97339325E-09
   30.0799999       5.95291194E-09
   30.2399998       1.39826213E-08
   30.3999996       1.05103899E-08
   30.5599995      -2.68938027E-09
   30.7199993      -1.41435867E-08
   30.8799992      -1.40001006E-08
   31.0400009      -3.24713900E-09
   31.2000008       7.61510588E-09
   31.3600006       9.02678110E-09
   31.5200005       1.32441214E-09
   31.6800003      -6.65183908E-09
   31.8400002      -7.19622273E-09
