  -8.00000000       0.00000000
  -7.84000015       0.00000000
  -7.67999983       0.00000000
  -7.51999998       0.00000000
  -7.36000013       0.00000000
  -7.19999981       0.00000000
  -7.03999996      -1.40129846E-45
  -6.88000011       3.64166553E-24
  -6.71999979       3.94421838E-23
  -6.55999994       7.95773144E-22
  -6.40000010       6.15772029E-21
  -6.23999977       2.28517934E-20
  -6.07999992       3.90886137E-20
  -5.92000008      -9.49045804E-21
  -5.76000023      -1.69832329E-19
  -5.59999990      -1.97325344E-19
  -5.44000006       4.90821213E-19
  -5.28000021       1.68643195E-18
  -5.11999989       7.28921430E-19
  -4.96000004      -5.29258528E-18
  -4.80000019      -1.06224805E-17
  -4.63999987       3.01081356E-18
  -4.48000002       4.18052350E-17
  -4.32000017       5.59459438E-17
  -4.15999985      -4.26908543E-17
  -4.00000000      -2.30553713E-16
  -3.83999991      -2.29438700E-16
  -3.68000007       2.76207809E-16
  -3.51999998       9.98943542E-16
  -3.35999990       7.81703519E-16
  -3.20000005      -1.21284530E-15
  -3.03999996      -3.43539750E-15
  -2.88000011      -2.08839721E-15
  -2.72000003       4.26853191E-15
  -2.55999994       9.59829699E-15
  -2.40000010       3.82669496E-15
  -2.24000001      -1.30565817E-14
  -2.07999992      -2.18275562E-14
  -1.91999996      -8.58307273E-16
  -1.75999999       3.79342655E-14
  -1.60000002       4.11212270E-14
  -1.44000006      -2.80646935E-14
  -1.27999997      -1.10662137E-13
  -1.12000000      -7.08170705E-14
 -0.959999979       1.38479885E-13
 -0.800000012       3.19863927E-13
 -0.639999986       1.47856011E-13
 -0.479999989      -4.20163687E-13
 -0.319999993      -8.57707134E-13
 -0.159999996      -4.26040822E-13
   1.66533454E-16   9.17669044E-13
  0.159999996       2.00162911E-12
  0.319999993       1.25830520E-12
  0.479999989      -1.46570202E-12
  0.639999986      -3.94639226E-12
  0.800000012      -3.10847658E-12
  0.959999979       1.68404548E-12
   1.12000000       6.75661133E-12
   1.27999997       6.45548285E-12
   1.44000006      -1.30565643E-12
   1.60000002      -1.11982689E-11
   1.75999999      -1.31024792E-11
   1.91999996      -8.54590324E-13
   2.07999992       1.94578693E-11
   2.24000001       3.00075728E-11
   2.40000010       1.36277543E-11
   2.55999994      -2.85303777E-11
   2.72000003      -6.83331447E-11
   2.88000011      -6.36741146E-11
   3.03999996       7.98061617E-12
   3.20000005       1.16839052E-10
   3.35999990       1.80935697E-10
   3.51999998       1.16268523E-10
   3.68000007      -8.61870991E-11
   3.83999991      -3.17044890E-10
   4.00000000      -3.93939242E-10
   4.15999985      -1.89794153E-10
   4.32000017       2.40856640E-10
   4.48000002       6.48037901E-10
   4.63999987       7.27818472E-10
   4.80000019       3.39263423E-10
   4.96000004      -3.61838448E-10
   5.11999989      -9.88809479E-10
   5.28000021      -1.16129328E-09
   5.44000006      -7.49597273E-10
   5.59999990       5.15320495E-11
   5.76000023       8.68947081E-10
   5.92000008       1.39445744E-09
   6.07999992       1.52926183E-09
   6.23999977       1.32537314E-09
   6.40000010       8.08015210E-10
   6.55999994      -1.15781711E-10
   6.71999979      -1.52560931E-09
   6.88000011      -3.21736371E-09
   7.03999996      -4.55957716E-09
   7.19999981      -4.69174211E-09
   7.36000013      -2.99960323E-09
   7.51999998       4.75264272E-10
   7.67999983       5.03409225E-09
   7.84000015       9.74536629E-09
   8.00000000       1.39278118E-08
   8.15999985       1.72313506E-08
   8.31999969       1.91552676E-08
   8.47999954       1.82724591E-08
   8.64000034       1.15980781E-08
   8.80000019      -5.70595216E-09
   8.96000004      -4.05650589E-08
   9.11999989      -1.02789180E-07
   9.27999973      -2.07115306E-07
   9.43999958      -3.77039242E-07
   9.60000038      -6.50832817E-07
   9.76000023      -1.09013172E-06
   9.92000008      -1.79165124E-06
   10.0799999      -2.90294429E-06
   10.2399998      -4.64358573E-06
   10.3999996      -7.33351771E-06
   10.5600004      -1.14302975E-05
   10.7200003      -1.75763871E-05
   10.8800001      -2.66565621E-05
   11.0400000      -3.98640004E-05
   11.1999998      -5.87717514E-05
   11.3599997      -8.54039317E-05
   11.5200005      -1.22297715E-04
   11.6800003      -1.72544140E-04
   11.8400002      -2.39792207E-04
   12.0000000      -3.28198308E-04
   12.1599998      -4.42301884E-04
   12.3199997      -5.86808252E-04
   12.4799995      -7.66264799E-04
   12.6400003      -9.84623912E-04
   12.8000002      -1.24469830E-03
   12.9600000      -1.54752936E-03
   13.1199999      -1.89170463E-03
   13.2799997      -2.27268017E-03
   13.4399996      -2.68218014E-03
   13.6000004      -3.10775894E-03
   13.7600002      -3.53261549E-03
   13.9200001      -3.93575197E-03
   14.0799999      -4.29253653E-03
   14.2399998      -4.57571354E-03
   14.3999996      -4.75685531E-03
   14.5600004      -4.80820518E-03
   14.7200003      -4.70480137E-03
   14.8800001      -4.42674197E-03
   15.0400000      -3.96137731E-03
   15.1999998      -3.30523658E-03
   15.3599997      -2.46545463E-03
   15.5200005      -1.46052358E-03
   15.6800003      -3.20214458E-04
   15.8400002       9.15403361E-04
   16.0000000       2.19783490E-03
   16.1599998       3.47282505E-03
   16.3199997       4.68362356E-03
   16.4799995       5.77459298E-03
   16.6399994       6.69485517E-03
   16.7999992       7.40166660E-03
   16.9599991       7.86322821E-03
   17.1200008       8.06069933E-03
   17.2800007       7.98925199E-03
   17.4400005       7.65810534E-03
   17.6000004       7.08957249E-03
   17.7600002       6.31723227E-03
   17.9200001       5.38342819E-03
   18.0799999       4.33633244E-03
   18.2399998       3.22682969E-03
   18.3999996       2.10546725E-03
   18.5599995       1.01968308E-03
   18.7199993       1.14610839E-05
   18.8799992      -8.84484150E-04
   19.0400009      -1.64194114E-03
   19.2000008      -2.24385504E-03
   19.3600006      -2.68243672E-03
   19.5200005      -2.95878854E-03
   19.6800003      -3.08211707E-03
   19.8400002      -3.06860800E-03
   20.0000000      -2.94002518E-03
   20.1599998      -2.72210781E-03
   20.3199997      -2.44283723E-03
   20.4799995      -2.13065604E-03
   20.6399994      -1.81272766E-03
   20.7999992      -1.51334028E-03
   20.9599991      -1.25255564E-03
   21.1200008      -1.04520575E-03
   21.2800007      -9.00315295E-04
   21.4400005      -8.20993097E-04
   21.6000004      -8.04793905E-04
   21.7600002      -8.44504626E-04
   21.9200001      -9.29268484E-04
   22.0799999      -1.04591984E-03
   22.2399998      -1.18038070E-03
   22.3999996      -1.31896068E-03
   22.5599995      -1.44942128E-03
   22.7199993      -1.56170467E-03
   22.8799992      -1.64827367E-03
   23.0400009      -1.70406816E-03
   23.2000008      -1.72612839E-03
   23.3600006      -1.71298429E-03
   23.5200005      -1.66393723E-03
   23.6800003      -1.57836976E-03
   23.8400002      -1.45519816E-03
   24.0000000      -1.29255082E-03
   24.1599998      -1.08771748E-03
   24.3199997      -8.37368658E-04
   24.4799995      -5.38010499E-04
   24.6399994      -1.86600562E-04
   24.7999992       2.18767294E-04
   24.9599991       6.78204524E-04
   25.1200008       1.18947343E-03
   25.2800007       1.74758851E-03
   25.4400005       2.34460412E-03
   25.6000004       2.96959584E-03
   25.7600002       3.60882166E-03
   25.9200001       4.24603326E-03
   26.0799999       4.86289198E-03
   26.2399998       5.43945329E-03
   26.3999996       5.95470378E-03
   26.5599995       6.38714246E-03
   26.7199993       6.71541970E-03
   26.8799992       6.91903988E-03
   27.0400009       6.97915303E-03
   27.2000008       6.87944889E-03
   27.3600006       6.60714786E-03
   27.5200005       6.15407526E-03
   27.6800003       5.51774260E-03
   27.8400002       4.70235059E-03
   28.0000000       3.71958385E-03
   28.1599998       2.58909655E-03
   28.3199997       1.33855967E-03
   28.4799995       3.19163587E-06
   28.6399994      -1.37528055E-03
   28.7999992      -2.75023328E-03
   28.9599991      -4.07226803E-03
   29.1200008      -5.29173110E-03
   29.2800007      -6.36147056E-03
   29.4400005      -7.23961974E-03
   29.6000004      -7.89219886E-03
   29.7600002      -8.29532184E-03
   29.9200001      -8.43680371E-03
   30.0799999      -8.31704494E-03
   30.2399998      -7.94908497E-03
   30.3999996      -7.35780271E-03
   30.5599995      -6.57832716E-03
   30.7199993      -5.65375574E-03
   30.8799992      -4.63236449E-03
   31.0400009      -3.56451771E-03
   31.2000008      -2.49950378E-03
   31.3600006      -1.48254086E-03
   31.5200005      -5.52176149E-04
   31.6800003       2.61725421E-04
   31.8400002       9.39253950E-04
