  -8.00000000       0.00000000
  -7.84000015       0.00000000
  -7.67999983       0.00000000
  -7.51999998       0.00000000
  -7.36000013       0.00000000
  -7.19999981       0.00000000
  -7.03999996       0.00000000
  -6.88000011       0.00000000
  -6.71999979       0.00000000
  -6.55999994       3.83315949E-27
  -6.40000010       2.09709970E-25
  -6.23999977       2.66810547E-24
  -6.07999992       1.63465942E-23
  -5.92000008       5.29930314E-23
  -5.76000023       7.44539039E-23
  -5.59999990      -6.30243255E-23
  -5.44000006      -4.00012054E-22
  -5.28000021      -4.64863943E-22
  -5.11999989       1.36820452E-22
  -4.96000004       2.43613526E-22
  -4.80000019       1.06883976E-22
  -4.63999987       8.58719216E-21
  -4.48000002       2.75152583E-20
  -4.32000017       7.36786051E-23
  -4.15999985      -1.56819175E-19
  -4.00000000      -2.73289127E-19
  -3.83999991       2.47241157E-19
  -3.68000007       1.49259199E-18
  -3.51999998       1.27518411E-18
  -3.35999990      -3.56508185E-18
  -3.20000005      -9.47384183E-18
  -3.03999996      -1.28553266E-18
  -2.88000011       2.90178499E-17
  -2.72000003       4.42770525E-17
  -2.55999994      -2.79957161E-17
  -2.40000010      -1.72258046E-16
  -2.24000001      -1.59372412E-16
  -2.07999992       2.69199326E-16
  -1.91999996       8.29270825E-16
  -1.75999999       4.50049092E-16
  -1.60000002      -1.56767016E-15
  -1.44000006      -3.44239738E-15
  -1.27999997      -1.01057997E-15
  -1.12000000       7.08905548E-15
 -0.959999979       1.28338392E-14
 -0.800000012       2.00585788E-15
 -0.639999986      -2.68347780E-14
 -0.479999989      -4.41030133E-14
 -0.319999993      -5.54068137E-15
 -0.159999996       8.75909723E-14
   1.66533454E-16   1.41381224E-13
  0.159999996       2.70796992E-14
  0.319999993      -2.48100423E-13
  0.479999989      -4.22155176E-13
  0.639999986      -1.40971897E-13
  0.800000012       6.00998038E-13
  0.959999979       1.15911859E-12
   1.12000000       6.14732169E-13
   1.27999997      -1.18603770E-12
   1.44000006      -2.86282109E-12
   1.60000002      -2.19935550E-12
   1.75999999       1.63184646E-12
   1.91999996       6.15621139E-12
   2.07999992       6.51409439E-12
   2.24000001      -2.85199734E-13
   2.40000010      -1.09074911E-11
   2.55999994      -1.59668685E-11
   2.72000003      -7.04351247E-12
   2.88000011       1.39399273E-11
   3.03999996       3.17681992E-11
   3.20000005       2.72049726E-11
   3.35999990      -5.75283658E-12
   3.51999998      -4.84185018E-11
   3.68000007      -6.50760903E-11
   3.83999991      -2.96820207E-11
   4.00000000       4.64296344E-11
   4.15999985       1.11112439E-10
   4.32000017       1.03784037E-10
   4.48000002       6.24799127E-12
   4.63999987      -1.27797231E-10
   4.80000019      -1.97501016E-10
   4.96000004      -1.27878458E-10
   5.11999989       5.98107328E-11
   5.28000021       2.42612735E-10
   5.44000006       2.75774958E-10
   5.59999990       1.07836254E-10
   5.76000023      -1.60995106E-10
   5.92000008      -3.37632089E-10
   6.07999992      -2.81229623E-10
   6.23999977      -2.35599752E-11
   6.40000010       2.41714759E-10
   6.55999994       3.07967235E-10
   6.71999979       1.30025574E-10
   6.88000011      -1.25534888E-10
   7.03999996      -2.13554549E-10
   7.19999981      -3.10745353E-11
   7.36000013       2.61887928E-10
   7.51999998       3.47642082E-10
   7.67999983       2.56767420E-11
   7.84000015      -5.60241797E-10
   8.00000000      -9.55387769E-10
   8.15999985      -7.10950021E-10
   8.31999969       2.29557373E-10
   8.47999954       1.37941647E-09
   8.64000034       1.95285632E-09
   8.80000019       1.37836198E-09
   8.96000004      -2.56645871E-10
   9.11999989      -2.14610174E-09
   9.27999973      -3.16786886E-09
   9.43999958      -2.53512966E-09
   9.60000038      -3.22210314E-10
   9.76000023       2.45852050E-09
   9.92000008       4.32367075E-09
   10.0799999       4.12467349E-09
   10.2399998       1.75603854E-09
   10.3999996      -1.68548597E-09
   10.5600004      -4.46374271E-09
   10.7200003      -5.19557153E-09
   10.8800001      -3.63479780E-09
   11.0400000      -6.94722835E-10
   11.1999998       2.31035302E-09
   11.3599997       4.62002081E-09
   11.5200005       6.42597797E-09
   11.6800003       8.40857250E-09
   11.8400002       1.08209202E-08
   12.0000000       1.29051827E-08
   12.1599998       1.31324143E-08
   12.3199997       1.00321547E-08
   12.4799995       2.81075119E-09
   12.6400003      -9.00662833E-09
   12.8000002      -2.70827840E-08
   12.9600000      -5.64160629E-08
   13.1199999      -1.07383372E-07
   13.2799997      -1.97359881E-07
   13.4399996      -3.52435478E-07
   13.6000004      -6.10429936E-07
   13.7600002      -1.02643241E-06
   13.9200001      -1.68139161E-06
   14.0799999      -2.69345196E-06
   14.2399998      -4.23142546E-06
   14.3999996      -6.53026109E-06
   14.5600004      -9.90901754E-06
   14.7200003      -1.47916307E-05
   14.8800001      -2.17294255E-05
   15.0400000      -3.14223980E-05
   15.1999998      -4.47348466E-05
   15.3599997      -6.27006448E-05
   15.5200005      -8.65134789E-05
   15.6800003      -1.17497635E-04
   15.8400002      -1.57054092E-04
   16.0000000      -2.06576675E-04
   16.1599998      -2.67334079E-04
   16.3199997      -3.40316619E-04
   16.4799995      -4.26050654E-04
   16.6399994      -5.24389499E-04
   16.7999992      -6.34294527E-04
   16.9599991      -7.53628614E-04
   17.1200008      -8.78985506E-04
   17.2800007      -1.00558531E-03
   17.4400005      -1.12726539E-03
   17.6000004      -1.23659230E-03
   17.7600002      -1.32511184E-03
   17.9200001      -1.38374756E-03
   18.0799999      -1.40333746E-03
   18.2399998      -1.37528731E-03
   18.3999996      -1.29230530E-03
   18.5599995      -1.14915567E-03
   18.7199993      -9.43369057E-04
   18.8799992      -6.75833900E-04
   19.0400009      -3.51203198E-04
   19.2000008       2.19405574E-05
   19.3600006       4.31200315E-04
   19.5200005       8.60773900E-04
   19.6800003       1.29214814E-03
   19.8400002       1.70504279E-03
   20.0000000       2.07854481E-03
   20.1599998       2.39235535E-03
   20.3199997       2.62806029E-03
   20.4799995       2.77032820E-03
   20.6399994       2.80795177E-03
   20.7999992       2.73465249E-03
   20.9599991       2.54959799E-03
   21.1200008       2.25759996E-03
   21.2800007       1.86898035E-03
   21.4400005       1.39911892E-03
   21.6000004       8.67711206E-04
   21.7600002       2.97787949E-04
   21.9200001      -2.85443937E-04
   22.0799999      -8.55869846E-04
   22.2399998      -1.38777518E-03
   22.3999996      -1.85712532E-03
   22.5599995      -2.24275584E-03
   22.7199993      -2.52741436E-03
   22.8799992      -2.69861496E-03
   23.0400009      -2.74926773E-03
   23.2000008      -2.67806393E-03
   23.3600006      -2.48959730E-03
   23.5200005      -2.19421950E-03
   23.6800003      -1.80762052E-03
   23.8400002      -1.35012984E-03
   24.0000000      -8.45752773E-04
   24.1599998      -3.20958497E-04
   24.3199997       1.96728724E-04
   24.4799995       6.80279918E-04
   24.6399994       1.10477069E-03
   24.7999992       1.44895469E-03
   24.9599991       1.69668568E-03
   25.1200008       1.83805765E-03
   25.2800007       1.87014288E-03
   25.4400005       1.79722998E-03
   25.6000004       1.63050846E-03
   25.7600002       1.38720055E-03
   25.9200001       1.08918827E-03
   26.0799999       7.61248055E-04
   26.2399998       4.29044652E-04
   26.3999996       1.17081647E-04
   26.5599995      -1.53192057E-04
   26.7199993      -3.64932814E-04
   26.8799992      -5.06965735E-04
   27.0400009      -5.74277830E-04
   27.2000008      -5.67922485E-04
   27.3600006      -4.94390202E-04
   27.5200005      -3.64558393E-04
   27.6800003      -1.92374326E-04
   27.8400002       6.55662188E-06
   28.0000000       2.16312954E-04
   28.1599998       4.21797595E-04
   28.3199997       6.09591661E-04
   28.4799995       7.68490951E-04
   28.6399994       8.89752293E-04
   28.7999992       9.67119355E-04
   28.9599991       9.96724586E-04
   29.1200008       9.76960175E-04
   29.2800007       9.08394984E-04
   29.4400005       7.93780317E-04
   29.6000004       6.38145662E-04
   29.7600002       4.48942563E-04
   29.9200001       2.36151696E-04
   30.0799999       1.22504644E-05
   30.2399998      -2.08059035E-04
   30.3999996      -4.08433931E-04
   30.5599995      -5.71816694E-04
   30.7199993      -6.81681500E-04
   30.8799992      -7.23526115E-04
   31.0400009      -6.86480722E-04
   31.2000008      -5.64860005E-04
   31.3600006      -3.59471334E-04
   31.5200005      -7.84994772E-05
   31.6800003       2.62167858E-04
   31.8400002       6.39256905E-04
