  -8.00000000       0.00000000
  -7.84000015       0.00000000
  -7.67999983       0.00000000
  -7.51999998       0.00000000
  -7.36000013       0.00000000
  -7.19999981       0.00000000
  -7.03999996       0.00000000
  -6.88000011       0.00000000
  -6.71999979       0.00000000
  -6.55999994       1.01075523E-26
  -6.40000010       2.12649660E-25
  -6.23999977       3.75567684E-24
  -6.07999992       2.13574513E-23
  -5.92000008       5.54283586E-23
  -5.76000023       6.39564940E-23
  -5.59999990      -1.84509896E-23
  -5.44000006      -3.13117043E-22
  -5.28000021      -1.28242338E-21
  -5.11999989      -2.69546577E-21
  -4.96000004       8.69659144E-22
  -4.80000019       1.85871022E-20
  -4.63999987       3.49410623E-20
  -4.48000002      -1.92851424E-20
  -4.32000017      -1.76276841E-19
  -4.15999985      -2.07505831E-19
  -4.00000000       2.96794058E-19
  -3.83999991       1.07262433E-18
  -3.68000007       5.28638567E-19
  -3.51999998      -2.31309560E-18
  -3.35999990      -3.99257500E-18
  -3.20000005       1.55078001E-18
  -3.03999996       1.07794108E-17
  -2.88000011       4.69975569E-18
  -2.72000003      -2.32222487E-17
  -2.55999994      -2.65640434E-17
  -2.40000010       5.35236381E-17
  -2.24000001       1.36920202E-16
  -2.07999992      -3.31854274E-17
  -1.91999996      -5.05826741E-16
  -1.75999999      -5.87278806E-16
  -1.60000002       7.34133249E-16
  -1.44000006       2.84065035E-15
  -1.27999997       2.16578850E-15
  -1.12000000      -4.52731995E-15
 -0.959999979      -1.26235946E-14
 -0.800000012      -7.69356807E-15
 -0.639999986       1.94312746E-14
 -0.479999989       4.80378812E-14
 -0.319999993       2.80767214E-14
 -0.159999996      -6.56211129E-14
   1.66533454E-16  -1.61190749E-13
  0.159999996      -1.03999539E-13
  0.319999993       1.78454894E-13
  0.479999989       4.80607362E-13
  0.639999986       3.69747093E-13
  0.800000012      -3.76162860E-13
  0.959999979      -1.26626118E-12
   1.12000000      -1.20063410E-12
   1.27999997       5.04068683E-13
   1.44000006       2.89556812E-12
   1.60000002       3.45381904E-12
   1.75999999       1.99857722E-13
   1.91999996      -5.52838244E-12
   2.07999992      -8.62307448E-12
   2.24000001      -3.91829798E-12
   2.40000010       7.98862886E-12
   2.55999994       1.82659044E-11
   2.72000003       1.50644098E-11
   2.88000011      -5.51895248E-12
   3.03999996      -3.15068006E-11
   3.20000005      -3.95345562E-11
   3.35999990      -1.27228878E-11
   3.51999998       3.97602506E-11
   3.68000007       7.96011868E-11
   3.83999991       6.28367081E-11
   4.00000000      -2.07567470E-11
   4.15999985      -1.22813162E-10
   4.32000017      -1.56195820E-10
   4.48000002      -6.03944325E-11
   4.63999987       1.30050581E-10
   4.80000019       2.78432805E-10
   4.96000004       2.32809619E-10
   5.11999989      -3.79297045E-11
   5.28000021      -3.69763831E-10
   5.44000006      -4.85284146E-10
   5.59999990      -2.10326312E-10
   5.76000023       3.32445432E-10
   5.92000008       7.42037487E-10
   6.07999992       6.18801899E-10
   6.23999977      -7.51249965E-11
   6.40000010      -8.81825279E-10
   6.55999994      -1.12355625E-09
   6.71999979      -4.47247711E-10
   6.88000011       7.81948728E-10
   7.03999996       1.62509850E-09
   7.19999981       1.25328048E-09
   7.36000013      -3.03181147E-10
   7.51999998      -1.97921790E-09
   7.67999983      -2.35536146E-09
   7.84000015      -7.95988220E-10
   8.00000000       1.83312932E-09
   8.15999985       3.56959107E-09
   8.31999969       2.76705325E-09
   8.47999954      -4.76639894E-10
   8.64000034      -4.06523970E-09
   8.80000019      -5.23781107E-09
   8.96000004      -2.65470157E-09
   9.11999989       2.33955610E-09
   9.27999973       6.39172670E-09
   9.43999958       6.44751630E-09
   9.60000038       2.06765716E-09
   9.76000023      -4.01552835E-09
   9.92000008      -7.65107089E-09
   10.0799999      -6.18203089E-09
   10.2399998      -4.57718086E-10
   10.3999996       5.55257351E-09
   10.5600004       7.40213535E-09
   10.7200003       3.34520212E-09
   10.8800001      -4.11903844E-09
   11.0400000      -9.51984624E-09
   11.1999998      -7.86697818E-09
   11.3599997       1.87794602E-09
   11.5200005       1.56741500E-08
   11.6800003       2.65997375E-08
   11.8400002       2.91370110E-08
   12.0000000       2.26878321E-08
   12.1599998       1.16731282E-08
   12.3199997       1.68881775E-09
   12.4799995      -6.11804429E-09
   12.6400003      -1.89711482E-08
   12.8000002      -5.24137107E-08
   12.9600000      -1.27140780E-07
   13.1199999      -2.66514661E-07
   13.2799997      -4.99177702E-07
   13.4399996      -8.68899065E-07
   13.6000004      -1.45021693E-06
   13.7600002      -2.36630012E-06
   13.9200001      -3.80657048E-06
   14.0799999      -6.04532943E-06
   14.2399998      -9.46599812E-06
   14.3999996      -1.45956637E-05
   14.5600004      -2.21508271E-05
   14.7200003      -3.30900002E-05
   14.8800001      -4.86656900E-05
   15.0400000      -7.04683844E-05
   15.1999998      -1.00456731E-04
   15.3599997      -1.40967779E-04
   15.5200005      -1.94697408E-04
   15.6800003      -2.64636881E-04
   15.8400002      -3.53949319E-04
   16.0000000      -4.65773453E-04
   16.1599998      -6.02949644E-04
   16.3199997      -7.67672376E-04
   16.4799995      -9.61082173E-04
   16.6399994      -1.18281890E-03
   16.7999992      -1.43056922E-03
   16.9599991      -1.69965194E-03
   17.1200008      -1.98269333E-03
   17.2800007      -2.26945430E-03
   17.4400005      -2.54686782E-03
   17.6000004      -2.79934355E-03
   17.7600002      -3.00936727E-03
   17.9200001      -3.15840682E-03
   18.0799999      -3.22809606E-03
   18.2399998      -3.20162950E-03
   18.3999996      -3.06527014E-03
   18.5599995      -2.80985143E-03
   18.7199993      -2.43212539E-03
   18.8799992      -1.93581427E-03
   19.0400009      -1.33221585E-03
   19.2000008      -6.40254293E-04
   19.3600006       1.14101415E-04
   19.5200005       8.99061852E-04
   19.6800003       1.67882815E-03
   19.8400002       2.41587008E-03
   20.0000000       3.07348790E-03
   20.1599998       3.61844385E-03
   20.3199997       4.02342528E-03
   20.4799995       4.26911609E-03
   20.6399994       4.34567314E-03
   20.7999992       4.25345963E-03
   20.9599991       4.00295481E-03
   21.1200008       3.61384358E-03
   21.2800007       3.11337388E-03
   21.4400005       2.53414898E-03
   21.6000004       1.91156159E-03
   21.7600002       1.28111208E-03
   21.9200001       6.75840711E-04
   22.0799999       1.24096274E-04
   22.2399998      -3.52177012E-04
   22.3999996      -7.38506438E-04
   22.5599995      -1.02825486E-03
   22.7199993      -1.22229464E-03
   22.8799992      -1.32806716E-03
   23.0400009      -1.35815237E-03
   23.2000008      -1.32850325E-03
   23.3600006      -1.25652435E-03
   23.5200005      -1.15918007E-03
   23.6800003      -1.05130603E-03
   23.8400002      -9.44280357E-04
   24.0000000      -8.45163071E-04
   24.1599998      -7.56373047E-04
   24.3199997      -6.75921096E-04
   24.4799995      -5.98166836E-04
   24.6399994      -5.15015912E-04
   24.7999992      -4.17423813E-04
   24.9599991      -2.97032879E-04
   25.1200008      -1.47749248E-04
   25.2800007       3.29388458E-05
   25.4400005       2.43076036E-04
   25.6000004       4.75920679E-04
   25.7600002       7.20259326E-04
   25.9200001       9.61342885E-04
   26.0799999       1.18235196E-03
   26.2399998       1.36622589E-03
   26.3999996       1.49763236E-03
   26.5599995       1.56481960E-03
   26.7199993       1.56109058E-03
   26.8799992       1.48568267E-03
   27.0400009       1.34391303E-03
   27.2000008       1.14655495E-03
   27.3600006       9.08516871E-04
   27.5200005       6.46997185E-04
   27.6800003       3.79366014E-04
   27.8400002       1.21077675E-04
   28.0000000      -1.16071438E-04
   28.1599998      -3.25063709E-04
   28.3199997      -5.03972929E-04
   28.4799995      -6.55405049E-04
   28.6399994      -7.85136886E-04
   28.7999992      -9.00148647E-04
   28.9599991      -1.00634934E-03
   29.1200008      -1.10635976E-03
   29.2800007      -1.19773555E-03
   29.4400005      -1.27196324E-03
   29.6000004      -1.31446845E-03
   29.7600002      -1.30572740E-03
   29.9200001      -1.22342247E-03
   30.0799999      -1.04543334E-03
   30.2399998      -7.53326516E-04
   30.3999996      -3.35925259E-04
   30.5599995       2.07507401E-04
   30.7199993       8.64911417E-04
   30.8799992       1.61026383E-03
   31.0400009       2.40384438E-03
   31.2000008       3.19401152E-03
   31.3600006       3.92040797E-03
   31.5200005       4.51833801E-03
   31.6800003       4.92393877E-03
   31.8400002       5.07967919E-03
