  -8.00000000       0.00000000
  -7.84000015       0.00000000
  -7.67999983       0.00000000
  -7.51999998       0.00000000
  -7.36000013       0.00000000
  -7.19999981       0.00000000
  -7.03999996      -1.61809614E-20
  -6.88000011      -6.78796689E-20
  -6.71999979      -7.69172969E-19
  -6.55999994      -2.65402740E-18
  -6.40000010       2.11606925E-18
  -6.23999977       2.79612160E-17
  -6.07999992       3.42651760E-17
  -5.92000008      -1.20924885E-16
  -5.76000023      -4.08121491E-16
  -5.59999990      -1.19534759E-16
  -5.44000006       1.56208990E-15
  -5.28000021       2.95998522E-15
  -5.11999989      -1.18078892E-15
  -4.96000004      -1.23626593E-14
  -4.80000019      -1.58635990E-14
  -4.63999987       1.32762894E-14
  -4.48000002       6.77215716E-14
  -4.32000017       6.94105756E-14
  -4.15999985      -7.16727906E-14
  -4.00000000      -2.88137081E-13
  -3.83999991      -2.73128606E-13
  -3.68000007       2.46839794E-13
  -3.51999998       9.82426488E-13
  -3.35999990       9.62861301E-13
  -3.20000005      -5.60162864E-13
  -3.03999996      -2.72536681E-12
  -2.88000011      -2.97183155E-12
  -2.72000003       5.86015719E-13
  -2.55999994       6.01355641E-12
  -2.40000010       7.61542912E-12
  -2.24000001       1.11368846E-12
  -2.07999992      -1.01148430E-11
  -1.91999996      -1.53937661E-11
  -1.75999999      -6.39320584E-12
  -1.60000002       1.20466267E-11
  -1.44000006       2.29013787E-11
  -1.27999997       1.29115633E-11
  -1.12000000      -1.08301033E-11
 -0.959999979      -2.36771627E-11
 -0.800000012      -8.45778655E-12
 -0.639999986       2.06717143E-11
 -0.479999989       2.51988742E-11
 -0.319999993      -1.75144673E-11
 -0.159999996      -7.69241684E-11
   1.66533454E-16  -8.02658495E-11
  0.159999996       2.15001836E-11
  0.319999993       1.83920837E-10
  0.479999989       2.68730899E-10
  0.639999986       1.40979894E-10
  0.800000012      -1.95034267E-10
  0.959999979      -5.37299483E-10
   1.12000000      -5.88756821E-10
   1.27999997      -1.84881652E-10
   1.44000006       5.15819110E-10
   1.60000002       1.05995779E-09
   1.75999999       9.88649718E-10
   1.91999996       2.10093151E-10
   2.07999992      -8.45821968E-10
   2.24000001      -1.47416490E-09
   2.40000010      -1.21164079E-09
   2.55999994      -2.26161395E-10
   2.72000003       7.75374487E-10
   2.88000011       1.10223242E-09
   3.03999996       6.62204569E-10
   3.20000005       5.45993702E-11
   3.35999990       3.58525432E-11
   3.51999998       7.72222508E-10
   3.68000007       1.54071600E-09
   3.83999991       1.22428323E-09
   4.00000000      -7.11379511E-10
   4.15999985      -3.53579410E-09
   4.32000017      -5.49493206E-09
   4.48000002      -4.91318852E-09
   4.63999987      -1.38876455E-09
   4.80000019       3.82164922E-09
   4.96000004       8.54810622E-09
   5.11999989       1.10325695E-08
   5.28000021       1.08354410E-08
   5.44000006       8.68145111E-09
   5.59999990       5.46422818E-09
   5.76000023       1.23582267E-09
   5.92000008      -5.17896703E-09
   6.07999992      -1.60792801E-08
   6.23999977      -3.50284282E-08
   6.40000010      -6.78149377E-08
   6.55999994      -1.24132455E-07
   6.71999979      -2.19477087E-07
   6.88000011      -3.77176207E-07
   7.03999996      -6.31343369E-07
   7.19999981      -1.03200796E-06
   7.36000013      -1.65320159E-06
   7.51999998      -2.60380830E-06
   7.67999983      -4.04045522E-06
   7.84000015      -6.18206150E-06
   8.00000000      -9.32648527E-06
   8.15999985      -1.38700088E-05
   8.31999969      -2.03297514E-05
   8.47999954      -2.93676985E-05
   8.64000034      -4.18130803E-05
   8.80000019      -5.86781971E-05
   8.96000004      -8.11616410E-05
   9.11999989      -1.10632180E-04
   9.27999973      -1.48586943E-04
   9.43999958      -1.96578883E-04
   9.60000038      -2.56109459E-04
   9.76000023      -3.28484050E-04
   9.92000008      -4.14630922E-04
   10.0799999      -5.14888437E-04
   10.2399998      -6.28773298E-04
   10.3999996      -7.54750334E-04
   10.5600004      -8.90032621E-04
   10.7200003      -1.03044289E-03
   10.8800001      -1.17036840E-03
   11.0400000      -1.30283611E-03
   11.1999998      -1.41972781E-03
   11.3599997      -1.51214260E-03
   11.5200005      -1.57090346E-03
   11.6800003      -1.58718508E-03
   11.8400002      -1.55322440E-03
   12.0000000      -1.46305526E-03
   12.1599998      -1.31319498E-03
   12.3199997      -1.10320910E-03
   12.4799995      -8.36082967E-04
   12.6400003      -5.18354762E-04
   12.8000002      -1.59979492E-04
   12.9600000       2.26080665E-04
   13.1199999       6.24524546E-04
   13.2799997       1.01860007E-03
   13.4399996       1.39114528E-03
   13.6000004       1.72569416E-03
   13.7600002       2.00754334E-03
   13.9200001       2.22468330E-03
   14.0799999       2.36851629E-03
   14.2399998       2.43431260E-03
   14.3999996       2.42138677E-03
   14.5600004       2.33299867E-03
   14.7200003       2.17599375E-03
   14.8800001       1.96023053E-03
   15.0400000       1.69783900E-03
   15.1999998       1.40238064E-03
   15.3599997       1.08797022E-03
   15.5200005       7.68430647E-04
   15.6800003       4.56537557E-04
   15.8400002       1.63396631E-04
   16.0000000      -1.02015561E-04
   16.1599998      -3.33133969E-04
   16.3199997      -5.25905169E-04
   16.4799995      -6.78706507E-04
   16.6399994      -7.92096369E-04
   16.7999992      -8.68418021E-04
   16.9599991      -9.11296636E-04
   17.1200008      -9.25080152E-04
   17.2800007      -9.14282457E-04
   17.4400005      -8.83088447E-04
   17.6000004      -8.34978244E-04
   17.7600002      -7.72520434E-04
   17.9200001      -6.97364332E-04
   18.0799999      -6.10438525E-04
   18.2399998      -5.12329862E-04
   18.3999996      -4.03786398E-04
   18.5599995      -2.86261755E-04
   18.7199993      -1.62399359E-04
   18.8799992      -3.63534309E-05
   19.0400009       8.61430672E-05
   19.2000008       1.98018519E-04
   19.3600006       2.91420525E-04
   19.5200005       3.58552119E-04
   19.6800003       3.92700313E-04
   19.8400002       3.89334047E-04
   20.0000000       3.47121590E-04
   20.1599998       2.68709089E-04
   20.3199997       1.61120828E-04
   20.4799995       3.56815035E-05
   20.6399994      -9.25763816E-05
   20.7999992      -2.05991761E-04
   20.9599991      -2.85749586E-04
   21.1200008      -3.13609606E-04
   21.2800007      -2.73712387E-04
   21.4400005      -1.54270296E-04
   21.6000004       5.10386344E-05
   21.7600002       3.42124113E-04
   21.9200001       7.12082372E-04
   22.0799999       1.14737998E-03
   22.2399998       1.62859785E-03
   22.3999996       2.13166233E-03
   22.5599995       2.62943469E-03
   22.7199993       3.09351087E-03
   22.8799992       3.49606574E-03
   23.0400009       3.81159154E-03
   23.2000008       4.01840219E-03
   23.3600006       4.09981329E-03
   23.5200005       4.04494023E-03
   23.6800003       3.84909357E-03
   23.8400002       3.51379463E-03
   24.0000000       3.04645114E-03
   24.1599998       2.45976029E-03
   24.3199997       1.77090743E-03
   24.4799995       1.00064359E-03
   24.6399994       1.72309490E-04
   24.7999992      -6.89126609E-04
   24.9599991      -1.55797473E-03
   25.1200008      -2.40864418E-03
   25.2800007      -3.21637816E-03
   25.4400005      -3.95790208E-03
   25.6000004      -4.61200112E-03
   25.7600002      -5.16003603E-03
   25.9200001      -5.58641599E-03
   26.0799999      -5.87903196E-03
   26.2399998      -6.02965569E-03
   26.3999996      -6.03427878E-03
   26.5599995      -5.89337293E-03
   26.7199993      -5.61203063E-03
   26.8799992      -5.19995252E-03
   27.0400009      -4.67124861E-03
   27.2000008      -4.04402195E-03
   27.3600006      -3.33971786E-03
   27.5200005      -2.58225552E-03
   27.6800003      -1.79697038E-03
   27.8400002      -1.00942526E-03
   28.0000000      -2.44174269E-04
   28.1599998       4.76435293E-04
   28.3199997       1.13331934E-03
   28.4799995       1.71148183E-03
   28.6399994       2.20053224E-03
   28.7999992       2.59484746E-03
   28.9599991       2.89337058E-03
   29.1200008       3.09907296E-03
   29.2800007       3.21814464E-03
   29.4400005       3.25901574E-03
   29.6000004       3.23132752E-03
   29.7600002       3.14497505E-03
   29.9200001       3.00933444E-03
   30.0799999       2.83274893E-03
   30.2399998       2.62231706E-03
   30.3999996       2.38396856E-03
   30.5599995       2.12278496E-03
   30.7199993       1.84345979E-03
   30.8799992       1.55079842E-03
   31.0400009       1.25013338E-03
   31.2000008       9.47559194E-04
   31.3600006       6.49914553E-04
   31.5200005       3.64488660E-04
   31.6800003       9.84720828E-05
   31.8400002      -1.41771452E-04
