  -8.00000000       0.00000000
  -7.84000015       0.00000000
  -7.67999983       0.00000000
  -7.51999998       0.00000000
  -7.36000013       0.00000000
  -7.19999981      -3.52993135E-23
  -7.03999996      -3.55928075E-17
  -6.88000011      -1.97768400E-18
  -6.71999979       8.08672890E-16
  -6.55999994       2.32466202E-15
  -6.40000010      -9.44137016E-16
  -6.23999977      -1.69153157E-14
  -6.07999992      -2.81299794E-14
  -5.92000008       3.20522756E-14
  -5.76000023       1.97546433E-13
  -5.59999990       2.59526992E-13
  -5.44000006      -2.61684175E-13
  -5.28000021      -1.48577678E-12
  -5.11999989      -2.14255480E-12
  -4.96000004       2.16405642E-13
  -4.80000019       6.22653318E-12
  -4.63999987       1.08372417E-11
  -4.48000002       4.59979103E-12
  -4.32000017      -1.60254501E-11
  -4.15999985      -3.68120985E-11
  -4.00000000      -2.96728891E-11
  -3.83999991       1.96801863E-11
  -3.68000007       8.17073770E-11
  -3.51999998       9.12619702E-11
  -3.35999990       7.93669644E-12
  -3.20000005      -1.20656693E-10
  -3.03999996      -1.73121795E-10
  -2.88000011      -6.57413499E-11
  -2.72000003       1.34640896E-10
  -2.55999994       2.34021247E-10
  -2.40000010       9.28220695E-11
  -2.24000001      -1.96362648E-10
  -2.07999992      -3.42186807E-10
  -1.91999996      -1.18163548E-10
  -1.75999999       3.79049570E-10
  -1.60000002       7.49281692E-10
  -1.44000006       6.02833783E-10
  -1.27999997      -1.07858514E-10
  -1.12000000      -1.02662345E-09
 -0.959999979      -1.61461622E-09
 -0.800000012      -1.43219092E-09
 -0.639999986      -3.19640925E-10
 -0.479999989       1.48071833E-09
 -0.319999993       3.22084426E-09
 -0.159999996       3.76287446E-09
   1.66533454E-16   2.17786966E-09
  0.159999996      -1.35548650E-09
  0.319999993      -5.13701615E-09
  0.479999989      -6.74732448E-09
  0.639999986      -4.79471307E-09
  0.800000012      -2.15059262E-10
  0.959999979       4.22579083E-09
   1.12000000       6.08415451E-09
   1.27999997       5.23931076E-09
   1.44000006       3.82984444E-09
   1.60000002       4.00823996E-09
   1.75999999       5.51398216E-09
   1.91999996       5.44308332E-09
   2.07999992       7.38348660E-10
   2.24000001      -8.52930349E-09
   2.40000010      -1.78464692E-08
   2.55999994      -2.01345376E-08
   2.72000003      -9.53264934E-09
   2.88000011       1.55228079E-08
   3.03999996       5.16725365E-08
   3.20000005       9.21304988E-08
   3.35999990       1.28580055E-07
   3.51999998       1.52145390E-07
   3.68000007       1.53588360E-07
   3.83999991       1.23631452E-07
   4.00000000       5.32510782E-08
   4.15999985      -6.81422279E-08
   4.32000017      -2.59268205E-07
   4.48000002      -5.58820830E-07
   4.63999987      -1.03987895E-06
   4.80000019      -1.82313158E-06
   4.96000004      -3.08837002E-06
   5.11999989      -5.08928724E-06
   5.28000021      -8.17988166E-06
   5.44000006      -1.28584470E-05
   5.59999990      -1.98286652E-05
   5.76000023      -3.00718802E-05
   5.92000008      -4.49246763E-05
   6.07999992      -6.61604063E-05
   6.23999977      -9.60771577E-05
   6.40000010      -1.37592928E-04
   6.55999994      -1.94340362E-04
   6.71999979      -2.70742632E-04
   6.88000011      -3.72043432E-04
   7.03999996      -5.04260592E-04
   7.19999981      -6.74032082E-04
   7.36000013      -8.88324575E-04
   7.51999998      -1.15397933E-03
   7.67999983      -1.47707411E-03
   7.84000015      -1.86210009E-03
   8.00000000      -2.31097243E-03
   8.15999985      -2.82193301E-03
   8.31999969      -3.38843092E-03
   8.47999954      -3.99811612E-03
   8.64000034      -4.63208929E-03
   8.80000019      -5.26459003E-03
   8.96000004      -5.86328609E-03
   9.11999989      -6.39029406E-03
   9.27999973      -6.80401037E-03
   9.43999958      -7.06171896E-03
   9.60000038      -7.12285517E-03
   9.76000023      -6.95267506E-03
   9.92000008      -6.52599987E-03
   10.0799999      -5.83062693E-03
   10.2399998      -4.86997562E-03
   10.3999996      -3.66455549E-03
   10.5600004      -2.25195382E-03
   10.7200003      -6.85180072E-04
   10.8800001       9.70576657E-04
   11.0400000       2.64252396E-03
   11.1999998       4.25572228E-03
   11.3599997       5.73883997E-03
   11.5200005       7.02955294E-03
   11.6800003       8.07896350E-03
   11.8400002       8.85451771E-03
   12.0000000       9.34110954E-03
   12.1599998       9.54030734E-03
   12.3199997       9.46792122E-03
   12.4799995       9.15036350E-03
   12.6400003       8.62042885E-03
   12.8000002       7.91317411E-03
   12.9600000       7.06254039E-03
   13.1199999       6.09920546E-03
   13.2799997       5.04988478E-03
   13.4399996       3.93805327E-03
   13.6000004       2.78576417E-03
   13.7600002       1.61604420E-03
   13.9200001       4.55189176E-04
   14.0799999      -6.65688305E-04
   14.2399998      -1.71039859E-03
   14.3999996      -2.63899146E-03
   14.5600004      -3.41063901E-03
   14.7200003      -3.98776866E-03
   14.8800001      -4.34086006E-03
   15.0400000      -4.45314962E-03
   15.1999998      -4.32441244E-03
   15.3599997      -3.97308404E-03
   15.5200005      -3.43618146E-03
   15.6800003      -2.76679080E-03
   15.8400002      -2.02924688E-03
   16.0000000      -1.29247562E-03
   16.1599998      -6.22248335E-04
   16.3199997      -7.32914050E-05
   16.4799995       3.17748025E-04
   16.6399994       5.37560496E-04
   16.7999992       5.98942454E-04
   16.9599991       5.40662266E-04
   17.1200008       4.24360769E-04
   17.2800007       3.28764698E-04
   17.4400005       3.41800158E-04
   17.6000004       5.51418343E-04
   17.7600002       1.03607168E-03
   17.9200001       1.85578596E-03
   18.0799999       3.04468558E-03
   18.2399998       4.60565044E-03
   18.3999996       6.50756201E-03
   18.5599995       8.68534297E-03
   18.7199993       1.10427458E-02
   18.8799992       1.34576252E-02
   19.0400009       1.57892480E-02
   19.2000008       1.78870857E-02
   19.3600006       1.96004715E-02
   19.5200005       2.07884610E-02
   19.6800003       2.13292763E-02
   19.8400002       2.11287234E-02
   20.0000000       2.01270860E-02
   20.1599998       1.83040593E-02
   20.3199997       1.56814363E-02
   20.4799995       1.23233274E-02
   20.6399994       8.33387300E-03
   20.7999992       3.85253271E-03
   20.9599991      -9.52823146E-04
   21.1200008      -5.89462044E-03
   21.2800007      -1.07755680E-02
   21.4400005      -1.53993135E-02
   21.6000004      -1.95810832E-02
   21.7600002      -2.31576171E-02
   21.9200001      -2.59957481E-02
   22.0799999      -2.79990453E-02
   22.2399998      -2.91121509E-02
   22.3999996      -2.93224845E-02
   22.5599995      -2.86593493E-02
   22.7199993      -2.71905288E-02
   22.8799992      -2.50167400E-02
   23.0400009      -2.22644024E-02
   23.2000008      -1.90773178E-02
   23.3600006      -1.56078581E-02
   23.5200005      -1.20083140E-02
   23.6800003      -8.42294190E-03
   23.8400002      -4.98120766E-03
   24.0000000      -1.79255242E-03
   24.1599998       1.05712051E-03
   24.3199997       3.50719178E-03
   24.4799995       5.52237686E-03
   24.6399994       7.09126657E-03
   24.7999992       8.22364911E-03
   24.9599991       8.94693751E-03
   25.1200008       9.30206850E-03
   25.2800007       9.33922734E-03
   25.4400005       9.11369547E-03
   25.6000004       8.68207589E-03
   25.7600002       8.09909310E-03
   25.9200001       7.41507998E-03
   26.0799999       6.67419191E-03
   26.2399998       5.91333117E-03
   26.3999996       5.16170729E-03
   26.5599995       4.44091624E-03
   26.7199993       3.76543286E-03
   26.8799992       3.14337364E-03
   27.0400009       2.57744384E-03
   27.2000008       2.06595636E-03
   27.3600006       1.60387286E-03
   27.5200005       1.18381926E-03
   27.6800003       7.97064276E-04
   27.8400002       4.34458023E-04
   28.0000000       8.73291065E-05
   28.1599998      -2.51671067E-04
   28.3199997      -5.87803312E-04
   28.4799995      -9.23594809E-04
   28.6399994      -1.25836139E-03
   28.7999992      -1.58795004E-03
   28.9599991      -1.90475176E-03
   29.1200008      -2.19802372E-03
   29.2800007      -2.45453953E-03
   29.4400005      -2.65954598E-03
   29.6000004      -2.79796380E-03
   29.7600002      -2.85573862E-03
   29.9200001      -2.82121962E-03
   30.0799999      -2.68644583E-03
   30.2399998      -2.44822307E-03
   30.3999996      -2.10887659E-03
   30.5599995      -1.67660217E-03
   30.7199993      -1.16536219E-03
   30.8799992      -5.94332290E-04
   31.0400009       1.30618910E-05
   31.2000008       6.30444207E-04
   31.3600006       1.23003370E-03
   31.5200005       1.78432930E-03
   31.6800003       2.26781913E-03
   31.8400002       2.65858788E-03
