  -8.00000000       0.00000000
  -7.84000015       0.00000000
  -7.67999983       0.00000000
  -7.51999998       0.00000000
  -7.36000013       0.00000000
  -7.19999981       0.00000000
  -7.03999996       0.00000000
  -6.88000011      -6.59977875E-24
  -6.71999979       5.51347319E-23
  -6.55999994       1.22157986E-21
  -6.40000010       5.75688828E-21
  -6.23999977       1.09592505E-20
  -6.07999992       4.83477536E-21
  -5.92000008      -6.64864148E-21
  -5.76000023       2.31828126E-20
  -5.59999990       7.71226820E-20
  -5.44000006      -2.25077266E-20
  -5.28000021      -2.21788939E-19
  -5.11999989       2.09441692E-19
  -4.96000004       1.27128272E-18
  -4.80000019      -6.40088255E-20
  -4.63999987      -5.60487740E-18
  -4.48000002      -4.24667247E-18
  -4.32000017       2.17001536E-17
  -4.15999985       4.86519214E-17
  -4.00000000      -1.52069761E-17
  -3.83999991      -2.02033465E-16
  -3.68000007      -2.53253137E-16
  -3.51999998       2.71897179E-16
  -3.35999990       1.20227359E-15
  -3.20000005       1.06366798E-15
  -3.03999996      -1.70673295E-15
  -2.88000011      -5.45947421E-15
  -2.72000003      -4.02107843E-15
  -2.55999994       7.27586225E-15
  -2.40000010       2.07156358E-14
  -2.24000001       1.50367068E-14
  -2.07999992      -2.30897946E-14
  -1.91999996      -6.80147331E-14
  -1.75999999      -5.61469782E-14
  -1.60000002       5.27411807E-14
  -1.44000006       1.94143340E-13
  -1.27999997       1.99264623E-13
  -1.12000000      -5.97138712E-14
 -0.959999979      -4.67949084E-13
 -0.800000012      -6.30469364E-13
 -0.639999986      -1.54971779E-13
 -0.479999989       8.77672446E-13
 -0.319999993       1.68264827E-12
 -0.159999996       1.18755656E-12
   1.66533454E-16  -9.67078631E-13
  0.159999996      -3.57199209E-12
  0.319999993      -4.15018324E-12
  0.479999989      -8.06839133E-13
  0.639999986       5.40943288E-12
  0.800000012       9.87102240E-12
  0.959999979       7.16568471E-12
   1.12000000      -3.75121418E-12
   1.27999997      -1.63172843E-11
   1.44000006      -1.94505696E-11
   1.60000002      -6.61804249E-12
   1.75999999       1.61032489E-11
   1.91999996       3.17222255E-11
   2.07999992       2.53339589E-11
   2.24000001      -1.49482835E-12
   2.40000010      -2.92057524E-11
   2.55999994      -3.59669412E-11
   2.72000003      -1.78496402E-11
   2.88000011       6.63354267E-12
   3.03999996       1.47831625E-11
   3.20000005       4.49749526E-12
   3.35999990      -9.69000596E-13
   3.51999998       2.20315953E-11
   3.68000007       6.43189113E-11
   3.83999991       7.85760554E-11
   4.00000000       1.73843422E-11
   4.15999985      -1.11857239E-10
   4.32000017      -2.26577354E-10
   4.48000002      -2.15073584E-10
   4.63999987      -2.66823629E-11
   4.80000019       2.61709598E-10
   4.96000004       4.66057803E-10
   5.11999989       4.06987694E-10
   5.28000021       4.53312596E-11
   5.44000006      -4.55754878E-10
   5.59999990      -7.98271338E-10
   5.76000023      -7.17507609E-10
   5.92000008      -1.53695515E-10
   6.07999992       6.74590384E-10
   6.23999977       1.34253919E-09
   6.40000010       1.41313483E-09
   6.55999994       6.77273460E-10
   6.71999979      -6.66993516E-10
   6.88000011      -2.01404426E-09
   7.03999996      -2.60413446E-09
   7.19999981      -1.96760830E-09
   7.36000013      -3.05539011E-10
   7.51999998       1.52705049E-09
   7.67999983       2.56989718E-09
   7.84000015       2.53992249E-09
   8.00000000       2.21324292E-09
   8.15999985       2.91419466E-09
   8.31999969       5.27233146E-09
   8.47999954       8.10209855E-09
   8.64000034       8.34138891E-09
   8.80000019       2.22464536E-09
   8.96000004      -1.32286333E-08
   9.11999989      -3.98541999E-08
   9.27999973      -7.99890501E-08
   9.43999958      -1.39727547E-07
   9.60000038      -2.32461446E-07
   9.76000023      -3.81634322E-07
   9.92000008      -6.22973744E-07
   10.0799999      -1.00786201E-06
   10.2399998      -1.60986770E-06
   10.3999996      -2.53553594E-06
   10.5600004      -3.93908249E-06
   10.7200003      -6.03985109E-06
   10.8800001      -9.14168413E-06
   11.0400000      -1.36541848E-05
   11.1999998      -2.01160801E-05
   11.3599997      -2.92197437E-05
   11.5200005      -4.18338313E-05
   11.6800003      -5.90189666E-05
   11.8400002      -8.20301502E-05
   12.0000000      -1.12299356E-04
   12.1599998      -1.51392087E-04
   12.3199997      -2.00931841E-04
   12.4799995      -2.62488436E-04
   12.6400003      -3.37427540E-04
   12.8000002      -4.26722720E-04
   12.9600000      -5.30736754E-04
   13.1199999      -6.48985151E-04
   13.2799997      -7.79900642E-04
   13.4399996      -9.20625345E-04
   13.6000004      -1.06685993E-03
   13.7600002      -1.21280155E-03
   13.9200001      -1.35119772E-03
   14.0799999      -1.47354312E-03
   14.2399998      -1.57042942E-03
   14.3999996      -1.63205201E-03
   14.5600004      -1.64885656E-03
   14.7200003      -1.61228538E-03
   14.8800001      -1.51556847E-03
   15.0400000      -1.35448447E-03
   15.1999998      -1.12801662E-03
   15.3599997      -8.38828739E-04
   15.5200005      -4.93497879E-04
   15.6800003      -1.02456419E-04
   15.8400002       3.20378022E-04
   16.0000000       7.58281385E-04
   16.1599998       1.19267020E-03
   16.3199997       1.60424609E-03
   16.4799995       1.97423995E-03
   16.6399994       2.28564651E-03
   16.7999992       2.52433843E-03
   16.9599991       2.67995964E-03
   17.1200008       2.74653570E-03
   17.2800007       2.72275344E-03
   17.4400005       2.61190720E-03
   17.6000004       2.42153113E-03
   17.7600002       2.16276431E-03
   17.9200001       1.84951874E-03
   18.0799999       1.49753387E-03
   18.2399998       1.12340576E-03
   18.3999996       7.43658631E-04
   18.5599995       3.73915507E-04
   18.7199993       2.81961420E-05
   18.8799992      -2.81634828E-04
   19.0400009      -5.46268246E-04
   19.2000008      -7.59199844E-04
   19.3600006      -9.16838297E-04
   19.5200005      -1.01848261E-03
   19.6800003      -1.06617634E-03
   19.8400002      -1.06444629E-03
   20.0000000      -1.01992988E-03
   20.1599998      -9.40901518E-04
   20.3199997      -8.36708990E-04
   20.4799995      -7.17140560E-04
   20.6399994      -5.91751654E-04
   20.7999992      -4.69195540E-04
   20.9599991      -3.56613338E-04
   21.1200008      -2.59139517E-04
   21.2800007      -1.79575814E-04
   21.4400005      -1.18272153E-04
   21.6000004      -7.32388071E-05
   21.7600002      -4.04971652E-05
   21.9200001      -1.46519105E-05
   22.0799999       1.03597140E-05
   22.2399998       4.04119637E-05
   22.3999996       8.03158400E-05
   22.5599995       1.33021153E-04
   22.7199993       1.98990514E-04
   22.8799992       2.75832339E-04
   23.0400009       3.58261837E-04
   23.2000008       4.38427785E-04
   23.3600006       5.06603392E-04
   23.5200005       5.52193553E-04
   23.6800003       5.64970600E-04
   23.8400002       5.36415610E-04
   24.0000000       4.61016200E-04
   24.1599998       3.37359263E-04
   24.3199997       1.68868195E-04
   24.4799995      -3.59372498E-05
   24.6399994      -2.63733033E-04
   24.7999992      -4.97252855E-04
   24.9599991      -7.16678158E-04
   25.1200008      -9.01449996E-04
   25.2800007      -1.03233452E-03
   25.4400005      -1.09352532E-03
   25.6000004      -1.07454392E-03
   25.7600002      -9.71708039E-04
   25.9200001      -7.88982376E-04
   26.0799999      -5.38079825E-04
   26.2399998      -2.37765053E-04
   26.3999996       8.76114136E-05
   26.5599995       4.10227192E-04
   26.7199993       7.01357494E-04
   26.8799992       9.34147625E-04
   27.0400009       1.08631002E-03
   27.2000008       1.14246726E-03
   27.3600006       1.09589566E-03
   27.5200005       9.49476031E-04
   27.6800003       7.15741888E-04
   27.8400002       4.16000839E-04
   28.0000000       7.85996526E-05
   28.1599998      -2.63513823E-04
   28.3199997      -5.75711019E-04
   28.4799995      -8.24819726E-04
   28.6399994      -9.82189551E-04
   28.7999992      -1.02641096E-03
   28.9599991      -9.45441483E-04
   29.1200008      -7.37951894E-04
   29.2800007      -4.13774105E-04
   29.4400005       6.59516854E-06
   29.6000004       4.93401312E-04
   29.7600002       1.00983866E-03
   29.9200001       1.51487917E-03
   30.0799999       1.96649600E-03
   30.2399998       2.32502166E-03
   30.3999996       2.55637802E-03
   30.5599995       2.63492018E-03
   30.7199993       2.54566618E-03
   30.8799992       2.28573312E-03
   31.0400009       1.86485099E-03
   31.2000008       1.30491180E-03
   31.3600006       6.38585188E-04
   31.5200005      -9.28935260E-05
   31.6800003      -8.42602109E-04
   31.8400002      -1.56126020E-03
