  -8.00000000       0.00000000
  -7.84000015       0.00000000
  -7.67999983       0.00000000
  -7.51999998       0.00000000
  -7.36000013       0.00000000
  -7.19999981       0.00000000
  -7.03999996       0.00000000
  -6.88000011       1.04234977E-29
  -6.71999979       7.62337067E-23
  -6.55999994       8.64096072E-22
  -6.40000010       5.11744333E-21
  -6.23999977       1.86676828E-20
  -6.07999992       4.04988016E-20
  -5.92000008       3.47150836E-20
  -5.76000023      -7.04498483E-20
  -5.59999990      -2.59308999E-19
  -5.44000006      -2.21748614E-19
  -5.28000021       5.58374314E-19
  -5.11999989       2.01610695E-18
  -4.96000004       2.41646071E-18
  -4.80000019      -1.44199770E-18
  -4.63999987      -1.06864977E-17
  -4.48000002      -1.73263286E-17
  -4.32000017      -6.33404248E-19
  -4.15999985       5.53769892E-17
  -4.00000000       1.13260375E-16
  -3.83999991       5.01459585E-17
  -3.68000007      -2.39296310E-16
  -3.51999998      -5.71187509E-16
  -3.35999990      -3.41329661E-16
  -3.20000005       9.17673377E-16
  -3.03999996       2.36003581E-15
  -2.88000011       1.54694654E-15
  -2.72000003      -3.06928212E-15
  -2.55999994      -8.05471836E-15
  -2.40000010      -5.11803480E-15
  -2.24000001       9.65488641E-15
  -2.07999992       2.38909895E-14
  -1.91999996       1.28736895E-14
  -1.75999999      -3.06969551E-14
  -1.60000002      -6.62878362E-14
  -1.44000006      -2.58869938E-14
  -1.27999997       9.96134463E-14
  -1.12000000       1.87962479E-13
 -0.959999979       5.71680968E-14
 -0.800000012      -3.02648450E-13
 -0.639999986      -5.55918647E-13
 -0.479999989      -2.17873489E-13
 -0.319999993       7.66165343E-13
 -0.159999996       1.58582544E-12
   1.66533454E-16   9.88965420E-13
  0.159999996      -1.38991553E-12
  0.319999993      -3.91972002E-12
  0.479999989      -3.64189668E-12
  0.639999986       1.01437272E-12
  0.800000012       7.56331196E-12
  0.959999979       1.00048849E-11
   1.12000000       3.58485854E-12
   1.27999997      -9.56627312E-12
   1.44000006      -1.96788506E-11
   1.60000002      -1.61717861E-11
   1.75999999       2.40496533E-12
   1.91999996       2.44681688E-11
   2.07999992       3.29544794E-11
   2.24000001       1.93032222E-11
   2.40000010      -8.59083204E-12
   2.55999994      -3.25956206E-11
   2.72000003      -3.93179135E-11
   2.88000011      -2.91281096E-11
   3.03999996      -1.05851742E-11
   3.20000005       1.18855620E-11
   3.35999990       4.05396897E-11
   3.51999998       7.17901086E-11
   3.68000007       8.40977912E-11
   3.83999991       4.74121784E-11
   4.00000000      -4.55615996E-11
   4.15999985      -1.54396204E-10
   4.32000017      -2.03877804E-10
   4.48000002      -1.35301714E-10
   4.63999987       4.12561652E-11
   4.80000019       2.37478731E-10
   4.96000004       3.31806610E-10
   5.11999989       2.41067583E-10
   5.28000021      -2.25567412E-11
   5.44000006      -3.37562367E-10
   5.59999990      -5.13950660E-10
   5.76000023      -3.87599591E-10
   5.92000008       6.06515047E-11
   6.07999992       6.34190978E-10
   6.23999977       9.84039628E-10
   6.40000010       8.17730605E-10
   6.55999994       1.27299574E-10
   6.71999979      -7.62558017E-10
   6.88000011      -1.41533851E-09
   7.03999996      -1.61727076E-09
   7.19999981      -1.51244883E-09
   7.36000013      -1.35232769E-09
   7.51999998      -1.03051534E-09
   7.67999983       1.49188273E-10
   7.84000015       3.12252513E-09
   8.00000000       8.23532265E-09
   8.15999985       1.44772336E-08
   8.31999969       1.93453626E-08
   8.47999954       1.94401490E-08
   8.64000034       1.12795080E-08
   8.80000019      -8.47834425E-09
   8.96000004      -4.39721930E-08
   9.11999989      -1.02247505E-07
   9.27999973      -1.96151305E-07
   9.43999958      -3.47733931E-07
   9.60000038      -5.92463948E-07
   9.76000023      -9.85228212E-07
   9.92000008      -1.60942602E-06
   10.0799999      -2.59036665E-06
   10.2399998      -4.11386191E-06
   10.3999996      -6.45073533E-06
   10.5600004      -9.98796986E-06
   10.7200003      -1.52671164E-05
   10.8800001      -2.30300375E-05
   11.0400000      -3.42707717E-05
   11.1999998      -5.02906805E-05
   11.3599997      -7.27517690E-05
   11.5200005      -1.03720675E-04
   11.6800003      -1.45693033E-04
   11.8400002      -2.01584873E-04
   12.0000000      -2.74676509E-04
   12.1599998      -3.68493609E-04
   12.3199997      -4.86611272E-04
   12.4799995      -6.32371870E-04
   12.6400003      -8.08509998E-04
   12.8000002      -1.01669098E-03
   12.9600000      -1.25698023E-03
   13.1199999      -1.52727601E-03
   13.2799997      -1.82275358E-03
   13.4399996      -2.13538646E-03
   13.6000004      -2.45361240E-03
   13.7600002      -2.76222290E-03
   13.9200001      -3.04255146E-03
   14.0799999      -3.27302213E-03
   14.2399998      -3.43008921E-03
   14.3999996      -3.48957302E-03
   14.5600004      -3.42834205E-03
   14.7200003      -3.22624692E-03
   14.8800001      -2.86817108E-03
   15.0400000      -2.34601670E-03
   15.1999998      -1.66043360E-03
   15.3599997      -8.22072674E-04
   15.5200005       1.47815241E-04
   15.6800003       1.21758680E-03
   15.8400002       2.34629586E-03
   16.0000000       3.48566263E-03
   16.1599998       4.58282791E-03
   16.3199997       5.58370259E-03
   16.4799995       6.43664692E-03
   16.6399994       7.09617557E-03
   16.7999992       7.52634089E-03
   16.9599991       7.70349149E-03
   17.1200008       7.61812599E-03
   17.2800007       7.27566145E-03
   17.4400005       6.69603096E-03
   17.6000004       5.91215352E-03
   17.7600002       4.96741943E-03
   17.9200001       3.91244004E-03
   18.0799999       2.80135917E-03
   18.2399998       1.68806943E-03
   18.3999996       6.22658932E-04
   18.5599995      -3.51618306E-04
   18.7199993      -1.20062160E-03
   18.8799992      -1.90072018E-03
   19.0400009      -2.43926910E-03
   19.2000008      -2.81421491E-03
   19.3600006      -3.03296302E-03
   19.5200005      -3.11068213E-03
   19.6800003      -3.06825433E-03
   19.8400002      -2.93008285E-03
   20.0000000      -2.72194529E-03
   20.1599998      -2.46904790E-03
   20.3199997      -2.19439087E-03
   20.4799995      -1.91751565E-03
   20.6399994      -1.65365823E-03
   20.7999992      -1.41330028E-03
   20.9599991      -1.20208948E-03
   21.1200008      -1.02108438E-03
   21.2800007      -8.67279014E-04
   21.4400005      -7.34364381E-04
   21.6000004      -6.13684417E-04
   21.7600002      -4.95338056E-04
   21.9200001      -3.69379297E-04
   22.0799999      -2.27054203E-04
   22.2399998      -6.20053470E-05
   22.3999996       1.28645275E-04
   22.5599995       3.43440042E-04
   22.7199993       5.76068065E-04
   22.8799992       8.15289153E-04
   23.0400009       1.04537734E-03
   23.2000008       1.24712661E-03
   23.3600006       1.39941182E-03
   23.5200005       1.48123316E-03
   23.6800003       1.47409935E-03
   23.8400002       1.36453041E-03
   24.0000000       1.14641536E-03
   24.1599998       8.22931470E-04
   24.3199997       4.07737942E-04
   24.4799995      -7.48073799E-05
   24.6399994      -5.90592448E-04
   24.7999992      -1.09792722E-03
   24.9599991      -1.55088329E-03
   25.1200008      -1.90358085E-03
   25.2800007      -2.11507431E-03
   25.4400005      -2.15439149E-03
   25.6000004      -2.00521061E-03
   25.7600002      -1.66964799E-03
   25.9200001      -1.17066281E-03
   26.0799999      -5.52690180E-04
   26.2399998       1.19728335E-04
   26.3999996       7.65368342E-04
   26.5599995       1.29164837E-03
   26.7199993       1.60152582E-03
   26.8799992       1.60144933E-03
   27.0400009       1.20974600E-03
   27.2000008       3.64739506E-04
   27.3600006      -9.68095148E-04
   27.5200005      -2.79057981E-03
   27.6800003      -5.06840134E-03
   27.8400002      -7.73016410E-03
   28.0000000      -1.06691085E-02
   28.1599998      -1.37474677E-02
   28.3199997      -1.68032367E-02
   28.4799995      -1.96589381E-02
   28.6399994      -2.21318528E-02
   28.7999992      -2.40450818E-02
   28.9599991      -2.52387002E-02
   29.1200008      -2.55802944E-02
   29.2800007      -2.49741487E-02
   29.4400005      -2.33685467E-02
   29.6000004      -2.07606219E-02
   29.7600002      -1.71984620E-02
   29.9200001      -1.27802594E-02
   30.0799999      -7.65054487E-03
   30.2399998      -1.99362007E-03
   30.3999996       3.97536159E-03
   30.5599995       1.00212358E-02
   30.7199993       1.59009360E-02
   30.8799992       2.13761851E-02
   31.0400009       2.62260288E-02
   31.2000008       3.02584879E-02
   31.3600006       3.33205946E-02
   31.5200005       3.53062972E-02
   31.6800003       3.61617282E-02
   31.8400002       3.58875245E-02
