  -8.00000000       0.00000000
  -7.84000015       0.00000000
  -7.67999983       0.00000000
  -7.51999998       0.00000000
  -7.36000013       0.00000000
  -7.19999981       0.00000000
  -7.03999996       0.00000000
  -6.88000011       8.09706324E-27
  -6.71999979       4.53118586E-20
  -6.55999994       1.90140505E-19
  -6.40000010       1.36769390E-19
  -6.23999977      -3.13686973E-19
  -6.07999992       8.10752392E-19
  -5.92000008       4.29056102E-18
  -5.76000023      -3.39956156E-18
  -5.59999990      -3.71263177E-17
  -5.44000006      -3.54108840E-17
  -5.28000021       1.47749558E-16
  -5.11999989       4.13189024E-16
  -4.96000004       2.31516471E-17
  -4.80000019      -1.62048255E-15
  -4.63999987      -2.67447244E-15
  -4.48000002       1.40148176E-15
  -4.32000017       1.10101976E-14
  -4.15999985       1.30288118E-14
  -4.00000000      -1.19693726E-14
  -3.83999991      -5.52087977E-14
  -3.68000007      -5.36088880E-14
  -3.51999998       5.89458292E-14
  -3.35999990       2.22697688E-13
  -3.20000005       2.00797156E-13
  -3.03999996      -2.03106493E-13
  -2.88000011      -7.50572293E-13
  -2.72000003      -7.00606619E-13
  -2.55999994       4.92268390E-13
  -2.40000010       2.13449614E-12
  -2.24000001       2.23799169E-12
  -2.07999992      -6.59914235E-13
  -1.91999996      -5.03549372E-12
  -1.75999999      -6.29224277E-12
  -1.60000002      -7.10907299E-13
  -1.44000006       9.33777881E-12
  -1.27999997       1.48416834E-11
  -1.12000000       7.25632965E-12
 -0.959999979      -1.16954788E-11
 -0.800000012      -2.76391392E-11
 -0.639999986      -2.38045174E-11
 -0.479999989       3.10899375E-12
 -0.319999993       3.61618166E-11
 -0.159999996       4.89381556E-11
   1.66533454E-16   2.65313188E-11
  0.159999996      -2.07237300E-11
  0.319999993      -6.26188060E-11
  0.479999989      -6.95084823E-11
  0.639999986      -3.25492341E-11
  0.800000012       2.96810042E-11
  0.959999979       8.14242285E-11
   1.12000000       9.07749917E-11
   1.27999997       5.02806026E-11
   1.44000006      -1.59944280E-11
   1.60000002      -6.76681627E-11
   1.75999999      -7.91599633E-11
   1.91999996      -6.18279733E-11
   2.07999992      -5.12416221E-11
   2.24000001      -6.29301541E-11
   2.40000010      -5.88055091E-11
   2.55999994       2.88318171E-11
   2.72000003       2.18411955E-10
   2.88000011       4.13921314E-10
   3.03999996       4.34129677E-10
   3.20000005       1.45219614E-10
   3.35999990      -3.96385175E-10
   3.51999998      -9.19955390E-10
   3.68000007      -1.08503317E-09
   3.83999991      -7.05990821E-10
   4.00000000       1.11024405E-10
   4.15999985       1.02706754E-09
   4.32000017       1.67507208E-09
   4.48000002       1.83804072E-09
   4.63999987       1.46342694E-09
   4.80000019       5.52920265E-10
   4.96000004      -8.82049156E-10
   5.11999989      -2.66541389E-09
   5.28000021      -4.22913038E-09
   5.44000006      -4.65107242E-09
   5.59999990      -3.16043858E-09
   5.76000023       1.61784419E-10
   5.92000008       4.14593648E-09
   6.07999992       7.21635329E-09
   6.23999977       8.65357475E-09
   6.40000010       9.37626154E-09
   6.55999994       1.13324274E-08
   6.71999979       1.56727218E-08
   6.88000011       2.09855493E-08
   7.03999996       2.28961099E-08
   7.19999981       1.50927963E-08
   7.36000013      -9.59853885E-09
   7.51999998      -5.98010388E-08
   7.67999983      -1.48519391E-07
   7.84000015      -2.97839676E-07
   8.00000000      -5.44664601E-07
   8.15999985      -9.47925514E-07
   8.31999969      -1.59904209E-06
   8.47999954      -2.63766333E-06
   8.64000034      -4.27383384E-06
   8.80000019      -6.81683059E-06
   8.96000004      -1.07111000E-05
   9.11999989      -1.65806159E-05
   9.27999973      -2.52832979E-05
   9.43999958      -3.79755802E-05
   9.60000038      -5.61840207E-05
   9.76000023      -8.18773333E-05
   9.92000008      -1.17529773E-04
   10.0799999      -1.66164478E-04
   10.2399998      -2.31363840E-04
   10.3999996      -3.17229162E-04
   10.5600004      -4.28270258E-04
   10.7200003      -5.69202879E-04
   10.8800001      -7.44636694E-04
   11.0400000      -9.58644494E-04
   11.1999998      -1.21421623E-03
   11.3599997      -1.51261478E-03
   11.5200005      -1.85266428E-03
   11.6800003      -2.23002373E-03
   11.8400002      -2.63650925E-03
   12.0000000      -3.05956160E-03
   12.1599998      -3.48194689E-03
   12.3199997      -3.88179510E-03
   12.4799995      -4.23305156E-03
   12.6400003      -4.50640637E-03
   12.8000002      -4.67072381E-03
   12.9600000      -4.69494006E-03
   13.1199999      -4.55036154E-03
   13.2799997      -4.21320600E-03
   13.4399996      -3.66720906E-03
   13.6000004      -2.90603726E-03
   13.7600002      -1.93526654E-03
   13.9200001      -7.73675216E-04
   14.0799999       5.46354917E-04
   14.2399998       1.97948213E-03
   14.3999996       3.46916099E-03
   14.5600004       4.95047821E-03
   14.7200003       6.35391474E-03
   14.8800001       7.60977622E-03
   15.0400000       8.65293387E-03
   15.1999998       9.42748599E-03
   15.3599997       9.89092328E-03
   15.5200005       1.00174025E-02
   15.6800003       9.79983713E-03
   15.8400002       9.25057568E-03
   16.0000000       8.40058643E-03
   16.1599998       7.29721598E-03
   16.3199997       6.00072183E-03
   16.4799995       4.57988866E-03
   16.6399994       3.10713286E-03
   16.7999992       1.65351573E-03
   16.9599991       2.84100359E-04
   17.1200008      -9.45988577E-04
   17.2800007      -1.99450599E-03
   17.4400005      -2.83385324E-03
   17.6000004      -3.45160486E-03
   17.7600002      -3.84984538E-03
   17.9200001      -4.04347060E-03
   18.0799999      -4.05767933E-03
   18.2399998      -3.92493606E-03
   18.3999996      -3.68170300E-03
   18.5599995      -3.36522143E-03
   18.7199993      -3.01060267E-03
   18.8799992      -2.64843297E-03
   19.0400009      -2.30303197E-03
   19.2000008      -1.99145311E-03
   19.3600006      -1.72323629E-03
   19.5200005      -1.50087394E-03
   19.6800003      -1.32089143E-03
   19.8400002      -1.17539952E-03
   20.0000000      -1.05394097E-03
   20.1599998      -9.45429900E-04
   20.3199997      -8.39984044E-04
   20.4799995      -7.30451604E-04
   20.6399994      -6.13467942E-04
   20.7999992      -4.89914499E-04
   20.9599991      -3.64717504E-04
   21.1200008      -2.45996285E-04
   21.2800007      -1.43654004E-04
   21.4400005      -6.75793053E-05
   21.6000004      -2.56929070E-05
   21.7600002      -2.21134997E-05
   21.9200001      -5.57287858E-05
   22.0799999      -1.19429882E-04
   22.2399998      -2.00208291E-04
   22.3999996      -2.80222885E-04
   22.5599995      -3.38830258E-04
   22.7199993      -3.55439406E-04
   22.8799992      -3.12919961E-04
   23.0400009      -2.01177521E-04
   23.2000008      -2.04436874E-05
   23.3600006       2.16181492E-04
   23.5200005       4.81355150E-04
   23.6800003       7.33610301E-04
   23.8400002       9.19166079E-04
   24.0000000       9.75456205E-04
   24.1599998       8.36208172E-04
   24.3199997       4.37708397E-04
   24.4799995      -2.74273567E-04
   24.6399994      -1.33753277E-03
   24.7999992      -2.76711932E-03
   24.9599991      -4.55032941E-03
   25.1200008      -6.64359098E-03
   25.2800007      -8.97168089E-03
   25.4400005      -1.14295492E-02
   25.6000004      -1.38867674E-02
   25.7600002      -1.61944199E-02
   25.9200001      -1.81939919E-02
   26.0799999      -1.97276771E-02
   26.2399998      -2.06493363E-02
   26.3999996      -2.08353195E-02
   26.5599995      -2.01942250E-02
   26.7199993      -1.86748970E-02
   26.8799992      -1.62719321E-02
   27.0400009      -1.30282864E-02
   27.2000008      -9.03467927E-03
   27.3600006      -4.42580599E-03
   27.5200005       6.26389054E-04
   27.6800003       5.92192449E-03
   27.8400002       1.12438118E-02
   28.0000000       1.63701158E-02
   28.1599998       2.10862048E-02
   28.3199997       2.51964033E-02
   28.4799995       2.85342261E-02
   28.6399994       3.09706181E-02
   28.7999992       3.24197374E-02
   28.9599991       3.28420326E-02
   29.1200008       3.22446190E-02
   29.2800007       3.06790248E-02
   29.4400005       2.82366686E-02
   29.6000004       2.50424221E-02
   29.7600002       2.12468430E-02
   29.9200001       1.70175787E-02
   30.0799999       1.25304824E-02
   30.2399998       7.96094909E-03
   30.3999996       3.47595220E-03
   30.5599995      -7.72872008E-04
   30.7199993      -4.65476187E-03
   30.8799992      -8.06380901E-03
   31.0400009      -1.09212995E-02
   31.2000008      -1.31764216E-02
   31.3600006      -1.48054697E-02
   31.5200005      -1.58097427E-02
   31.6800003      -1.62124448E-02
   31.8400002      -1.60549078E-02
