  -8.00000000       0.00000000
  -7.84000015       0.00000000
  -7.67999983       0.00000000
  -7.51999998       0.00000000
  -7.36000013       0.00000000
  -7.19999981      -3.09533968E-23
  -7.03999996       9.49621955E-18
  -6.88000011      -1.24175336E-17
  -6.71999979      -3.24663176E-16
  -6.55999994      -7.18366049E-16
  -6.40000010       2.16436844E-15
  -6.23999977       1.40201808E-14
  -6.07999992       2.49264178E-14
  -5.92000008      -1.67411776E-14
  -5.76000023      -1.66198733E-13
  -5.59999990      -3.13948710E-13
  -5.44000006      -5.06757349E-14
  -5.28000021       9.90522876E-13
  -5.11999989       2.18160255E-12
  -4.96000004       1.39029109E-12
  -4.80000019      -3.27944789E-12
  -4.63999987      -9.60274742E-12
  -4.48000002      -9.53828336E-12
  -4.32000017       4.67022601E-12
  -4.15999985       2.81729171E-11
  -4.00000000       3.82208189E-11
  -3.83999991       1.01538283E-11
  -3.68000007      -5.11318349E-11
  -3.51999998      -9.65092936E-11
  -3.35999990      -6.54196558E-11
  -3.20000005       4.81396450E-11
  -3.03999996       1.61699168E-10
  -2.88000011       1.59388808E-10
  -2.72000003       8.27413658E-12
  -2.55999994      -1.77032597E-10
  -2.40000010      -2.14166421E-10
  -2.24000001      -3.23314917E-11
  -2.07999992       2.20425705E-10
  -1.91999996       2.78544604E-10
  -1.75999999       1.01777831E-11
  -1.60000002      -4.11275486E-10
  -1.44000006      -6.02766559E-10
  -1.27999997      -2.83840312E-10
  -1.12000000       4.54236593E-10
 -0.959999979       1.15781351E-09
 -0.800000012       1.30152633E-09
 -0.639999986       6.43293196E-10
 -0.479999989      -5.98323502E-10
 -0.319999993      -1.83740889E-09
 -0.159999996      -2.41107156E-09
   1.66533454E-16  -1.91660332E-09
  0.159999996      -4.44884851E-10
  0.319999993       1.40974687E-09
  0.479999989       2.81024226E-09
  0.639999986       3.11584669E-09
  0.800000012       2.25939911E-09
  0.959999979       7.98975053E-10
   1.12000000      -4.47096415E-10
   1.27999997      -9.87430471E-10
   1.44000006      -1.06843046E-09
   1.60000002      -1.54926572E-09
   1.75999999      -3.18957061E-09
   1.91999996      -5.73651393E-09
   2.07999992      -7.49065876E-09
   2.24000001      -5.88615645E-09
   2.40000010       1.02321551E-09
   2.55999994       1.30543585E-08
   2.72000003       2.74862888E-08
   2.88000011       4.01981275E-08
   3.03999996       4.75884399E-08
   3.20000005       4.77690811E-08
   3.35999990       3.99726368E-08
   3.51999998       2.23882637E-08
   3.68000007      -1.04657918E-08
   3.83999991      -7.01184959E-08
   4.00000000      -1.76880718E-07
   4.15999985      -3.64505098E-07
   4.32000017      -6.88050591E-07
   4.48000002      -1.23522966E-06
   4.63999987      -2.14130455E-06
   4.80000019      -3.60903186E-06
   4.96000004      -5.93737241E-06
   5.11999989      -9.56388976E-06
   5.28000021      -1.51246859E-05
   5.44000006      -2.35332700E-05
   5.59999990      -3.60779013E-05
   5.76000023      -5.45372422E-05
   5.92000008      -8.13153820E-05
   6.07999992      -1.19596341E-04
   6.23999977      -1.73512686E-04
   6.40000010      -2.48311902E-04
   6.55999994      -3.50492832E-04
   6.71999979      -4.87874117E-04
   6.88000011      -6.69553643E-04
   7.03999996      -9.05715860E-04
   7.19999981      -1.20724691E-03
   7.36000013      -1.58512138E-03
   7.51999998      -2.04953249E-03
   7.67999983      -2.60875793E-03
   7.84000015      -3.26778507E-03
   8.00000000      -4.02675709E-03
   8.15999985      -4.87934798E-03
   8.31999969      -5.81121258E-03
   8.47999954      -6.79869438E-03
   8.64000034      -7.80797889E-03
   8.80000019      -8.79491586E-03
   8.96000004      -9.70567390E-03
   9.11999989      -1.04783801E-02
   9.27999973      -1.10458033E-02
   9.43999958      -1.13390591E-02
   9.60000038      -1.12921866E-02
   9.76000023      -1.08473720E-02
   9.92000008      -9.96042136E-03
   10.0799999      -8.60605855E-03
   10.2399998      -6.78255549E-03
   10.3999996      -4.51516826E-03
   10.5600004      -1.85791706E-03
   10.7200003       1.10664661E-03
   10.8800001       4.26992588E-03
   11.0400000       7.50204735E-03
   11.1999998       1.06587419E-02
   11.3599997       1.35899521E-02
   11.5200005       1.61495712E-02
   11.6800003       1.82055701E-02
   11.8400002       1.96496770E-02
   12.0000000       2.04057004E-02
   12.1599998       2.04357449E-02
   12.3199997       1.97436530E-02
   12.4799995       1.83752514E-02
   12.6400003       1.64152756E-02
   12.8000002       1.39811561E-02
   12.9600000       1.12141669E-02
   13.1199999       8.26868601E-03
   13.2799997       5.30055445E-03
   13.4399996       2.45562149E-03
   13.6000004      -1.40469114E-04
   13.7600002      -2.39029457E-03
   13.9200001      -4.22976771E-03
   14.0799999      -5.62995579E-03
   14.2399998      -6.59557013E-03
   14.3999996      -7.16044102E-03
   14.5600004      -7.38062803E-03
   14.7200003      -7.32604461E-03
   14.8800001      -7.07160728E-03
   15.0400000      -6.68893568E-03
   15.1999998      -6.23950502E-03
   15.3599997      -5.76992473E-03
   15.5200005      -5.30971261E-03
   15.6800003      -4.87161940E-03
   15.8400002      -4.45420854E-03
   16.0000000      -4.04617004E-03
   16.1599998      -3.63162975E-03
   16.3199997      -3.19566275E-03
   16.4799995      -2.72923126E-03
   16.6399994      -2.23289127E-03
   16.7999992      -1.71881658E-03
   16.9599991      -1.21093390E-03
   17.1200008      -7.43200828E-04
   17.2800007      -3.56301520E-04
   17.4400005      -9.31964605E-05
   17.6000004       5.91908702E-06
   17.7600002      -9.13352269E-05
   17.9200001      -4.05019062E-04
   18.0799999      -9.39371472E-04
   18.2399998      -1.68064900E-03
   18.3999996      -2.59648613E-03
   18.5599995      -3.63681139E-03
   18.7199993      -4.73622186E-03
   18.8799992      -5.81761589E-03
   19.0400009      -6.79679448E-03
   19.2000008      -7.58770760E-03
   19.3600006      -8.10799003E-03
   19.5200005      -8.28443840E-03
   19.6800003      -8.05810280E-03
   19.8400002      -7.38870259E-03
   20.0000000      -6.25809608E-03
   20.1599998      -4.67260880E-03
   20.3199997      -2.66402634E-03
   20.4799995      -2.89146003E-04
   20.6399994       2.37215590E-03
   20.7999992       5.22029772E-03
   20.9599991       8.14068690E-03
   21.1200008       1.10095330E-02
   21.2800007       1.37004824E-02
   21.4400005       1.60916932E-02
   21.6000004       1.80728808E-02
   21.7600002       1.95518918E-02
   21.9200001       2.04602946E-02
   22.0799999       2.07575820E-02
   22.2399998       2.04336122E-02
   22.3999996       1.95090901E-02
   22.5599995       1.80339832E-02
   22.7199993       1.60840154E-02
   22.8799992       1.37554798E-02
   23.0400009       1.11587616E-02
   23.2000008       8.41112062E-03
   23.3600006       5.62929781E-03
   23.5200005       2.92253261E-03
   23.6800003       3.86542408E-04
   23.8400002      -1.90111948E-03
   24.0000000      -3.88403516E-03
   24.1599998      -5.52809751E-03
   24.3199997      -6.82094041E-03
   24.4799995      -7.76981656E-03
   24.6399994      -8.39824323E-03
   24.7999992      -8.74182954E-03
   24.9599991      -8.84373114E-03
   25.1200008      -8.75016768E-03
   25.2800007      -8.50638654E-03
   25.4400005      -8.15338269E-03
   25.6000004      -7.72556476E-03
   25.7600002      -7.24947033E-03
   25.9200001      -6.74349861E-03
   26.0799999      -6.21857261E-03
   26.2399998      -5.67953056E-03
   26.3999996      -5.12704253E-03
   26.5599995      -4.55980469E-03
   26.7199993      -3.97675391E-03
   26.8799992      -3.37908440E-03
   27.0400009      -2.77186185E-03
   27.2000008      -2.16508238E-03
   27.3600006      -1.57408172E-03
   27.5200005      -1.01924140E-03
   27.6800003      -5.25003939E-04
   27.8400002      -1.18259064E-04
   28.0000000       1.73777575E-04
   28.1599998       3.26026493E-04
   28.3199997       3.18141101E-04
   28.4799995       1.37009833E-04
   28.6399994      -2.21075403E-04
   28.7999992      -7.48813967E-04
   28.9599991      -1.42704742E-03
   29.1200008      -2.22480693E-03
   29.2800007      -3.10032489E-03
   29.4400005      -4.00299532E-03
   29.6000004      -4.87619312E-03
   29.7600002      -5.66076813E-03
   29.9200001      -6.29896251E-03
   30.0799999      -6.73844991E-03
   30.2399998      -6.93615712E-03
   30.3999996      -6.86156843E-03
   30.5599995      -6.49922993E-03
   30.7199993      -5.85025782E-03
   30.8799992      -4.93269833E-03
   31.0400009      -3.78071098E-03
   31.2000008      -2.44262163E-03
   31.3600006      -9.77998716E-04
   31.5200005       5.46020339E-04
   31.6800003       2.05887901E-03
   31.8400002       3.49093159E-03
