  -4.80000019       0.00000000
  -4.76000023       0.00000000
  -4.71999979       0.00000000
  -4.67999983       0.00000000
  -4.63999987       0.00000000
  -4.59999990       0.00000000
  -4.55999994       0.00000000
  -4.51999998       0.00000000
  -4.48000002       0.00000000
  -4.44000006       0.00000000
  -4.40000010       0.00000000
  -4.36000013       0.00000000
  -4.32000017       0.00000000
  -4.28000021       0.00000000
  -4.23999977       0.00000000
  -4.19999981       0.00000000
  -4.15999985       0.00000000
  -4.11999989       0.00000000
  -4.07999992      -0.00000000
  -4.03999996      -1.40129846E-45
  -4.00000000      -9.80908925E-45
  -3.96000004      -6.16571324E-44
  -3.92000008      -3.16693453E-43
  -3.88000011      -1.46715949E-42
  -3.83999991      -6.13348338E-42
  -3.79999995      -2.35978661E-41
  -3.75999999      -8.42334520E-41
  -3.72000003      -2.80235871E-40
  -3.68000007      -8.73404109E-40
  -3.64000010      -2.56219717E-39
  -3.59999990      -7.10335428E-39
  -3.55999994      -1.86754297E-38
  -3.51999998      -4.66996754E-38
  -3.48000002      -1.11347198E-37
  -3.44000006      -2.53674012E-37
  -3.40000010      -5.53158690E-37
  -3.35999990      -1.15608836E-36
  -3.31999993      -2.31812648E-36
  -3.27999997      -4.46239330E-36
  -3.24000001      -8.24882498E-36
  -3.20000005      -1.46394132E-35
  -3.16000009      -2.49252557E-35
  -3.11999989      -4.06546845E-35
  -3.07999992      -6.33700223E-35
  -3.03999996      -9.40325628E-35
  -3.00000000      -1.32008911E-34
  -2.96000004      -1.73533605E-34
  -2.92000008      -2.09688562E-34
  -2.88000011      -2.24182109E-34
  -2.83999991      -1.91587143E-34
  -2.79999995      -7.71793545E-35
  -2.75999999       1.59993437E-34
  -2.72000003       5.58881947E-34
  -2.68000007       1.14131382E-33
  -2.64000010       1.88930521E-33
  -2.59999990       2.71638212E-33
  -2.55999994       3.43806861E-33
  -2.51999998       3.75130149E-33
  -2.48000002       3.23720602E-33
  -2.44000006       1.40466726E-33
  -2.40000010      -2.20898292E-33
  -2.35999990      -7.87173245E-33
  -2.31999993      -1.54333460E-32
  -2.27999997      -2.40783179E-32
  -2.24000001      -3.21202832E-32
  -2.20000005      -3.69321987E-32
  -2.16000009      -3.51221902E-32
  -2.11999989      -2.30525213E-32
  -2.07999992       2.25393530E-33
  -2.03999996       4.18755286E-32
  -2.00000000       9.36161232E-32
  -1.96000004       1.50836590E-31
  -1.91999996       2.01954796E-31
  -1.88000000       2.31099157E-31
  -1.84000003       2.20275134E-31
  -1.79999995       1.53099311E-31
  -1.75999999       1.96896038E-32
  -1.72000003      -1.78233308E-31
  -1.67999995      -4.23426325E-31
  -1.63999999      -6.81930275E-31
  -1.60000002      -9.05819208E-31
  -1.55999994      -1.04021978E-30
  -1.51999998      -1.03356573E-30
  -1.48000002      -8.48578839E-31
  -1.44000006      -4.70427338E-31
  -1.39999998       9.14076574E-32
  -1.36000001       8.09335384E-31
  -1.32000005       1.65030210E-30
  -1.27999997       2.58881453E-30
  -1.24000001       3.61031931E-30
  -1.20000005       4.69363722E-30
  -1.15999997       5.76486353E-30
  -1.12000000       6.62529305E-30
  -1.08000004       6.87196104E-30
  -1.03999996       5.84787525E-30
  -1.00000000       2.67320995E-30
 -0.959999979      -3.59010494E-30
 -0.920000017      -1.36087113E-29
 -0.879999995      -2.72984229E-29
 -0.839999974      -4.32811197E-29
 -0.800000012      -5.84430122E-29
 -0.759999990      -6.78214605E-29
 -0.720000029      -6.50583769E-29
 -0.680000007      -4.35869784E-29
 -0.639999986       1.45305443E-30
 -0.600000024       7.08343371E-29
 -0.560000002       1.58949984E-28
 -0.519999981       2.52400943E-28
 -0.479999989       3.30316317E-28
 -0.439999998       3.67042838E-28
 -0.400000006       3.37297982E-28
 -0.360000014       2.23056873E-28
 -0.319999993       2.05394621E-29
 -0.280000001      -2.55023915E-28
 -0.239999995      -5.69245669E-28
 -0.200000003      -8.74598588E-28
 -0.159999996      -1.12224660E-27
 -0.119999997      -1.27665120E-27
  -7.99999982E-02  -1.32717547E-27
  -3.99999991E-02  -1.28925333E-27
   2.77555756E-16  -1.18846922E-27
   3.99999991E-02  -1.02525436E-27
   7.99999982E-02  -7.25976163E-28
  0.119999997      -9.71140545E-29
  0.159999996       1.19027767E-27
  0.200000003       3.55256961E-27
  0.239999995       7.35346477E-27
  0.280000001       1.26616019E-26
  0.319999993       1.89326694E-26
  0.360000014       2.46904727E-26
  0.400000006       2.73349980E-26
  0.439999998       2.32427558E-26
  0.479999989       8.32672884E-27
  0.519999981      -2.08327010E-26
  0.560000002      -6.53062321E-26
  0.600000024      -1.21804204E-25
  0.639999986      -1.80801718E-25
  0.680000007      -2.25507378E-25
  0.720000029      -2.32525133E-25
  0.759999990      -1.75018270E-25
  0.800000012      -2.88694310E-26
  0.839999974       2.18313656E-25
  0.879999995       5.56443205E-25
  0.920000017       9.42664228E-25
  0.959999979       1.29482702E-24
   1.00000000       1.49267945E-24
   1.03999996       1.39063842E-24
   1.08000004       8.44742234E-25
   1.12000000      -2.46225823E-25
   1.15999997      -1.88937097E-24
   1.20000005      -3.94481926E-24
   1.24000001      -6.08490186E-24
   1.27999997      -7.78258615E-24
   1.32000005      -8.34709580E-24
   1.36000001      -7.02123913E-24
   1.39999998      -3.14597275E-24
   1.44000006       3.61693277E-24
   1.48000002       1.30326180E-23
   1.51999998       2.40613383E-23
   1.55999994       3.47163516E-23
   1.60000002       4.20917025E-23
   1.63999999       4.26364489E-23
   1.67999995       3.27271979E-23
   1.72000003       9.54179093E-24
   1.75999999      -2.78365821E-23
   1.79999995      -7.72470584E-23
   1.84000003      -1.32467492E-22
   1.88000000      -1.82754888E-22
   1.91999996      -2.13277469E-22
   1.96000004      -2.06764331E-22
   2.00000000      -1.46555879E-22
   2.03999996      -2.09831321E-23
   2.07999992       1.71357893E-22
   2.11999989       4.16300959E-22
   2.16000009       6.80054494E-22
   2.20000005       9.07993493E-22
   2.24000001       1.02794922E-21
   2.27999997       9.59340689E-22
   2.31999993       6.28684680E-22
   2.35999990      -9.28002874E-24
   2.40000010      -9.47361312E-22
   2.44000006      -2.10302532E-21
   2.48000002      -3.30305174E-21
   2.51999998      -4.28296794E-21
   2.55999994      -4.70824904E-21
   2.59999990      -4.22215886E-21
   2.64000010      -2.52085978E-21
   2.68000007       5.49964440E-22
   2.72000003       4.89054785E-21
   2.75999999       1.00561510E-20
   2.79999995       1.52078707E-20
   2.83999991       1.91354696E-20
   2.88000011       2.03786203E-20
   2.92000008       1.74608748E-20
   2.96000004       9.22970874E-21
   3.00000000      -4.73217669E-21
   3.03999996      -2.36910893E-20
   3.07999992      -4.54387759E-20
   3.11999989      -6.61763166E-20
   3.16000009      -8.07205041E-20
   3.20000005      -8.31194830E-20
   3.24000001      -6.77040481E-20
   3.27999997      -3.05091772E-20
   3.31999993       2.91116265E-20
   3.35999990       1.06975785E-19
   3.40000010       1.93054507E-19
   3.44000006       2.71381648E-19
   3.48000002       3.21279095E-19
   3.51999998       3.20138801E-19
   3.55999994       2.47741059E-19
   3.59999990       9.17278547E-20
   3.64000010      -1.46558620E-19
   3.68000007      -4.47045885E-19
   3.72000003      -7.68146955E-19
   3.75999999      -1.04769600E-18
   3.79999995      -1.20879160E-18
   3.83999991      -1.17108529E-18
   3.88000011      -8.67038259E-19
   3.92000008      -2.61395924E-19
   3.96000004       6.29217370E-19
   4.00000000       1.72081464E-18
   4.03999996       2.85551764E-18
   4.07999992       3.80859845E-18
   4.11999989       4.31236881E-18
   4.15999985       4.09770800E-18
   4.19999981       2.95051706E-18
   4.23999977       7.76202247E-19
   4.28000021      -2.33870222E-18
   4.32000017      -6.08177638E-18
   4.36000013      -9.90194419E-18
   4.40000010      -1.30421137E-17
   4.44000006      -1.46255095E-17
   4.48000002      -1.37955594E-17
   4.51999998      -9.89792906E-18
   4.55999994      -2.68093662E-18
   4.59999990       7.52075922E-18
   4.63999987       1.96621526E-17
   4.67999983       3.19676719E-17
   4.71999979       4.20515694E-17
   4.76000023       4.71987570E-17
   4.80000019       4.47993013E-17
   4.84000015       3.28974362E-17
   4.88000011       1.07805035E-17
   4.92000008      -2.04963643E-17
   4.96000004      -5.77728549E-17
   5.00000000      -9.57552880E-17
   5.03999996      -1.27394616E-16
   5.07999992      -1.44716333E-16
   5.11999989      -1.40072925E-16
   5.15999985      -1.07699379E-16
   5.19999981      -4.53597591E-17
   5.23999977       4.42042110E-17
   5.28000021       1.52353328E-16
   5.32000017       2.64482994E-16
   5.36000013       3.61054623E-16
   5.40000010       4.19836115E-16
   5.44000006       4.19260318E-16
   5.48000002       3.42579511E-16
   5.51999998       1.82258356E-16
   5.55999994      -5.61410592E-17
   5.59999990      -3.51431111E-16
   5.63999987      -6.66442664E-16
   5.67999983      -9.50469011E-16
   5.71999979      -1.14478758E-15
   5.76000023      -1.19104363E-15
   5.80000019      -1.04171288E-15
   5.84000015      -6.71292034E-16
   5.88000011      -8.64037531E-17
   5.92000008       6.67244646E-16
   5.96000004       1.50304493E-15
   6.00000000       2.29837710E-15
   6.03999996       2.90695588E-15
   6.07999992       3.17825608E-15
   6.11999989       2.98231195E-15
   6.15999985       2.23685858E-15
   6.19999981       9.32686084E-16
   6.23999977      -8.47552020E-16
   6.28000021      -2.92177366E-15
   6.32000017      -5.01597495E-15
   6.36000013      -6.78890724E-15
   6.40000010      -7.87357867E-15
   6.44000006      -7.93230177E-15
   6.48000002      -6.71904100E-15
   6.51999998      -4.14026232E-15
   6.55999994      -3.03835192E-16
   6.59999990       4.45457465E-15
   6.63999987       9.57676626E-15
   6.67999983       1.43246180E-14
   6.71999979       1.78608417E-14
   6.76000023       1.93625582E-14
   6.80000019       1.81559717E-14
   6.84000015       1.38545918E-14
   6.88000011       6.47958648E-15
   6.92000008      -3.46069795E-15
   6.96000004      -1.49526726E-14
   7.00000000      -2.65357669E-14
   7.03999996      -3.64424779E-14
   7.07999992      -4.28137140E-14
   7.11999989      -4.39698056E-14
   7.15999985      -3.87050113E-14
   7.19999981      -2.65638612E-14
   7.23999977      -8.05292858E-15
   7.28000021       1.52568134E-14
   7.32000017       4.07726966E-14
   7.36000013       6.50875228E-14
   7.40000010       8.43486183E-14
   7.44000006       9.47604218E-14
   7.48000002       9.31672274E-14
   7.51999998       7.76405036E-14
   7.55999994       4.79826580E-14
   7.59999990       6.05566766E-15
   7.63999987      -4.41439691E-14
   7.67999983      -9.67179082E-14
   7.71999979      -1.44422004E-13
   7.76000023      -1.79514742E-13
   7.80000019      -1.94817727E-13
   7.84000015      -1.84864006E-13
   7.88000011      -1.46975463E-13
   7.92000008      -8.20974622E-14
   7.96000004       4.77027865E-15
   8.00000000       1.04674732E-13
   8.03999996       2.05407062E-13
   8.07999992       2.92783782E-13
   8.11999989       3.52408830E-13
   8.15999985       3.71727009E-13
   8.19999981       3.42108205E-13
   8.23999977       2.60659739E-13
   8.27999973       1.31460421E-13
   8.31999969      -3.40466757E-14
   8.35999966      -2.17677994E-13
   8.39999962      -3.96199214E-13
   8.43999958      -5.43978220E-13
   8.47999954      -6.36342379E-13
   8.52000046      -6.53241784E-13
   8.56000042      -5.82722997E-13
   8.60000038      -4.23676529E-13
   8.64000034      -1.87364894E-13
   8.68000031       1.02651150E-13
   8.72000027       4.12379115E-13
   8.76000023       7.01004684E-13
   8.80000019       9.25931424E-13
   8.84000015       1.04868512E-12
   8.88000011       1.04092126E-12
   8.92000008       8.89663343E-13
   8.96000004       6.00912224E-13
   9.00000000       2.00900101E-13
   9.03999996      -2.65467715E-13
   9.07999992      -7.39081376E-13
   9.11999989      -1.15367687E-12
   9.15999985      -1.44471956E-12
   9.19999981      -1.55900911E-12
   9.23999977      -1.46366263E-12
   9.27999973      -1.15306777E-12
   9.31999969      -6.52539275E-13
   9.35999966      -1.77749017E-14
   9.39999962       6.70280780E-13
   9.43999958       1.31489893E-12
   9.47999954       1.81641106E-12
   9.52000046       2.08687624E-12
   9.56000042       2.06455946E-12
   9.60000038       1.72601538E-12
   9.64000034       1.09368114E-12
   9.68000031       2.37330473E-13
   9.72000027      -7.31515814E-13
   9.76000023      -1.67216360E-12
   9.80000019      -2.43318169E-12
   9.84000015      -2.87455216E-12
   9.88000011      -2.89059401E-12
   9.92000008      -2.43025565E-12
   9.96000004      -1.51139116E-12
   10.0000000      -2.26148012E-13
   10.0400000       1.26438085E-12
   10.0799999       2.74668070E-12
   10.1199999       3.98132569E-12
   10.1599998       4.73663947E-12
   10.1999998       4.82526259E-12
   10.2399998       4.13847342E-12
   10.2799997       2.67282659E-12
   10.3199997       5.44212407E-13
   10.3599997      -2.01426159E-12
   10.3999996      -4.67217844E-12
   10.4399996      -7.03866045E-12
   10.4799995      -8.71272846E-12
   10.5200005      -9.34134367E-12
   10.5600004      -8.67753352E-12
   10.6000004      -6.63010705E-12
   10.6400003      -3.29675501E-12
   10.6800003       1.02616917E-12
   10.7200003       5.86130016E-12
   10.7600002       1.05959052E-11
   10.8000002       1.45521685E-11
   10.8400002       1.70748415E-11
   10.8800001       1.76257498E-11
   10.9200001       1.58725776E-11
   10.9600000       1.17587979E-11
   11.0000000       5.54296626E-12
   11.0400000      -2.20130619E-12
   11.0799999      -1.06287635E-11
   11.1199999      -1.87077107E-11
   11.1599998      -2.53394302E-11
   11.1999998      -2.94987576E-11
   11.2399998      -3.03786510E-11
   11.2799997      -2.75193410E-11
   11.3199997      -2.09031317E-11
   11.3599997      -1.09987991E-11
   11.3999996       1.25488780E-12
   11.4399996       1.45296483E-11
   11.4799995       2.72468298E-11
   11.5200005       3.77614953E-11
   11.5600004       4.45704793E-11
   11.6000004       4.65186084E-11
   11.6400003       4.29754426E-11
   11.6800003       3.39568651E-11
   11.7200003       2.01711894E-11
   11.7600002       2.97832765E-12
   11.8000002      -1.57387974E-11
   11.8400002      -3.37796111E-11
   11.8800001      -4.88861070E-11
   11.9200001      -5.90271859E-11
   11.9600000      -6.26712432E-11
   12.0000000      -5.90105673E-11
   12.0400000      -4.81050477E-11
   12.0799999      -3.09219039E-11
   12.1199999      -9.26030346E-12
   12.1599998       1.44353644E-11
   12.1999998       3.73548796E-11
   12.2399998       5.66622547E-11
   12.2799997       6.98548511E-11
   12.3199997       7.50953258E-11
   12.3599997       7.14715509E-11
   12.3999996       5.91473606E-11
   12.4399996       3.93797425E-11
   12.4799995       1.43947241E-11
   12.5200005      -1.28668153E-11
   12.5600004      -3.91048478E-11
   12.6000004      -6.10737572E-11
   12.6400003      -7.60009070E-11
   12.6800003      -8.19546236E-11
   12.7200003      -7.81107887E-11
   12.7600002      -6.48794143E-11
   12.8000002      -4.38699146E-11
   12.8400002      -1.76952914E-11
   12.8800001       1.03626161E-11
   12.9200001       3.67849466E-11
   12.9600000       5.82877982E-11
   13.0000000       7.22703355E-11
   13.0400000       7.71757588E-11
   13.0799999       7.27121627E-11
   13.1199999       5.98977604E-11
   13.1599998       4.09184943E-11
   13.1999998       1.88121688E-11
   13.2399998      -2.98155944E-12
   13.2799997      -2.11452696E-11
   13.3199997      -3.30083565E-11
   13.3599997      -3.69950945E-11
   13.3999996      -3.29258808E-11
   13.4399996      -2.21189612E-11
   13.4799995      -7.26523529E-12
   13.5200005       7.92035274E-12
   13.5600004       1.92352627E-11
   13.6000004       2.26490927E-11
   13.6400003       1.50003482E-11
   13.6800003      -5.36732594E-12
   13.7200003      -3.81254299E-11
   13.7600002      -8.07186817E-11
   13.8000002      -1.28415958E-10
   13.8400002      -1.74673082E-10
   13.8800001      -2.11786422E-10
   13.9200001      -2.31776348E-10
   13.9600000      -2.27404776E-10
   14.0000000      -1.93207700E-10
   14.0400000      -1.26413172E-10
   14.0799999      -2.76218250E-11
   14.1199999       9.88508511E-11
   14.1599998       2.45035020E-10
   14.1999998       3.99788591E-10
   14.2399998       5.49668588E-10
   14.2799997       6.80111800E-10
   14.3199997       7.76804066E-10
   14.3599997       8.27091284E-10
   14.3999996       8.21276436E-10
   14.4399996       7.53657192E-10
   14.4799995       6.23188168E-10
   14.5200005       4.33695885E-10
   14.5600004       1.93630570E-10
   14.6000004      -8.46065162E-11
   14.6400003      -3.85664639E-10
   14.6800003      -6.92441104E-10
   14.7200003      -9.87315785E-10
   14.7600002      -1.25326338E-09
   14.8000002      -1.47470347E-09
   14.8400002      -1.63799363E-09
   14.8800001      -1.73152248E-09
   14.9200001      -1.74543091E-09
   14.9600000      -1.67104963E-09
   15.0000000      -1.50019963E-09
   15.0400000      -1.22453758E-09
   15.0799999      -8.35142677E-10
   15.1199999      -3.22520538E-10
   15.1599998       3.22831067E-10
   15.1999998       1.10923049E-09
   15.2399998       2.04199280E-09
   15.2799997       3.12108273E-09
   15.3199997       4.33840164E-09
   15.3599997       5.67494096E-09
   15.3999996       7.09805770E-09
   15.4399996       8.55910898E-09
   15.4799995       9.99165817E-09
   15.5200005       1.13103731E-08
   15.5600004       1.24105979E-08
   15.6000004       1.31684805E-08
   15.6400003       1.34413973E-08
   15.6800003       1.30682700E-08
   15.7200003       1.18692673E-08
   15.7600002       9.64434399E-09
   15.8000002       6.17007867E-09
   15.8400002       1.19415955E-09
   15.8800001      -5.57282798E-09
   15.9200001      -1.44688270E-08
   15.9600000      -2.58950994E-08
   16.0000000      -4.03346299E-08
   16.0400009      -5.83740629E-08
   16.0799999      -8.07292579E-08
   16.1200008      -1.08274634E-07
   16.1599998      -1.42076104E-07
   16.2000008      -1.83428128E-07
   16.2399998      -2.33894994E-07
   16.2800007      -2.95357410E-07
   16.3199997      -3.70065123E-07
   16.3600006      -4.60697095E-07
   16.3999996      -5.70429904E-07
   16.4400005      -7.03017918E-07
   16.4799995      -8.62884633E-07
   16.5200005      -1.05522940E-06
   16.5599995      -1.28615102E-06
   16.6000004      -1.56278804E-06
   16.6399994      -1.89348214E-06
   16.6800003      -2.28796080E-06
   16.7199993      -2.75754405E-06
   16.7600002      -3.31537717E-06
   16.7999992      -3.97668737E-06
   16.8400002      -4.75906791E-06
   16.8799992      -5.68279120E-06
   16.9200001      -6.77114031E-06
   16.9599991      -8.05077980E-06
   17.0000000      -9.55214455E-06
   17.0400009      -1.13098595E-05
   17.0799999      -1.33631729E-05
   17.1200008      -1.57564300E-05
   17.1599998      -1.85395456E-05
   17.2000008      -2.17685083E-05
   17.2399998      -2.55058621E-05
   17.2800007      -2.98212253E-05
   17.3199997      -3.47917667E-05
   17.3600006      -4.05026985E-05
   17.3999996      -4.70476807E-05
   17.4400005      -5.45292314E-05
   17.4799995      -6.30590293E-05
   17.5200005      -7.27581719E-05
   17.5599995      -8.37572516E-05
   17.6000004      -9.61964251E-05
   17.6399994      -1.10225184E-04
   17.6800003      -1.26002065E-04
   17.7199993      -1.43694153E-04
   17.7600002      -1.63476318E-04
   17.7999992      -1.85530153E-04
   17.8400002      -2.10042766E-04
   17.8799992      -2.37205284E-04
   17.9200001      -2.67210824E-04
   17.9599991      -3.00252461E-04
   18.0000000      -3.36520636E-04
   18.0400009      -3.76200245E-04
   18.0799999      -4.19467542E-04
   18.1200008      -4.66486526E-04
   18.1599998      -5.17405046E-04
   18.2000008      -5.72350516E-04
   18.2399998      -6.31425763E-04
   18.2800007      -6.94704009E-04
   18.3199997      -7.62223906E-04
   18.3600006      -8.33984814E-04
   18.3999996      -9.09941562E-04
   18.4400005      -9.89999273E-04
   18.4799995      -1.07400841E-03
   18.5200005      -1.16175984E-03
   18.5599995      -1.25298044E-03
   18.6000004      -1.34732900E-03
   18.6399994      -1.44439249E-03
   18.6800003      -1.54368300E-03
   18.7199993      -1.64463592E-03
   18.7600002      -1.74660818E-03
   18.7999992      -1.84887776E-03
   18.8400002      -1.95064477E-03
   18.8799992      -2.05103308E-03
   18.9200001      -2.14909390E-03
   18.9599991      -2.24380917E-03
   19.0000000      -2.33409926E-03
   19.0400009      -2.41882843E-03
   19.0799999      -2.49681505E-03
   19.1200008      -2.56684027E-03
   19.1599998      -2.62766122E-03
   19.2000008      -2.67802249E-03
   19.2399998      -2.71667144E-03
   19.2800007      -2.74237222E-03
   19.3199997      -2.75392318E-03
   19.3600006      -2.75017251E-03
   19.3999996      -2.73003662E-03
   19.4400005      -2.69251782E-03
   19.4799995      -2.63672159E-03
   19.5200005      -2.56187469E-03
   19.5599995      -2.46734289E-03
   19.6000004      -2.35264632E-03
   19.6399994      -2.21747532E-03
   19.6800003      -2.06170441E-03
   19.7199993      -1.88540481E-03
   19.7600002      -1.68885407E-03
   19.7999992      -1.47254521E-03
   19.8400002      -1.23719114E-03
   19.8799992      -9.83728678E-04
   19.9200001      -7.13318528E-04
   19.9599991      -4.27342020E-04
   20.0000000      -1.27395804E-04
   20.0400009       1.84717617E-04
   20.0799999       5.07001299E-04
   20.1200008       8.37279717E-04
   20.1599998       1.17321592E-03
   20.2000008       1.51233317E-03
   20.2399998       1.85203762E-03
   20.2800007       2.18964415E-03
   20.3199997       2.52240407E-03
   20.3600006       2.84753414E-03
   20.3999996       3.16224736E-03
   20.4400005       3.46378377E-03
   20.4799995       3.74944229E-03
   20.5200005       4.01661219E-03
   20.5599995       4.26280499E-03
   20.6000004       4.48568258E-03
   20.6399994       4.68308944E-03
   20.6800003       4.85307490E-03
   20.7199993       4.99392161E-03
   20.7600002       5.10416459E-03
   20.7999992       5.18261222E-03
   20.8400002       5.22836018E-03
   20.8799992       5.24080545E-03
   20.9200001       5.21965371E-03
   20.9599991       5.16492268E-03
   21.0000000       5.07694483E-03
   21.0400009       4.95636463E-03
   21.0799999       4.80412925E-03
   21.1200008       4.62148152E-03
   21.1599998       4.40994138E-03
   21.2000008       4.17129369E-03
   21.2399998       3.90756363E-03
   21.2800007       3.62099637E-03
   21.3199997       3.31403106E-03
   21.3600006       2.98927352E-03
   21.3999996       2.64946814E-03
   21.4400005       2.29746802E-03
   21.4799995       1.93620508E-03
   21.5200005       1.56865839E-03
   21.5599995       1.19782472E-03
   21.6000004       8.26688251E-04
   21.6399994       4.58192284E-04
   21.6800003       9.52105620E-05
   21.7199993      -2.59478053E-04
   21.7600002      -6.03214197E-04
   21.7999992      -9.33480507E-04
   21.8400002      -1.24792091E-03
   21.8799992      -1.54435937E-03
   21.9200001      -1.82081433E-03
   21.9599991      -2.07551220E-03
   22.0000000      -2.30689719E-03
   22.0400009      -2.51363986E-03
   22.0799999      -2.69464147E-03
   22.1200008      -2.84903869E-03
   22.1599998      -2.97620357E-03
   22.2000008      -3.07574309E-03
   22.2399998      -3.14749591E-03
   22.2800007      -3.19152814E-03
   22.3199997      -3.20812711E-03
   22.3600006      -3.19779338E-03
   22.3999996      -3.16123245E-03
   22.4400005      -3.09934421E-03
   22.4799995      -3.01321270E-03
   22.5200005      -2.90409359E-03
   22.5599995      -2.77340203E-03
   22.6000004      -2.62269983E-03
   22.6399994      -2.45368131E-03
   22.6800003      -2.26815860E-03
   22.7199993      -2.06804811E-03
   22.7600002      -1.85535511E-03
   22.7999992      -1.63215853E-03
   22.8400002      -1.40059483E-03
   22.8799992      -1.16284261E-03
   22.9200001      -9.21106839E-04
   22.9599991      -6.77602016E-04
   23.0000000      -4.34535992E-04
   23.0400009      -1.94093911E-04
   23.0799999       4.15786708E-05
   23.1200008       2.70391902E-04
   23.1599998       4.90327948E-04
   23.2000008       6.99456839E-04
   23.2399998       8.95951991E-04
   23.2800007       1.07810530E-03
   23.3199997       1.24434149E-03
   23.3600006       1.39323156E-03
   23.3999996       1.52350601E-03
   23.4400005       1.63406541E-03
   23.4799995       1.72399182E-03
   23.5200005       1.79255696E-03
   23.5599995       1.83923007E-03
   23.6000004       1.86368357E-03
   23.6399994       1.86579709E-03
   23.6800003       1.84565969E-03
   23.7199993       1.80357031E-03
   23.7600002       1.74003525E-03
   23.7999992       1.65576546E-03
   23.8400002       1.55166991E-03
   23.8799992       1.42884802E-03
   23.9200001       1.28857978E-03
   23.9599991       1.13231398E-03
   24.0000000       9.61654645E-04
   24.0400009       7.78345973E-04
   24.0799999       5.84255322E-04
   24.1200008       3.81355087E-04
   24.1599998       1.71703417E-04
   24.2000008      -4.25761355E-05
   24.2399998      -2.59316119E-04
   24.2800007      -4.76326590E-04
   24.3199997      -6.91417314E-04
   24.3600006      -9.02419561E-04
   24.3999996      -1.10720878E-03
   24.4400005      -1.30372564E-03
   24.4799995      -1.48999691E-03
   24.5200005      -1.66415609E-03
   24.5599995      -1.82446244E-03
   24.6000004      -1.96931791E-03
   24.6399994      -2.09728372E-03
   24.6800003      -2.20709597E-03
   24.7199993      -2.29767687E-03
   24.7600002      -2.36814516E-03
   24.7999992      -2.41782609E-03
   24.8400002      -2.44625681E-03
   24.8799992      -2.45318958E-03
   24.9200001      -2.43859366E-03
   24.9599991      -2.40265438E-03
   25.0000000      -2.34577013E-03
   25.0400009      -2.26854486E-03
   25.0799999      -2.17178138E-03
   25.1200008      -2.05646944E-03
   25.1599998      -1.92377390E-03
   25.2000008      -1.77501945E-03
   25.2399998      -1.61167432E-03
   25.2800007      -1.43533188E-03
   25.3199997      -1.24769111E-03
   25.3600006      -1.05053606E-03
   25.3999996      -8.45713948E-04
   25.4400005      -6.35113567E-04
   25.4799995      -4.20642522E-04
   25.5200005      -2.04205397E-04
   25.5599995       1.23180525E-05
   25.6000004       2.27094017E-04
   25.6399994       4.38354677E-04
   25.6800003       6.44416548E-04
   25.7199993       8.43697577E-04
   25.7600002       1.03473244E-03
   25.7999992       1.21618540E-03
   25.8400002       1.38686108E-03
   25.8799992       1.54571328E-03
   25.9200001       1.69185048E-03
   25.9599991       1.82453962E-03
   26.0000000       1.94320711E-03
   26.0400009       2.04743748E-03
   26.0799999       2.13696924E-03
   26.1200008       2.21168855E-03
   26.1599998       2.27162312E-03
   26.2000008       2.31693056E-03
   26.2399998       2.34788749E-03
   26.2800007       2.36487808E-03
   26.3199997       2.36837938E-03
   26.3600006       2.35894858E-03
   26.3999996       2.33720802E-03
   26.4400005       2.30383128E-03
   26.4799995       2.25952943E-03
   26.5200005       2.20503798E-03
   26.5599995       2.14110478E-03
   26.6000004       2.06847931E-03
   26.6399994       1.98790245E-03
   26.6800003       1.90009910E-03
   26.7199993       1.80577114E-03
   26.7600002       1.70559331E-03
   26.7999992       1.60020974E-03
   26.8400002       1.49023230E-03
   26.8799992       1.37624145E-03
   26.9200001       1.25878712E-03
   26.9599991       1.13839167E-03
   27.0000000       1.01555395E-03
   27.0400009       8.90753756E-04
   27.0799999       7.64456810E-04
   27.1200008       6.37120858E-04
   27.1599998       5.09200559E-04
   27.2000008       3.81153368E-04
   27.2399998       2.53443868E-04
   27.2800007       1.26548199E-04
   27.3199997       9.57169050E-07
   27.3600006      -1.22821526E-04
   27.3999996      -2.44262803E-04
   27.4400005      -3.62824183E-04
   27.4799995      -4.77947993E-04
   27.5200005      -5.89064322E-04
   27.5599995      -6.95595867E-04
   27.6000004      -7.96963344E-04
   27.6399994      -8.92593001E-04
   27.6800003      -9.81923891E-04
   27.7199993      -1.06441719E-03
   27.7600002      -1.13956502E-03
   27.7999992      -1.20689964E-03
   27.8400002      -1.26600417E-03
   27.8799992      -1.31652027E-03
   27.9200001      -1.35815830E-03
   27.9599991      -1.39070419E-03
   28.0000000      -1.41402707E-03
   28.0400009      -1.42808445E-03
   28.0799999      -1.43292639E-03
   28.1200008      -1.42869854E-03
   28.1599998      -1.41564209E-03
   28.2000008      -1.39409327E-03
   28.2399998      -1.36448024E-03
   28.2800007      -1.32731802E-03
   28.3199997      -1.28320232E-03
   28.3600006      -1.23280101E-03
   28.3999996      -1.17684412E-03
   28.4400005      -1.11611350E-03
   28.4799995      -1.05142931E-03
   28.5200005      -9.83638340E-04
   28.5599995      -9.13599215E-04
   28.6000004      -8.42168927E-04
   28.6399994      -7.70188984E-04
   28.6800003      -6.98471966E-04
   28.7199993      -6.27788308E-04
   28.7600002      -5.58854779E-04
   28.7999992      -4.92323132E-04
   28.8400002      -4.28771338E-04
   28.8799992      -3.68695299E-04
   28.9200001      -3.12503311E-04
   28.9599991      -2.60511733E-04
   29.0000000      -2.12942949E-04
   29.0400009      -1.69925261E-04
   29.0799999      -1.31494700E-04
   29.1200008      -9.75987496E-05
   29.1599998      -6.81018428E-05
   29.2000008      -4.27924206E-05
   29.2399998      -2.13915082E-05
   29.2800007      -3.56236956E-06
   29.3199997       1.10788378E-05
   29.3600006       2.29518064E-05
   29.3999996       3.25004403E-05
   29.4400005       4.01811303E-05
   29.4799995       4.64512996E-05
   29.5200005       5.17584085E-05