  -4.80000019       0.00000000
  -4.76000023       0.00000000
  -4.71999979       0.00000000
  -4.67999983       0.00000000
  -4.63999987       0.00000000
  -4.59999990       0.00000000
  -4.55999994       0.00000000
  -4.51999998       0.00000000
  -4.48000002       0.00000000
  -4.44000006       6.79002133E-34
  -4.40000010       2.08205231E-33
  -4.36000013      -6.71458713E-32
  -4.32000017      -9.32871847E-31
  -4.28000021      -6.83930599E-30
  -4.23999977      -3.57531140E-29
  -4.19999981      -1.47880364E-28
  -4.15999985      -5.10557191E-28
  -4.11999989      -1.52041942E-27
  -4.07999992      -3.99369770E-27
  -4.03999996      -9.40755610E-27
  -4.00000000      -2.01419670E-26
  -3.96000004      -3.96743880E-26
  -3.92000008      -7.27790560E-26
  -3.88000011      -1.25999477E-25
  -3.83999991      -2.08860909E-25
  -3.79999995      -3.36047005E-25
  -3.75999999      -5.29355891E-25
  -3.72000003      -8.14927828E-25
  -3.68000007      -1.20597811E-24
  -3.64000010      -1.65592909E-24
  -3.59999990      -1.96625001E-24
  -3.55999994      -1.64532078E-24
  -3.51999998       2.52232826E-25
  -3.48000002       5.21852315E-24
  -3.44000006       1.51582889E-23
  -3.40000010       3.18142807E-23
  -3.35999990       5.55610323E-23
  -3.31999993       8.35473560E-23
  -3.27999997       1.07545092E-22
  -3.24000001       1.12432899E-22
  -3.20000005       7.68700776E-23
  -3.16000009      -2.19130966E-23
  -3.11999989      -1.97625346E-22
  -3.07999992      -4.38690472E-22
  -3.03999996      -6.89292826E-22
  -3.00000000      -8.34959311E-22
  -2.96000004      -7.04301277E-22
  -2.92000008      -1.00843346E-22
  -2.88000011       1.12380514E-21
  -2.83999991       2.95467441E-21
  -2.79999995       5.07497157E-21
  -2.75999999       6.75027444E-21
  -2.72000003       6.80853978E-21
  -2.68000007       3.80452312E-21
  -2.64000010      -3.55535596E-21
  -2.59999990      -1.57077947E-20
  -2.55999994      -3.13346485E-20
  -2.51999998      -4.65100200E-20
  -2.48000002      -5.42899186E-20
  -2.44000006      -4.52515649E-20
  -2.40000010      -9.46829703E-21
  -2.35999990       5.98264776E-20
  -2.31999993       1.61127791E-19
  -2.27999997       2.79078900E-19
  -2.24000001       3.80255083E-19
  -2.20000005       4.12863680E-19
  -2.16000009       3.13143335E-19
  -2.11999989       2.05928940E-20
  -2.07999992      -4.97680505E-19
  -2.03999996      -1.21629620E-18
  -2.00000000      -2.02141063E-18
  -1.96000004      -2.69182769E-18
  -1.91999996      -2.90492286E-18
  -1.88000000      -2.28057314E-18
  -1.84000003      -4.71347159E-19
  -1.79999995       2.70325912E-18
  -1.75999999       7.09636014E-18
  -1.72000003       1.20832674E-17
  -1.67999995       1.64743144E-17
  -1.63999999       1.85533584E-17
  -1.60000002       1.62991192E-17
  -1.55999994       7.82100427E-18
  -1.51999998      -8.00711164E-18
  -1.48000002      -3.07990047E-17
  -1.44000006      -5.79539281E-17
  -1.39999998      -8.42260314E-17
  -1.36000001      -1.01823889E-16
  -1.32000005      -1.01272622E-16
  -1.27999997      -7.31672552E-17
  -1.24000001      -1.07586800E-17
  -1.20000005       8.69420822E-17
  -1.15999997       2.12138462E-16
  -1.12000000       3.46143561E-16
  -1.08000004       4.59161949E-16
  -1.03999996       5.12843192E-16
  -1.00000000       4.66146583E-16
 -0.959999979       2.84425882E-16
 -0.920000017      -4.92167733E-17
 -0.879999995      -5.22217305E-16
 -0.839999974      -1.08323687E-15
 -0.800000012      -1.63849280E-15
 -0.759999990      -2.05683677E-15
 -0.720000029      -2.18572193E-15
 -0.680000007      -1.87836629E-15
 -0.639999986      -1.02984383E-15
 -0.600000024       3.83104585E-16
 -0.560000002       2.26647424E-15
 -0.519999981       4.38732150E-15
 -0.479999989       6.37581308E-15
 -0.439999998       7.75863714E-15
 -0.400000006       8.02675780E-15
 -0.360000014       6.73367984E-15
 -0.319999993       3.61227534E-15
 -0.280000001      -1.30967451E-15
 -0.239999995      -7.62091467E-15
 -0.200000003      -1.44926355E-14
 -0.159999996      -2.07226323E-14
 -0.119999997      -2.48712963E-14
  -7.99999982E-02  -2.54870909E-14
  -3.99999991E-02  -2.13991439E-14
   2.77555756E-16  -1.20340749E-14
   3.99999991E-02   2.30262984E-15
   7.99999982E-02   2.02487732E-14
  0.119999997       3.93751126E-14
  0.159999996       5.63877626E-14
  0.200000003       6.75553770E-14
  0.239999995       6.93294773E-14
  0.280000001       5.90784203E-14
  0.319999993       3.58133424E-14
  0.360000014       7.57811579E-16
  0.400000006      -4.23888423E-14
  0.439999998      -8.76151975E-14
  0.479999989      -1.27248364E-13
  0.519999981      -1.53065169E-13
  0.560000002      -1.57738270E-13
  0.600000024      -1.36397526E-13
  0.639999986      -8.80194965E-14
  0.680000007      -1.63351253E-14
  0.720000029       7.00163058E-14
  0.759999990       1.58258863E-13
  0.800000012       2.33193239E-13
  0.839999974       2.79679790E-13
  0.879999995       2.85531364E-13
  0.920000017       2.44307612E-13
  0.959999979       1.57432512E-13
   1.00000000       3.50929240E-14
   1.03999996      -1.04468056E-13
   1.08000004      -2.37386608E-13
   1.12000000      -3.38130674E-13
   1.15999997      -3.84408434E-13
   1.20000005      -3.62177139E-13
   1.24000001      -2.69730202E-13
   1.27999997      -1.19857683E-13
   1.32000005       6.06948099E-14
   1.36000001       2.34812603E-13
   1.39999998       3.61409335E-13
   1.44000006       4.03772420E-13
   1.48000002       3.38434169E-13
   1.51999998       1.62787251E-13
   1.55999994      -1.00390697E-13
   1.60000002      -4.03020065E-13
   1.63999999      -6.77242821E-13
   1.67999995      -8.46242835E-13
   1.72000003      -8.39105369E-13
   1.75999999      -6.07405510E-13
   1.79999995      -1.40451276E-13
   1.84000003       5.24172828E-13
   1.88000000       1.29776908E-12
   1.91999996       2.04740435E-12
   1.96000004       2.61294502E-12
   2.00000000       2.83278392E-12
   2.03999996       2.57485374E-12
   2.07999992       1.76793389E-12
   2.11999989       4.27360838E-13
   2.16000009      -1.33065087E-12
   2.20000005      -3.29067394E-12
   2.24000001      -5.15807752E-12
   2.27999997      -6.59672620E-12
   2.31999993      -7.28038203E-12
   2.35999990      -6.95075334E-12
   2.40000010      -5.47291075E-12
   2.44000006      -2.87795851E-12
   2.48000002       6.16310009E-13
   2.51999998       4.61339560E-12
   2.55999994       8.57722053E-12
   2.59999990       1.18998119E-11
   2.64000010       1.39897148E-11
   2.68000007       1.43688004E-11
   2.72000003       1.27622947E-11
   2.75999999       9.16625109E-12
   2.79999995       3.87879442E-12
   2.83999991      -2.51391204E-12
   2.88000011      -9.19937390E-12
   2.92000008      -1.52428382E-11
   2.96000004      -1.97208500E-11
   3.00000000      -2.18653255E-11
   3.03999996      -2.11957032E-11
   3.07999992      -1.76166581E-11
   3.11999989      -1.14626720E-11
   3.16000009      -3.47779488E-12
   3.20000005       5.27130943E-12
   3.24000001       1.35402184E-11
   3.27999997       2.00905143E-11
   3.31999993       2.38856313E-11
   3.35999990       2.42679644E-11
   3.40000010       2.10871494E-11
   3.44000006       1.47551468E-11
   3.48000002       6.21390092E-12
   3.51999998      -3.18547380E-12
   3.55999994      -1.18787653E-11
   3.59999990      -1.83335777E-11
   3.64000010      -2.13068486E-11
   3.68000007      -2.00740830E-11
   3.72000003      -1.45909500E-11
   3.75999999      -5.55592985E-12
   3.79999995       5.64377841E-12
   3.83999991       1.71034992E-11
   3.88000011       2.66713110E-11
   3.92000008       3.22820243E-11
   3.96000004       3.23070286E-11
   4.00000000       2.58659986E-11
   4.03999996       1.30484686E-11
   4.07999992      -4.99662811E-12
   4.11999989      -2.61281136E-11
   4.15999985      -4.74387959E-11
   4.19999981      -6.56191837E-11
   4.23999977      -7.74146788E-11
   4.28000021      -8.01152755E-11
   4.32000017      -7.20075596E-11
   4.36000013      -5.27199291E-11
   4.40000010      -2.34031249E-11
   4.44000006       1.32915554E-11
   4.48000002       5.34466083E-11
   4.51999998       9.23056562E-11
   4.55999994       1.24845412E-10
   4.59999990       1.46420764E-10
   4.63999987       1.53397767E-10
   4.67999983       1.43687159E-10
   4.71999979       1.17101204E-10
   4.76000023       7.54784776E-11
   4.80000019       2.25513445E-11
   4.84000015      -3.64344284E-11
   4.88000011      -9.53042645E-11
   4.92000008      -1.47671167E-10
   4.96000004      -1.87692389E-10
   5.00000000      -2.10768361E-10
   5.03999996      -2.14093215E-10
   5.07999992      -1.96985844E-10
   5.11999989      -1.60960190E-10
   5.15999985      -1.09529191E-10
   5.19999981      -4.77718802E-11
   5.23999977       1.82752927E-11
   5.28000021       8.23204005E-11
   5.32000017       1.38518710E-10
   5.36000013       1.82086984E-10
   5.40000010       2.09756254E-10
   5.44000006       2.20014756E-10
   5.48000002       2.13124032E-10
   5.51999998       1.90922306E-10
   5.55999994       1.56457319E-10
   5.59999990       1.13510860E-10
   5.63999987       6.60869345E-11
   5.67999983       1.79353268E-11
   5.71999979      -2.78290516E-11
   5.76000023      -6.89686711E-11
   5.80000019      -1.04208073E-10
   5.84000015      -1.33164479E-10
   5.88000011      -1.56148997E-10
   5.92000008      -1.73878273E-10
   5.96000004      -1.87145702E-10
   6.00000000      -1.96502925E-10
   6.03999996      -2.01997849E-10
   6.07999992      -2.03006154E-10
   6.11999989      -1.98180666E-10
   6.15999985      -1.85529495E-10
   6.19999981      -1.62619973E-10
   6.23999977      -1.26893093E-10
   6.28000021      -7.60622607E-11
   6.32000017      -8.56115699E-12
   6.36000013       7.60017882E-11
   6.40000010       1.76430093E-10
   6.44000006       2.89617663E-10
   6.48000002       4.10369183E-10
   6.51999998       5.31408029E-10
   6.55999994       6.43607390E-10
   6.59999990       7.36465167E-10
   6.63999987       7.98821731E-10
   6.67999983       8.19794121E-10
   6.71999979       7.89872556E-10
   6.76000023       7.02097269E-10
   6.80000019       5.53210422E-10
   6.84000015       3.44664464E-10
   6.88000011       8.33629624E-11
   6.92000008      -2.17977900E-10
   6.96000004      -5.40935019E-10
   7.00000000      -8.62000304E-10
   7.03999996      -1.15372023E-09
   7.07999992      -1.38629963E-09
   7.11999989      -1.52956525E-09
   7.15999985      -1.55513802E-09
   7.19999981      -1.43863133E-09
   7.23999977      -1.16167753E-09
   7.28000021      -7.13598791E-10
   7.32000017      -9.25614377E-11
   7.36000013       6.93893665E-10
   7.40000010       1.62898672E-09
   7.44000006       2.68746780E-09
   7.48000002       3.83691079E-09
   7.51999998       5.03935471E-09
   7.55999994       6.25306207E-09
   7.59999990       7.43414219E-09
   7.63999987       8.53778381E-09
   7.67999983       9.51884527E-09
   7.71999979       1.03316458E-08
   7.76000023       1.09288072E-08
   7.80000019       1.12591163E-08
   7.84000015       1.12644480E-08
   7.88000011       1.08758256E-08
   7.92000008       1.00087467E-08
   7.96000004       8.55787974E-09
   8.00000000       6.39123954E-09
   8.03999996       3.34387296E-09
   8.07999992      -7.89026899E-10
   8.11999989      -6.25971008E-09
   8.15999985      -1.33764528E-08
   8.19999981      -2.25134507E-08
   8.23999977      -3.41224542E-08
   8.27999973      -4.87465890E-08
   8.31999969      -6.70367086E-08
   8.35999966      -8.97707366E-08
   8.39999962      -1.17876411E-07
   8.43999958      -1.52457517E-07
   8.47999954      -1.94823855E-07
   8.52000046      -2.46525531E-07
   8.56000042      -3.09391396E-07
   8.60000038      -3.85571582E-07
   8.64000034      -4.77585729E-07
   8.68000031      -5.88376565E-07
   8.72000027      -7.21369872E-07
   8.76000023      -8.80542018E-07
   8.80000019      -1.07049573E-06
   8.84000015      -1.29654620E-06
   8.88000011      -1.56481644E-06
   8.92000008      -1.88234651E-06
   8.96000004      -2.25721533E-06
   9.00000000      -2.69867269E-06
   9.03999996      -3.21728839E-06
   9.07999992      -3.82511644E-06
   9.11999989      -4.53586745E-06
   9.15999985      -5.36510152E-06
   9.19999981      -6.33042373E-06
   9.23999977      -7.45169746E-06
   9.27999973      -8.75126079E-06
   9.31999969      -1.02541544E-05
   9.35999966      -1.19883480E-05
   9.39999962      -1.39849672E-05
   9.43999958      -1.62785163E-05
   9.47999954      -1.89070979E-05
   9.52000046      -2.19126141E-05
   9.56000042      -2.53409435E-05
   9.60000038      -2.92420918E-05
   9.64000034      -3.36703124E-05
   9.68000031      -3.86841748E-05
   9.72000027      -4.43465724E-05
   9.76000023      -5.07246696E-05
   9.80000019      -5.78897780E-05
   9.84000015      -6.59171274E-05
   9.88000011      -7.48855455E-05
   9.92000008      -8.48770433E-05
   9.96000004      -9.59762183E-05
   10.0000000      -1.08269604E-04
   10.0400000      -1.21844780E-04
   10.0799999      -1.36789429E-04
   10.1199999      -1.53190136E-04
   10.1599998      -1.71131134E-04
   10.1999998      -1.90692750E-04
   10.2399998      -2.11949868E-04
   10.2799997      -2.34970037E-04
   10.3199997      -2.59811524E-04
   10.3599997      -2.86521361E-04
   10.3999996      -3.15132987E-04
   10.4399996      -3.45664128E-04
   10.4799995      -3.78114404E-04
   10.5200005      -4.12462949E-04
   10.5600004      -4.48666106E-04
   10.6000004      -4.86655015E-04
   10.6400003      -5.26333461E-04
   10.6800003      -5.67575800E-04
   10.7200003      -6.10225135E-04
   10.7600002      -6.54091593E-04
   10.8000002      -6.98951189E-04
   10.8400002      -7.44544901E-04
   10.8800001      -7.90578080E-04
   10.9200001      -8.36720283E-04
   10.9600000      -8.82606313E-04
   11.0000000      -9.27836925E-04
   11.0400000      -9.71980684E-04
   11.0799999      -1.01457641E-03
   11.1199999      -1.05513644E-03
   11.1599998      -1.09314977E-03
   11.1999998      -1.12808694E-03
   11.2399998      -1.15940475E-03
   11.2799997      -1.18655234E-03
   11.3199997      -1.20897696E-03
   11.3599997      -1.22613122E-03
   11.3999996      -1.23747985E-03
   11.4399996      -1.24250795E-03
   11.4799995      -1.24072807E-03
   11.5200005      -1.23168912E-03
   11.5600004      -1.21498317E-03
   11.6000004      -1.19025470E-03
   11.6400003      -1.15720730E-03
   11.6800003      -1.11561129E-03
   11.7200003      -1.06531021E-03
   11.7600002      -1.00622664E-03
   11.8000002      -9.38367797E-04
   11.8400002      -8.61829380E-04
   11.8800001      -7.76798814E-04
   11.9200001      -6.83556893E-04
   11.9600000      -5.82478591E-04
   12.0000000      -4.74032422E-04
   12.0400000      -3.58778256E-04
   12.0799999      -2.37364016E-04
   12.1199999      -1.10520712E-04
   12.1599998       2.09437057E-05
   12.1999998       1.56151844E-04
   12.2399998       2.94165482E-04
   12.2799997       4.33995447E-04
   12.3199997       5.74612350E-04
   12.3599997       7.14958122E-04
   12.3999996       8.53958074E-04
   12.4399996       9.90533619E-04
   12.4799995       1.12361519E-03
   12.5200005       1.25215494E-03
   12.5600004       1.37513923E-03
   12.6000004       1.49160100E-03
   12.6400003       1.60063128E-03
   12.6800003       1.70138991E-03
   12.7200003       1.79311482E-03
   12.7600002       1.87513104E-03
   12.8000002       1.94685755E-03
   12.8400002       2.00781343E-03
   12.8800001       2.05762126E-03
   12.9200001       2.09601060E-03
   12.9600000       2.12281919E-03
   13.0000000       2.13799183E-03
   13.0400000       2.14157905E-03
   13.0799999       2.13373336E-03
   13.1199999       2.11470434E-03
   13.1599998       2.08483334E-03
   13.1999998       2.04454595E-03
   13.2399998       1.99434417E-03
   13.2799997       1.93479750E-03
   13.3199997       1.86653435E-03
   13.3599997       1.79023179E-03
   13.3999996       1.70660648E-03
   13.4399996       1.61640497E-03
   13.4799995       1.52039411E-03
   13.5200005       1.41935248E-03
   13.5600004       1.31406193E-03
   13.6000004       1.20529952E-03
   13.6400003       1.09383126E-03
   13.6800003       9.80405603E-04
   13.7200003       8.65748210E-04
   13.7600002       7.50557985E-04
   13.8000002       6.35503326E-04
   13.8400002       5.21219685E-04
   13.8800001       4.08307795E-04
   13.9200001       2.97332328E-04
   13.9600000       1.88821563E-04
   14.0000000       8.32673832E-05
   14.0400000      -1.88742979E-05
   14.0799999      -1.17182841E-04
   14.1199999      -2.11272010E-04
   14.1599998      -3.00789077E-04
   14.1999998      -3.85413849E-04
   14.2399998      -4.64858022E-04
   14.2799997      -5.38864697E-04
   14.3199997      -6.07207767E-04
   14.3599997      -6.69692352E-04
   14.3999996      -7.26154773E-04
   14.4399996      -7.76463479E-04
   14.4799995      -8.20519635E-04
   14.5200005      -8.58258514E-04
   14.5600004      -8.89650546E-04
   14.6000004      -9.14702890E-04
   14.6400003      -9.33460542E-04
   14.6800003      -9.46007436E-04
   14.7200003      -9.52467555E-04
   14.7600002      -9.53005219E-04
   14.8000002      -9.47825378E-04
   14.8400002      -9.37173027E-04
   14.8800001      -9.21332045E-04
   14.9200001      -9.00623447E-04
   14.9600000      -8.75402824E-04
   15.0000000      -8.46057083E-04
   15.0400000      -8.13000603E-04
   15.0799999      -7.76670466E-04
   15.1199999      -7.37521448E-04
   15.1599998      -6.96020317E-04
   15.1999998      -6.52639545E-04
   15.2399998      -6.07851078E-04
   15.2799997      -5.62120054E-04
   15.3199997      -5.15898108E-04
   15.3599997      -4.69617284E-04
   15.3999996      -4.23684163E-04
   15.4399996      -3.78474564E-04
   15.4799995      -3.34328797E-04
   15.5200005      -2.91548000E-04
   15.5600004      -2.50391196E-04
   15.6000004      -2.11073420E-04
   15.6400003      -1.73765002E-04
   15.6800003      -1.38591931E-04
   15.7200003      -1.05637264E-04
   15.7600002      -7.49436003E-05
   15.8000002      -4.65166268E-05
   15.8400002      -2.03293748E-05
   15.8800001       3.67267489E-06
   15.9200001       2.55659525E-05
   15.9600000       4.54427463E-05
   16.0000000       6.34049356E-05
   16.0400009       7.95577507E-05
   16.0799999       9.40036989E-05
   16.1200008       1.06836880E-04
   16.1599998       1.18137934E-04
   16.2000008       1.27969761E-04
   16.2399998       1.36374219E-04
   16.2800007       1.43369864E-04
   16.3199997       1.48950974E-04
   16.3600006       1.53087836E-04
   16.3999996       1.55728238E-04
   16.4400005       1.56800263E-04
   16.4799995       1.56216338E-04
   16.5200005       1.53878267E-04
   16.5599995       1.49683139E-04
   16.6000004       1.43530051E-04
   16.6399994       1.35327151E-04
   16.6800003       1.24999104E-04
   16.7199993       1.12494352E-04
   16.7600002       9.77922318E-05
   16.7999992       8.09095436E-05
   16.8400002       6.19062921E-05
   16.8799992       4.08905034E-05
   16.9200001       1.80217849E-05
   16.9599991      -6.48648620E-06
   17.0000000      -3.23665154E-05
   17.0400009      -5.92971337E-05
   17.0799999      -8.69065698E-05
   17.1200008      -1.14776936E-04
   17.1599998      -1.42450532E-04
   17.2000008      -1.69437699E-04
   17.2399998      -1.95226254E-04
   17.2800007      -2.19292095E-04
   17.3199997      -2.41110974E-04
   17.3600006      -2.60170928E-04
   17.3999996      -2.75985047E-04
   17.4400005      -2.88104435E-04
   17.4799995      -2.96130747E-04
   17.5200005      -2.99728155E-04
   17.5599995      -2.98634259E-04
   17.6000004      -2.92669603E-04
   17.6399994      -2.81745801E-04
   17.6800003      -2.65871611E-04
   17.7199993      -2.45156960E-04
   17.7600002      -2.19814858E-04
   17.7999992      -1.90160819E-04
   17.8400002      -1.56609865E-04
   17.8799992      -1.19671175E-04
   17.9200001      -7.99402187E-05
   17.9599991      -3.80886959E-05
   18.0000000       5.14768408E-06
   18.0400009       4.89832673E-05
   18.0799999       9.25981294E-05
   18.1200008       1.35154885E-04
   18.1599998       1.75816473E-04
   18.2000008       2.13764142E-04
   18.2399998       2.48215569E-04
   18.2800007       2.78442400E-04
   18.3199997       3.03787005E-04
   18.3600006       3.23677727E-04
   18.3999996       3.37642734E-04
   18.4400005       3.45321721E-04
   18.4799995       3.46475339E-04
   18.5200005       3.40992148E-04
   18.5599995       3.28893017E-04
   18.6000004       3.10332689E-04
   18.6399994       2.85598391E-04
   18.6800003       2.55105784E-04
   18.7199993       2.19392110E-04
   18.7600002       1.79106588E-04
   18.7999992       1.34998481E-04
   18.8400002       8.79028885E-05
   18.8799992       3.87246328E-05
   18.9200001      -1.15794073E-05
   18.9599991      -6.20191131E-05
   19.0000000      -1.11590758E-04
   19.0400009      -1.59296920E-04
   19.0799999      -2.04166368E-04
   19.1200008      -2.45273375E-04
   19.1599998      -2.81756133E-04
   19.2000008      -3.12833901E-04
   19.2399998      -3.37822625E-04
   19.2800007      -3.56148521E-04
   19.3199997      -3.67359695E-04
   19.3600006      -3.71135277E-04
   19.3999996      -3.67292261E-04
   19.4400005      -3.55789525E-04
   19.4799995      -3.36729456E-04
   19.5200005      -3.10356700E-04
   19.5599995      -2.77054496E-04
   19.6000004      -2.37338420E-04
   19.6399994      -1.91847721E-04
   19.6800003      -1.41334502E-04
   19.7199993      -8.66509072E-05
   19.7600002      -2.87345920E-05
   19.7999992       3.14072968E-05
   19.8400002       9.27152723E-05
   19.8799992       1.54095571E-04
   19.9200001       2.14438711E-04
   19.9599991       2.72638339E-04
   20.0000000       3.27610120E-04
   20.0400009       3.78310215E-04
   20.0799999       4.23753401E-04
   20.1200008       4.63030214E-04
   20.1599998       4.95323155E-04
   20.2000008       5.19921887E-04
   20.2399998       5.36236505E-04
   20.2800007       5.43809962E-04
   20.3199997       5.42328053E-04
   20.3600006       5.31628029E-04
   20.3999996       5.11704886E-04
   20.4400005       4.82715841E-04
   20.4799995       4.44982492E-04
   20.5200005       3.98990640E-04
   20.5599995       3.45388078E-04
   20.6000004       2.84980022E-04
   20.6399994       2.18722300E-04
   20.6800003       1.47712373E-04
   20.7199993       7.31782857E-05
   20.7600002      -3.53461110E-06
   20.7999992      -8.09787161E-05
   20.8400002      -1.57621165E-04
   20.8799992      -2.31862519E-04
   20.9200001      -3.02056986E-04
   20.9599991      -3.66533961E-04
   21.0000000      -4.23620775E-04
   21.0400009      -4.71666310E-04
   21.0799999      -5.09065227E-04
   21.1200008      -5.34282532E-04
   21.1599998      -5.45878196E-04
   21.2000008      -5.42531488E-04
   21.2399998      -5.23064693E-04
   21.2800007      -4.86465520E-04
   21.3199997      -4.31908440E-04
   21.3600006      -3.58774123E-04
   21.3999996      -2.66666844E-04
   21.4400005      -1.55429254E-04
   21.4799995      -2.51545825E-05
   21.5200005       1.23804173E-04
   21.5599995       2.90828553E-04
   21.6000004       4.75032226E-04
   21.6399994       6.75262359E-04
   21.6800003       8.90104566E-04
   21.7199993       1.11789198E-03
   21.7600002       1.35671790E-03
   21.7999992       1.60445191E-03
   21.8400002       1.85876002E-03
   21.8799992       2.11712811E-03
   21.9200001       2.37688841E-03
   21.9599991       2.63524847E-03
   22.0000000       2.88932351E-03
   22.0400009       3.13617010E-03
   22.0799999       3.37282126E-03
   22.1200008       3.59632331E-03
   22.1599998       3.80377262E-03
   22.2000008       3.99235310E-03
   22.2399998       4.15937137E-03
   22.2800007       4.30229492E-03
   22.3199997       4.41878289E-03
   22.3600006       4.50671883E-03
   22.3999996       4.56424057E-03
   22.4400005       4.58976487E-03
   22.4799995       4.58201161E-03
   22.5200005       4.54002107E-03
   22.5599995       4.46316879E-03
   22.6000004       4.35117772E-03
   22.6399994       4.20412421E-03
   22.6800003       4.02243948E-03
   22.7199993       3.80690675E-03
   22.7600002       3.55865527E-03
   22.7999992       3.27914907E-03
   22.8400002       2.97017116E-03
   22.8799992       2.63380562E-03
   22.9200001       2.27241335E-03
   22.9599991       1.88860763E-03
   23.0000000       1.48522481E-03
   23.0400009       1.06529309E-03
   23.0799999       6.31999283E-04
   23.1200008       1.88654361E-04
   23.1599998      -2.61342473E-04
   23.2000008      -7.14540249E-04
   23.2399998      -1.16747257E-03
   23.2800007      -1.61669380E-03
   23.3199997      -2.05881428E-03
   23.3600006      -2.49053491E-03
   23.3999996      -2.90867966E-03
   23.4400005      -3.31022544E-03
   23.4799995      -3.69233219E-03
   23.5200005      -4.05236753E-03
   23.5599995      -4.38793004E-03
   23.6000004      -4.69686976E-03
   23.6399994      -4.97730449E-03
   23.6800003      -5.22763422E-03
   23.7199993      -5.44654857E-03
   23.7600002      -5.63303614E-03
   23.7999992      -5.78638399E-03
   23.8400002      -5.90618001E-03
   23.8799992      -5.99230640E-03
   23.9200001      -6.04493311E-03
   23.9599991      -6.06450858E-03
   24.0000000      -6.05174480E-03
   24.0400009      -6.00760151E-03
   24.0799999      -5.93327032E-03
   24.1200008      -5.83015289E-03
   24.1599998      -5.69983898E-03
   24.2000008      -5.54408506E-03
   24.2399998      -5.36478823E-03
   24.2800007      -5.16396295E-03
   24.3199997      -4.94371448E-03
   24.3600006      -4.70621465E-03
   24.3999996      -4.45367768E-03
   24.4400005      -4.18833550E-03
   24.4799995      -3.91241349E-03
   24.5200005      -3.62810935E-03
   24.5599995      -3.33757256E-03
   24.6000004      -3.04288650E-03
   24.6399994      -2.74605071E-03
   24.6800003      -2.44896649E-03
   24.7199993      -2.15342501E-03
   24.7600002      -1.86109648E-03
   24.7999992      -1.57352281E-03
   24.8400002      -1.29211193E-03
   24.8799992      -1.01813348E-03
   24.9200001      -7.52718188E-04
   24.9599991      -4.96857101E-04
   25.0000000      -2.51404446E-04
   25.0400009      -1.70810999E-05
   25.0799999       2.05520308E-04
   25.1200008       4.15929127E-04
   25.1599998       6.13789307E-04
   25.2000008       7.98851368E-04
   25.2399998       9.70963680E-04
   25.2800007       1.13006355E-03
   25.3199997       1.27616769E-03
   25.3600006       1.40936393E-03
   25.3999996       1.52980187E-03
   25.4400005       1.63768465E-03
   25.4799995       1.73326151E-03
   25.5200005       1.81682059E-03
   25.5599995       1.88868248E-03
   25.6000004       1.94919494E-03
   25.6399994       1.99872814E-03
   25.6800003       2.03767046E-03
   25.7199993       2.06642551E-03
   25.7600002       2.08540866E-03
   25.7999992       2.09504645E-03
   25.8400002       2.09577382E-03
   25.8799992       2.08803313E-03
   25.9200001       2.07227399E-03
   25.9599991       2.04895320E-03
   26.0000000       2.01853388E-03
   26.0400009       1.98148517E-03
   26.0799999       1.93828309E-03
   26.1200008       1.88940903E-03
   26.1599998       1.83534983E-03
   26.2000008       1.77659688E-03
   26.2399998       1.71364436E-03
   26.2800007       1.64698798E-03
   26.3199997       1.57712295E-03
   26.3600006       1.50454184E-03
   26.3999996       1.42973103E-03
   26.4400005       1.35316816E-03
   26.4799995       1.27531891E-03
   26.5200005       1.19663333E-03
   26.5599995       1.11754227E-03
   26.6000004       1.03845354E-03
   26.6399994       9.59748286E-04
   26.6800003       8.81777727E-04
   26.7199993       8.04859505E-04
   26.7600002       7.29274820E-04
   26.7999992       6.55265583E-04
   26.8400002       5.83032437E-04
   26.8799992       5.12733066E-04
   26.9200001       4.44481062E-04
   26.9599991       3.78345780E-04
   27.0000000       3.14352714E-04
   27.0400009       2.52484810E-04
   27.0799999       1.92684427E-04
   27.1200008       1.34856033E-04
   27.1599998       7.88697798E-05
   27.2000008       2.45656483E-05
   27.2399998      -2.82418478E-05
   27.2800007      -7.97583562E-05
   27.3199997      -1.30203989E-04
   27.3600006      -1.79807306E-04
   27.3999996      -2.28798919E-04
   27.4400005      -2.77405081E-04
   27.4799995      -3.25841102E-04
   27.5200005      -3.74304829E-04
   27.5599995      -4.22970363E-04
   27.6000004      -4.71981766E-04
   27.6399994      -5.21447568E-04
   27.6800003      -5.71435317E-04
   27.7199993      -6.21967076E-04
   27.7600002      -6.73015544E-04
   27.7999992      -7.24500802E-04
   27.8400002      -7.76288041E-04
   27.8799992      -8.28186458E-04
   27.9200001      -8.79948668E-04
   27.9599991      -9.31271526E-04
   28.0000000      -9.81797697E-04
   28.0400009      -1.03111856E-03
   28.0799999      -1.07877748E-03
   28.1200008      -1.12427515E-03
   28.1599998      -1.16707420E-03
   28.2000008      -1.20660686E-03
   28.2399998      -1.24228129E-03
   28.2800007      -1.27349014E-03
   28.3199997      -1.29961909E-03
   28.3600006      -1.32005580E-03
   28.3999996      -1.33419968E-03
   28.4400005      -1.34147156E-03
   28.4799995      -1.34132383E-03
   28.5200005      -1.33325020E-03
   28.5599995      -1.31679536E-03
   28.6000004      -1.29156443E-03
   28.6399994      -1.25723216E-03
   28.6800003      -1.21355103E-03
   28.7199993      -1.16035901E-03
   28.7600002      -1.09758624E-03
   28.7999992      -1.02526043E-03
   28.8400002      -9.43511666E-04
   28.8799992      -8.52574827E-04
   28.9200001      -7.52791588E-04
   28.9599991      -6.44610380E-04
   29.0000000      -5.28584758E-04
   29.0400009      -4.05370141E-04
   29.0799999      -2.75718950E-04
   29.1200008      -1.40474178E-04
   29.1599998      -5.61302272E-07
   29.2000008       1.43021229E-04
   29.2399998       2.89212854E-04
   29.2800007       4.36903094E-04
   29.3199997       5.84944850E-04
   29.3600006       7.32168439E-04
   29.3999996       8.77396611E-04
   29.4400005       1.01946015E-03
   29.4799995       1.15721347E-03