  -8.00000000       0.00000000
  -7.84000015       0.00000000
  -7.67999983       0.00000000
  -7.51999998       0.00000000
  -7.36000013       0.00000000
  -7.19999981      -3.32562619E-26
  -7.03999996       9.37881774E-21
  -6.88000011      -4.59392899E-19
  -6.71999979      -1.81951383E-18
  -6.55999994      -6.05456194E-19
  -6.40000010       4.61286202E-18
  -6.23999977      -1.12643562E-17
  -6.07999992      -7.47157969E-17
  -5.92000008      -7.47323471E-17
  -5.76000023       2.31562132E-16
  -5.59999990       6.48862284E-16
  -5.44000006       1.69701016E-17
  -5.28000021      -2.36233042E-15
  -5.11999989      -3.54416309E-15
  -4.96000004       2.15585216E-15
  -4.80000019       1.30532817E-14
  -4.63999987       1.13433551E-14
  -4.48000002      -2.01851272E-14
  -4.32000017      -5.68086126E-14
  -4.15999985      -2.48412808E-14
  -4.00000000       1.08099815E-13
  -3.83999991       2.08385243E-13
  -3.68000007       2.79641710E-14
  -3.51999998      -4.57286986E-13
  -3.35999990      -7.32352709E-13
  -3.20000005      -4.80105898E-14
  -3.03999996       1.54340549E-12
  -2.88000011       2.44131516E-12
  -2.72000003       5.16514349E-13
  -2.55999994      -4.12922257E-12
  -2.40000010      -7.35389180E-12
  -2.24000001      -3.49193721E-12
  -2.07999992       8.10437047E-12
  -1.91999996       1.85477154E-11
  -1.75999999       1.42136251E-11
  -1.60000002      -9.46205007E-12
  -1.44000006      -3.70679563E-11
  -1.27999997      -4.00317765E-11
  -1.12000000      -2.31629299E-12
 -0.959999979       5.55974225E-11
 -0.800000012       8.25491411E-11
 -0.639999986       3.87040573E-11
 -0.479999989      -5.79444930E-11
 -0.319999993      -1.29470143E-10
 -0.159999996      -9.83705756E-11
   1.66533454E-16   3.30988743E-11
  0.159999996       1.62502872E-10
  0.319999993       1.64270791E-10
  0.479999989       1.03218311E-11
  0.639999986      -1.79883400E-10
  0.800000012      -2.28220054E-10
  0.959999979      -6.45547921E-11
   1.12000000       1.84293025E-10
   1.27999997       2.89296420E-10
   1.44000006       1.32992672E-10
   1.60000002      -1.57127020E-10
   1.75999999      -3.05087622E-10
   1.91999996      -1.48773313E-10
   2.07999992       1.75776393E-10
   2.24000001       3.27300242E-10
   2.40000010       7.58763052E-11
   2.55999994      -4.39007525E-10
   2.72000003      -7.64627250E-10
   2.88000011      -4.86817919E-10
   3.03999996       4.10969536E-10
   3.20000005       1.47927348E-09
   3.35999990       2.06822892E-09
   3.51999998       1.70191117E-09
   3.68000007       3.01024039E-10
   3.83999991      -1.81296222E-09
   4.00000000      -4.01307876E-09
   4.15999985      -5.46111512E-09
   4.32000017      -5.25922950E-09
   4.48000002      -2.76663270E-09
   4.63999987       1.99818362E-09
   4.80000019       8.18481816E-09
   4.96000004       1.44335459E-08
   5.11999989       1.95372341E-08
   5.28000021       2.28393962E-08
   5.44000006       2.37835849E-08
   5.59999990       2.06196873E-08
   5.76000023       8.93798102E-09
   5.92000008      -1.92621918E-08
   6.07999992      -7.60609424E-08
   6.23999977      -1.78806843E-07
   6.40000010      -3.53563678E-07
   6.55999994      -6.41820350E-07
   6.71999979      -1.11057113E-06
   6.88000011      -1.86565342E-06
   7.03999996      -3.06914603E-06
   7.19999981      -4.96306438E-06
   7.36000013      -7.90234753E-06
   7.51999998      -1.23995396E-05
   7.67999983      -1.91821364E-05
   7.84000015      -2.92619916E-05
   8.00000000      -4.40155382E-05
   8.15999985      -6.52728122E-05
   8.31999969      -9.54114512E-05
   8.47999954      -1.37447831E-04
   8.64000034      -1.95112036E-04
   8.80000019      -2.72887206E-04
   8.96000004      -3.75989941E-04
   9.11999989      -5.10266109E-04
   9.27999973      -6.81977253E-04
   9.43999958      -8.97455902E-04
   9.60000038      -1.16261176E-03
   9.76000023      -1.48228230E-03
   9.92000008      -1.85943407E-03
   10.0799999      -2.29424983E-03
   10.2399998      -2.78315507E-03
   10.3999996      -3.31786997E-03
   10.5600004      -3.88459046E-03
   10.7200003      -4.46342118E-03
   10.8800001      -5.02818963E-03
   11.0400000      -5.54675562E-03
   11.1999998      -5.98192727E-03
   11.3599997      -6.29302999E-03
   11.5200005      -6.43813517E-03
   11.6800003      -6.37688860E-03
   11.8400002      -6.07376592E-03
   12.0000000      -5.50154829E-03
   12.1599998      -4.64472268E-03
   12.3199997      -3.50246299E-03
   12.4799995      -2.09086761E-03
   12.6400003      -4.44119010E-04
   12.8000002       1.38567737E-03
   12.9600000       3.33012501E-03
   13.1199999       5.30766230E-03
   13.2799997       7.22805317E-03
   13.4399996       8.99796467E-03
   13.6000004       1.05272168E-02
   13.7600002       1.17351953E-02
   13.9200001       1.25568528E-02
   14.0799999       1.29477438E-02
   14.2399998       1.28875850E-02
   14.3999996       1.23819904E-02
   14.5600004       1.14621865E-02
   14.7200003       1.01826778E-02
   14.8800001       8.61708913E-03
   15.0400000       6.85252668E-03
   15.1999998       4.98301070E-03
   15.3599997       3.10257729E-03
   15.5200005       1.29870756E-03
   15.6800003      -3.53334413E-04
   15.8400002      -1.79477129E-03
   16.0000000      -2.98587908E-03
   16.1599998      -3.90671799E-03
   16.3199997      -4.55609709E-03
   16.4799995      -4.94902534E-03
   16.6399994      -5.11305872E-03
   16.7999992      -5.08403452E-03
   16.9599991      -4.90172207E-03
   17.1200008      -4.60587721E-03
   17.2800007      -4.23309114E-03
   17.4400005      -3.81469005E-03
   17.6000004      -3.37578100E-03
   17.7600002      -2.93535809E-03
   17.9200001      -2.50725448E-03
   18.0799999      -2.10160040E-03
   18.2399998      -1.72641408E-03
   18.3999996      -1.38895586E-03
   18.5599995      -1.09655410E-03
   18.7199993      -8.56719154E-04
   18.8799992      -6.76517258E-04
   19.0400009      -5.61326742E-04
   19.2000008      -5.13244886E-04
   19.3600006      -5.29509387E-04
   19.5200005      -6.01330481E-04
   19.6800003      -7.13498332E-04
   19.8400002      -8.45027040E-04
   20.0000000      -9.70945985E-04
   20.1599998      -1.06516620E-03
   20.3199997      -1.10416254E-03
   20.4799995      -1.07103668E-03
   20.6399994      -9.59416968E-04
   20.7999992      -7.76600675E-04
   20.9599991      -5.45394199E-04
   21.1200008      -3.04219109E-04
   21.2800007      -1.05247906E-04
   21.4400005      -1.05582394E-05
   21.6000004      -8.65410038E-05
   21.7600002      -3.97027179E-04
   21.9200001      -9.95780574E-04
   22.0799999      -1.91911578E-03
   22.2399998      -3.17943702E-03
   22.3999996      -4.76043159E-03
   22.5599995      -6.61451416E-03
   22.7199993      -8.66290461E-03
   22.8799992      -1.07984897E-02
   23.0400009      -1.28913475E-02
   23.2000008      -1.47965811E-02
   23.3600006      -1.63638610E-02
   23.5200005      -1.74479634E-02
   23.6800003      -1.79194529E-02
   23.8400002      -1.76746752E-02
   24.0000000      -1.66442767E-02
   24.1599998      -1.47995567E-02
   24.3199997      -1.21561773E-02
   24.4799995      -8.77493713E-03
   24.6399994      -4.75953100E-03
   24.7999992      -2.51479767E-04
   24.9599991       4.57742391E-03
   25.1200008       9.53459553E-03
   25.2800007       1.44173903E-02
   25.4400005       1.90243702E-02
   25.6000004       2.31663063E-02
   25.7600002       2.66762394E-02
   25.9200001       2.94179376E-02
   26.0799999       3.12923081E-02
   26.2399998       3.22413817E-02
   26.3999996       3.22497785E-02
   26.5599995       3.13437060E-02
   26.7199993       2.95876227E-02
   26.8799992       2.70789731E-02
   27.0400009       2.39414070E-02
   27.2000008       2.03170534E-02
   27.3600006       1.63583327E-02
   27.5200005       1.22198788E-02
   27.6800003       8.05098191E-03
   27.8400002       3.98899941E-03
   28.0000000       1.53984744E-04
   28.1599998      -3.35522392E-03
   28.3199997      -6.46340661E-03
   28.4799995      -9.11985617E-03
   28.6399994      -1.12978537E-02
   28.7999992      -1.29929092E-02
   28.9599991      -1.42199798E-02
   29.1200008      -1.50099285E-02
   29.2800007      -1.54055161E-02
   29.4400005      -1.54571971E-02
   29.6000004      -1.52190113E-02
   29.7600002      -1.47448042E-02
   29.9200001      -1.40849976E-02
   30.0799999      -1.32840844E-02
   30.2399998      -1.23789590E-02
   30.3999996      -1.13981282E-02
   30.5599995      -1.03617795E-02
   30.7199993      -9.28264670E-03
   30.8799992      -8.16750433E-03
   31.0400009      -7.01913424E-03
   31.2000008      -5.83855435E-03
   31.3600006      -4.62725945E-03
   31.5200005      -3.38926003E-03
   31.6800003      -2.13270751E-03
   31.8400002      -8.70966585E-04
