  -8.00000000       0.00000000
  -7.84000015       0.00000000
  -7.67999983       0.00000000
  -7.51999998       0.00000000
  -7.36000013       0.00000000
  -7.19999981      -7.00031936E-22
  -7.03999996       1.14509405E-16
  -6.88000011       8.10384214E-16
  -6.71999979      -5.79041781E-16
  -6.55999994      -2.13497111E-14
  -6.40000010      -8.55190417E-14
  -6.23999977      -1.31353451E-13
  -6.07999992       1.17022684E-13
  -5.92000008       9.63286850E-13
  -5.76000023       1.92979183E-12
  -5.59999990       1.08408562E-12
  -5.44000006      -3.49994513E-12
  -5.28000021      -9.55868457E-12
  -5.11999989      -8.21392086E-12
  -4.96000004       9.21652771E-12
  -4.80000019       3.56897255E-11
  -4.63999987       4.14266087E-11
  -4.48000002      -3.22069671E-12
  -4.32000017      -8.22455853E-11
  -4.15999985      -1.16332215E-10
  -4.00000000      -2.34494663E-11
  -3.83999991       1.69909115E-10
  -3.68000007       2.88351704E-10
  -3.51999998       1.41039222E-10
  -3.35999990      -2.43192189E-10
  -3.20000005      -5.28733446E-10
  -3.03999996      -3.23274130E-10
  -2.88000011       3.81243259E-10
  -2.72000003       1.02391851E-09
  -2.55999994       8.67892536E-10
  -2.40000010      -2.62049854E-10
  -2.24000001      -1.59429925E-09
  -2.07999992      -1.88835858E-09
  -1.91999996      -5.04684905E-10
  -1.75999999       1.85213023E-09
  -1.60000002       3.45808937E-09
  -1.44000006       2.80829271E-09
  -1.27999997      -1.69719946E-10
  -1.12000000      -3.84787313E-09
 -0.959999979      -5.78380499E-09
 -0.800000012      -4.23142144E-09
 -0.639999986       5.68747272E-10
 -0.479999989       6.09661432E-09
 -0.319999993       8.69992789E-09
 -0.159999996       5.90203975E-09
   1.66533454E-16  -1.43895862E-09
  0.159999996      -8.94783181E-09
  0.319999993      -1.13525225E-08
  0.479999989      -6.42637810E-09
  0.639999986       2.89362223E-09
  0.800000012       1.03635251E-08
  0.959999979       1.10966116E-08
   1.12000000       5.19308818E-09
   1.27999997      -2.74133205E-09
   1.44000006      -7.55232765E-09
   1.60000002      -7.26424698E-09
   1.75999999      -3.46688056E-09
   1.91999996       1.25828803E-09
   2.07999992       5.79758641E-09
   2.24000001       1.04841336E-08
   2.40000010       1.52114357E-08
   2.55999994       1.82193691E-08
   2.72000003       1.71376726E-08
   2.88000011       1.13849614E-08
   3.03999996       3.60965235E-09
   3.20000005      -1.39226330E-09
   3.35999990       4.20595885E-11
   3.51999998       6.76149803E-09
   3.68000007       1.08380220E-08
   3.83999991      -1.39823253E-09
   4.00000000      -4.58238709E-08
   4.15999985      -1.36981640E-07
   4.32000017      -2.87823241E-07
   4.48000002      -5.14399460E-07
   4.63999987      -8.43966745E-07
   4.80000019      -1.32267053E-06
   4.96000004      -2.01967987E-06
   5.11999989      -3.02787907E-06
   5.28000021      -4.46425383E-06
   5.44000006      -6.47397110E-06
   5.59999990      -9.24063625E-06
   5.76000023      -1.30025364E-05
   5.92000008      -1.80712250E-05
   6.07999992      -2.48457673E-05
   6.23999977      -3.38149257E-05
   6.40000010      -4.55424633E-05
   6.55999994      -6.06367066E-05
   6.71999979      -7.97091925E-05
   6.88000011      -1.03326136E-04
   7.03999996      -1.31950655E-04
   7.19999981      -1.65870704E-04
   7.36000013      -2.05112257E-04
   7.51999998      -2.49344797E-04
   7.67999983      -2.97793449E-04
   7.84000015      -3.49172944E-04
   8.00000000      -4.01654717E-04
   8.15999985      -4.52878798E-04
   8.31999969      -5.00022259E-04
   8.47999954      -5.39926521E-04
   8.64000034      -5.69280703E-04
   8.80000019      -5.84846188E-04
   8.96000004      -5.83699439E-04
   9.11999989      -5.63477632E-04
   9.27999973      -5.22613409E-04
   9.43999958      -4.60542564E-04
   9.60000038      -3.77860270E-04
   9.76000023      -2.76400766E-04
   9.92000008      -1.59217496E-04
   10.0799999      -3.04578807E-05
   10.2399998       1.04857398E-04
   10.3999996       2.41128640E-04
   10.5600004       3.72517883E-04
   10.7200003       4.93310275E-04
   10.8800001       5.98270621E-04
   11.0400000       6.82971615E-04
   11.1999998       7.44068297E-04
   11.3599997       7.79498019E-04
   11.5200005       7.88589765E-04
   11.6800003       7.72071828E-04
   11.8400002       7.31982524E-04
   12.0000000       6.71497139E-04
   12.1599998       5.94689860E-04
   12.3199997       5.06248267E-04
   12.4799995       4.11154178E-04
   12.6400003       3.14344943E-04
   12.8000002       2.20386224E-04
   12.9600000       1.33182431E-04
   13.1199999       5.57539242E-05
   13.2799997      -9.90794342E-06
   13.4399996      -6.29026908E-05
   13.6000004      -1.03397913E-04
   13.7600002      -1.32522808E-04
   13.9200001      -1.52184453E-04
   14.0799999      -1.64821016E-04
   14.2399998      -1.73111475E-04
   14.3999996      -1.79662136E-04
   14.5600004      -1.86687423E-04
   14.7200003      -1.95711866E-04
   14.8800001      -2.07322591E-04
   15.0400000      -2.21004637E-04
   15.1999998      -2.35083033E-04
   15.3599997      -2.46781710E-04
   15.5200005      -2.52397585E-04
   15.6800003      -2.47577118E-04
   15.8400002      -2.27679062E-04
   16.0000000      -1.88200778E-04
   16.1599998      -1.25241815E-04
   16.3199997      -3.59724254E-05
   16.4799995       8.09358316E-05
   16.6399994       2.24966512E-04
   16.7999992       3.93549009E-04
   16.9599991       5.82016422E-04
   17.1200008       7.83741649E-04
   17.2800007       9.90441767E-04
   17.4400005       1.19262433E-03
   17.6000004       1.38013985E-03
   17.7600002       1.54279219E-03
   17.9200001       1.67095219E-03
   18.0799999       1.75611943E-03
   18.2399998       1.79139001E-03
   18.3999996       1.77181186E-03
   18.5599995       1.69461698E-03
   18.7199993       1.55933714E-03
   18.8799992       1.36780995E-03
   19.0400009       1.12409506E-03
   19.2000008       8.34323349E-04
   19.3600006       5.06500248E-04
   19.5200005       1.50265842E-04
   19.6800003      -2.23387731E-04
   19.8400002      -6.02447020E-04
   20.0000000      -9.74256138E-04
   20.1599998      -1.32593990E-03
   20.3199997      -1.64487411E-03
   20.4799995      -1.91920355E-03
   20.6399994      -2.13840557E-03
   20.7999992      -2.29387963E-03
   20.9599991      -2.37951777E-03
   21.1200008      -2.39220588E-03
   21.2800007      -2.33219517E-03
   21.4400005      -2.20329314E-03
   21.6000004      -2.01282627E-03
   21.7600002      -1.77134143E-03
   21.9200001      -1.49204349E-03
   22.0799999      -1.18998962E-03
   22.2399998      -8.81083368E-04
   22.3999996      -5.80943190E-04
   22.5599995      -3.03742709E-04
   22.7199993      -6.11303549E-05
   22.8799992       1.38653719E-04
   23.0400009       2.91354721E-04
   23.2000008       3.96900374E-04
   23.3600006       4.59183619E-04
   23.5200005       4.85445256E-04
   23.6800003       4.85316676E-04
   23.8400002       4.69622086E-04
   24.0000000       4.49073705E-04
   24.1599998       4.33007226E-04
   24.3199997       4.28301806E-04
   24.4799995       4.38610121E-04
   24.6399994       4.63984994E-04
   24.7999992       5.00943745E-04
   24.9599991       5.42955298E-04
   25.1200008       5.81285567E-04
   25.2800007       6.06097223E-04
   25.4400005       6.07683673E-04
   25.6000004       5.77707076E-04
   25.7600002       5.10313723E-04
   25.9200001       4.03008627E-04
   26.0799999       2.57198262E-04
   26.2399998       7.83406576E-05
   26.3999996      -1.24308644E-04
   26.5599995      -3.38327838E-04
   26.7199993      -5.49077347E-04
   26.8799992      -7.40878284E-04
   27.0400009      -8.98311962E-04
   27.2000008      -1.00751827E-03
   27.3600006      -1.05737464E-03
   27.5200005      -1.04045379E-03
   27.6800003      -9.53688170E-04
   27.8400002      -7.98695430E-04
   28.0000000      -5.81740693E-04
   28.1599998      -3.13348981E-04
   28.3199997      -7.60797002E-06
   28.4799995       3.18764418E-04
   28.6399994       6.47498062E-04
   28.7999992       9.59909055E-04
   28.9599991       1.23802770E-03
   29.1200008       1.46565982E-03
   29.2800007       1.62933592E-03
   29.4400005       1.71910599E-03
   29.6000004       1.72914902E-03
   29.7600002       1.65816559E-03
   29.9200001       1.50953152E-03
   30.0799999       1.29119086E-03
   30.2399998       1.01527199E-03
   30.3999996       6.97416777E-04
   30.5599995       3.55835742E-04
   30.7199993       1.01260657E-05
   30.8799992      -3.20079387E-04
   31.0400009      -6.16531179E-04
   31.2000008      -8.63727299E-04
   31.3600006      -1.05009018E-03
   31.5200005      -1.16883044E-03
   31.6800003      -1.21839601E-03
   31.8400002      -1.20244152E-03
