  -8.00000000       0.00000000
  -7.84000015       0.00000000
  -7.67999983       0.00000000
  -7.51999998       0.00000000
  -7.36000013       0.00000000
  -7.19999981       0.00000000
  -7.03999996       0.00000000
  -6.88000011       0.00000000
  -6.71999979       2.50709625E-26
  -6.55999994       4.97774929E-25
  -6.40000010       5.69017322E-24
  -6.23999977       4.04802270E-23
  -6.07999992       1.41430669E-22
  -5.92000008       1.05557667E-22
  -5.76000023      -9.07153589E-22
  -5.59999990      -3.07561706E-21
  -5.44000006      -1.50358312E-21
  -5.28000021       1.20885871E-20
  -5.11999989       2.46395407E-20
  -4.96000004      -1.85810405E-20
  -4.80000019      -1.25823348E-19
  -4.63999987      -7.40572347E-20
  -4.48000002       4.34731957E-19
  -4.32000017       8.59141682E-19
  -4.15999985      -6.52917284E-19
  -4.00000000      -4.42424623E-18
  -3.83999991      -4.02281093E-18
  -3.68000007       1.04949549E-17
  -3.51999998       3.07948754E-17
  -3.35999990       1.20256080E-17
  -3.20000005      -8.31992818E-17
  -3.03999996      -1.69911950E-16
  -2.88000011      -1.31489267E-17
  -2.72000003       4.83086607E-16
  -2.55999994       8.00149250E-16
  -2.40000010      -8.14389753E-17
  -2.24000001      -2.28508292E-15
  -2.07999992      -3.37457270E-15
  -1.91999996       5.32277039E-16
  -1.75999999       9.20579463E-15
  -1.60000002       1.31006927E-14
  -1.44000006      -1.27030029E-15
  -1.27999997      -3.21585376E-14
  -1.12000000      -4.72379907E-14
 -0.959999979      -2.78344323E-15
 -0.800000012       9.72987085E-14
 -0.639999986       1.57085228E-13
 -0.479999989       4.35024297E-14
 -0.319999993      -2.49446514E-13
 -0.159999996      -4.73021253E-13
   1.66533454E-16  -2.50322983E-13
  0.159999996       5.10227169E-13
  0.319999993       1.25647257E-12
  0.479999989       1.01343933E-12
  0.639999986      -6.83337067E-13
  0.800000012      -2.83863601E-12
  0.959999979      -3.20599905E-12
   1.12000000      -1.37650186E-13
   1.27999997       5.12353918E-12
   1.44000006       8.11425840E-12
   1.60000002       4.24815218E-12
   1.75999999      -6.27916209E-12
   1.91999996      -1.61940669E-11
   2.07999992      -1.51703042E-11
   2.24000001       1.10604245E-12
   2.40000010       2.39163602E-11
   2.55999994       3.44899838E-11
   2.72000003       1.80364959E-11
   2.88000011      -2.07192718E-11
   3.03999996      -5.50047681E-11
   3.20000005      -5.33363700E-11
   3.35999990      -6.67095155E-12
   3.51999998       5.71923238E-11
   3.68000007       8.89529006E-11
   3.83999991       5.63451300E-11
   4.00000000      -2.42120074E-11
   4.15999985      -9.34997774E-11
   4.32000017      -9.49008233E-11
   4.48000002      -2.44959643E-11
   4.63999987       5.98556760E-11
   4.80000019       8.52417234E-11
   4.96000004       3.03249717E-11
   5.11999989      -4.87935491E-11
   5.28000021      -6.45243095E-11
   5.44000006       1.76484626E-11
   5.59999990       1.31746877E-10
   5.76000023       1.53923471E-10
   5.92000008       1.19623113E-11
   6.07999992      -2.27703023E-10
   6.23999977      -3.80046689E-10
   6.40000010      -2.73255807E-10
   6.55999994       9.80007811E-11
   6.71999979       5.21105881E-10
   6.88000011       6.77934930E-10
   7.03999996       3.66427166E-10
   7.19999981      -3.14746784E-10
   7.36000013      -9.62426694E-10
   7.51999998      -1.08600506E-09
   7.67999983      -4.36773701E-10
   7.84000015       7.58064889E-10
   8.00000000       1.83867854E-09
   8.15999985       2.05836836E-09
   8.31999969       1.05178721E-09
   8.47999954      -8.71841210E-10
   8.64000034      -2.83299006E-09
   8.80000019      -3.85418186E-09
   8.96000004      -3.39873885E-09
   9.11999989      -1.59133362E-09
   9.27999973       1.05386988E-09
   9.43999958       4.18494084E-09
   9.60000038       7.96083022E-09
   9.76000023       1.28150059E-08
   9.92000008       1.87055118E-08
   10.0799999       2.43884966E-08
   10.2399998       2.73059406E-08
   10.3999996       2.41812899E-08
   10.5600004       1.16970087E-08
   10.7200003      -1.37386440E-08
   10.8800001      -5.78087409E-08
   11.0400000      -1.31605660E-07
   11.1999998      -2.55851887E-07
   11.3599997      -4.65691159E-07
   11.5200005      -8.16669115E-07
   11.6800003      -1.39348549E-06
   11.8400002      -2.32338652E-06
   12.0000000      -3.79557468E-06
   12.1599998      -6.08727260E-06
   12.3199997      -9.59668887E-06
   12.4799995      -1.48832105E-05
   12.6400003      -2.27151031E-05
   12.8000002      -3.41240884E-05
   12.9600000      -5.04641393E-05
   13.1199999      -7.34690329E-05
   13.2799997      -1.05300278E-04
   13.4399996      -1.48574807E-04
   13.6000004      -2.06359604E-04
   13.7600002      -2.82119174E-04
   13.9200001      -3.79600620E-04
   14.0799999      -5.02641487E-04
   14.2399998      -6.54889329E-04
   14.3999996      -8.39428045E-04
   14.5600004      -1.05831726E-03
   14.7200003      -1.31206354E-03
   14.8800001      -1.59905758E-03
   15.0400000      -1.91502564E-03
   15.1999998      -2.25255475E-03
   15.3599997      -2.60076392E-03
   15.5200005      -2.94519425E-03
   15.6800003      -3.26798204E-03
   15.8400002      -3.54837510E-03
   16.0000000      -3.76361609E-03
   16.1599998      -3.89019097E-03
   16.3199997      -3.90539248E-03
   16.4799995      -3.78911360E-03
   16.6399994      -3.52573488E-03
   16.7999992      -3.10594193E-03
   16.9599991      -2.52829259E-03
   17.1200008      -1.80035539E-03
   17.2800007      -9.39254940E-04
   17.4400005       2.84846992E-05
   17.6000004       1.06786028E-03
   17.7600002       2.13705772E-03
   17.9200001       3.18977516E-03
   18.0799999       4.17803461E-03
   18.2399998       5.05525479E-03
   18.3999996       5.77933248E-03
   18.5599995       6.31544972E-03
   18.7199993       6.63837837E-03
   18.8799992       6.73406431E-03
   19.0400009       6.60038507E-03
   19.2000008       6.24700775E-03
   19.3600006       5.69440844E-03
   19.5200005       4.97215474E-03
   19.6800003       4.11663949E-03
   19.8400002       3.16849188E-03
   20.0000000       2.16990290E-03
   20.1599998       1.16208778E-03
   20.3199997       1.83075215E-04
   20.4799995      -7.34035391E-04
   20.6399994      -1.56226614E-03
   20.7999992      -2.28137942E-03
   20.9599991      -2.87795230E-03
   21.1200008      -3.34497960E-03
   21.2800007      -3.68111976E-03
   21.4400005      -3.88969551E-03
   21.6000004      -3.97758977E-03
   21.7600002      -3.95414047E-03
   21.9200001      -3.83014092E-03
   22.0799999      -3.61701800E-03
   22.2399998      -3.32624349E-03
   22.3999996      -2.96899863E-03
   22.5599995      -2.55608675E-03
   22.7199993      -2.09806208E-03
   22.8799992      -1.60551863E-03
   23.0400009      -1.08945754E-03
   23.2000008      -5.61646943E-04
   23.3600006      -3.48806061E-05
   23.5200005       4.76945017E-04
   23.6800003       9.58993332E-04
   23.8400002       1.39591284E-03
   24.0000000       1.77251233E-03
   24.1599998       2.07463140E-03
   24.3199997       2.29011453E-03
   24.4799995       2.40977877E-03
   24.6399994       2.42824364E-03
   24.7999992       2.34451494E-03
   24.9599991       2.16223905E-03
   25.1200008       1.88957946E-03
   25.2800007       1.53873663E-03
   25.4400005       1.12516526E-03
   25.6000004       6.66601816E-04
   25.7600002       1.82029878E-04
   25.9200001      -3.09280062E-04
   26.0799999      -7.88543082E-04
   26.2399998      -1.23797113E-03
   26.3999996      -1.64100563E-03
   26.5599995      -1.98230962E-03
   26.7199993      -2.24761828E-03
   26.8799992      -2.42358260E-03
   27.0400009      -2.49774870E-03
   27.2000008      -2.45880568E-03
   27.3600006      -2.29717814E-03
   27.5200005      -2.00598035E-03
   27.6800003      -1.58226490E-03
   27.8400002      -1.02843216E-03
   28.0000000      -3.53597978E-04
   28.1599998       4.25310805E-04
   28.3199997       1.28296786E-03
   28.4799995       2.18576309E-03
   28.6399994       3.09274672E-03
   28.7999992       3.95743316E-03
   28.9599991       4.73038573E-03
   29.1200008       5.36240451E-03
   29.2800007       5.80803677E-03
   29.4400005       6.02909643E-03
   29.6000004       5.99783473E-03
   29.7600002       5.69944968E-03
   29.9200001       5.13367075E-03
   30.0799999       4.31526639E-03
   30.2399998       3.27340607E-03
   30.3999996       2.04994786E-03
   30.5599995       6.96814794E-04
   30.7199993      -7.27295876E-04
   30.8799992      -2.16056942E-03
   31.0400009      -3.54178087E-03
   31.2000008      -4.81374888E-03
   31.3600006      -5.92628540E-03
   31.5200005      -6.83843996E-03
   31.6800003      -7.51993945E-03
   31.8400002      -7.95179047E-03
