  -8.00000000       0.00000000
  -7.84000015       0.00000000
  -7.67999983       0.00000000
  -7.51999998       0.00000000
  -7.36000013       0.00000000
  -7.19999981      -1.38680611E-23
  -7.03999996      -1.62660559E-18
  -6.88000011       1.50990075E-17
  -6.71999979       4.54504612E-17
  -6.55999994      -4.25508563E-16
  -6.40000010      -2.78862770E-15
  -6.23999977      -6.33168605E-15
  -6.07999992      -5.12014211E-16
  -5.92000008       3.47668705E-14
  -5.76000023       9.67737785E-14
  -5.59999990       1.05710606E-13
  -5.44000006      -7.89525915E-14
  -5.28000021      -4.69107392E-13
  -5.11999989      -6.93177232E-13
  -4.96000004      -8.87983602E-14
  -4.80000019       1.54404115E-12
  -4.63999987       3.03937778E-12
  -4.48000002       2.16686304E-12
  -4.32000017      -2.11989779E-12
  -4.15999985      -7.17527947E-12
  -4.00000000      -7.41174309E-12
  -3.83999991       3.63364422E-13
  -3.68000007       1.14961408E-11
  -3.51999998       1.54299039E-11
  -3.35999990       6.45858150E-12
  -3.20000005      -7.04234067E-12
  -3.03999996      -8.61413198E-12
  -2.88000011       5.93783833E-12
  -2.72000003       1.58040282E-11
  -2.55999994      -7.28137342E-12
  -2.40000010      -5.94694849E-11
  -2.24000001      -8.64954358E-11
  -2.07999992      -2.33204792E-11
  -1.91999996       1.29282821E-10
  -1.75999999       2.67383338E-10
  -1.60000002       2.45239079E-10
  -1.44000006       3.60811121E-12
  -1.27999997      -3.46610990E-10
  -1.12000000      -5.74472026E-10
 -0.959999979      -4.86342966E-10
 -0.800000012      -6.78270565E-11
 -0.639999986       4.93968699E-10
 -0.479999989       9.07582620E-10
 -0.319999993       9.18246368E-10
 -0.159999996       4.30435826E-10
   1.66533454E-16  -4.11011225E-10
  0.159999996      -1.21875277E-09
  0.319999993      -1.50955326E-09
  0.479999989      -1.00140018E-09
  0.639999986       1.13996465E-10
  0.800000012       1.19533217E-09
  0.959999979       1.56655033E-09
   1.12000000       1.04807762E-09
   1.27999997       1.35242095E-10
   1.44000006      -3.95366129E-10
   1.60000002      -1.51256008E-10
   1.75999999       5.23473431E-10
   1.91999996       8.31927194E-10
   2.07999992       2.02181244E-10
   2.24000001      -1.20416743E-09
   2.40000010      -2.51826182E-09
   2.55999994      -2.63597677E-09
   2.72000003      -7.86096632E-10
   2.88000011       3.08363068E-09
   3.03999996       8.20850588E-09
   3.20000005       1.32346063E-08
   3.35999990       1.67549459E-08
   3.51999998       1.79278068E-08
   3.68000007       1.67118746E-08
   3.83999991       1.33392746E-08
   4.00000000       7.15969062E-09
   4.15999985      -4.49650583E-09
   4.32000017      -2.68279372E-08
   4.48000002      -6.74786946E-08
   4.63999987      -1.36595290E-07
   4.80000019      -2.47943944E-07
   4.96000004      -4.21624549E-07
   5.11999989      -6.88387445E-07
   5.28000021      -1.09518851E-06
   5.44000006      -1.71145723E-06
   5.59999990      -2.63565880E-06
   5.76000023      -4.00217414E-06
   5.92000008      -5.98939732E-06
   6.07999992      -8.83044413E-06
   6.23999977      -1.28272241E-05
   6.40000010      -1.83665743E-05
   6.55999994      -2.59350854E-05
   6.71999979      -3.61283710E-05
   6.88000011      -4.96517750E-05
   7.03999996      -6.73104369E-05
   7.19999981      -8.99868828E-05
   7.36000013      -1.18602860E-04
   7.51999998      -1.54061083E-04
   7.67999983      -1.97162823E-04
   7.84000015      -2.48499855E-04
   8.00000000      -3.08323128E-04
   8.15999985      -3.76395765E-04
   8.31999969      -4.51842556E-04
   8.47999954      -5.33014245E-04
   8.64000034      -6.17388810E-04
   8.80000019      -7.01532816E-04
   8.96000004      -7.81143841E-04
   9.11999989      -8.51189834E-04
   9.27999973      -9.06153931E-04
   9.43999958      -9.40378988E-04
   9.60000038      -9.48497327E-04
   9.76000023      -9.25912231E-04
   9.92000008      -8.69290554E-04
   10.0799999      -7.77010515E-04
   10.2399998      -6.49508904E-04
   10.3999996      -4.89475031E-04
   10.5600004      -3.01850843E-04
   10.7200003      -9.36186480E-05
   10.8800001       1.26620449E-04
   11.0400000       3.49242822E-04
   11.1999998       5.64316928E-04
   11.3599997       7.62359472E-04
   11.5200005       9.35048913E-04
   11.6800003       1.07581378E-03
   11.8400002       1.18022785E-03
   12.0000000       1.24616979E-03
   12.1599998       1.27373810E-03
   12.3199997       1.26494619E-03
   12.4799995       1.22325134E-03
   12.6400003       1.15299923E-03
   12.8000002       1.05886871E-03
   12.9600000       9.45412554E-04
   13.1199999       8.16752494E-04
   13.2799997       6.76469703E-04
   13.4399996       5.27690980E-04
   13.6000004       3.73330404E-04
   13.7600002       2.16420129E-04
   13.9200001       6.04369707E-05
   14.0799999      -9.04661283E-05
   14.2399998      -2.31399899E-04
   14.3999996      -3.56895471E-04
   14.5600004      -4.61283809E-04
   14.7200003      -5.39261964E-04
   14.8800001      -5.86571696E-04
   15.0400000      -6.00686064E-04
   15.1999998      -5.81388187E-04
   15.3599997      -5.31125697E-04
   15.5200005      -4.55053756E-04
   15.6800003      -3.60716309E-04
   15.8400002      -2.57372390E-04
   16.0000000      -1.55027097E-04
   16.1599998      -6.32768424E-05
   16.3199997       9.88695228E-06
   16.4799995       5.91574972E-05
   16.6399994       8.27247713E-05
   16.7999992       8.27008189E-05
   16.9599991       6.50861693E-05
   17.1200008       3.92663933E-05
   17.2800007       1.70860349E-05
   17.4400005       1.16007977E-05
   17.6000004       3.56459132E-05
   17.7600002       1.00379846E-04
   17.9200001       2.13963067E-04
   18.0799999       3.80513637E-04
   18.2399998       5.99443447E-04
   18.3999996       8.65233305E-04
   18.5599995       1.16765348E-03
   18.7199993       1.49238924E-03
   18.8799992       1.82199175E-03
   19.0400009       2.13705073E-03
   19.2000008       2.41747452E-03
   19.3600006       2.64377333E-03
   19.5200005       2.79825111E-03
   19.6800003       2.86604115E-03
   19.8400002       2.83594010E-03
   20.0000000       2.70102429E-03
   20.1599998       2.45904806E-03
   20.3199997       2.11263797E-03
   20.4799995       1.66929828E-03
   20.6399994       1.14123628E-03
   20.7999992       5.45008283E-04
   20.9599991      -9.90135377E-05
   21.1200008      -7.67365447E-04
   21.2800007      -1.43440941E-03
   21.4400005      -2.07344582E-03
   21.6000004      -2.65800394E-03
   21.7600002      -3.16326017E-03
   21.9200001      -3.56751145E-03
   22.0799999      -3.85358301E-03
   22.2399998      -4.01006080E-03
   22.3999996      -4.03221324E-03
   22.5599995      -3.92249133E-03
   22.7199993      -3.69052403E-03
   22.8799992      -3.35254683E-03
   23.0400009      -2.93028005E-03
   23.2000008      -2.44932994E-03
   23.3600006      -1.93724886E-03
   23.5200005      -1.42143224E-03
   23.6800003      -9.27058689E-04
   23.8400002      -4.75275010E-04
   24.0000000      -8.18184781E-05
   24.1599998       2.43779708E-04
   24.3199997       4.98330221E-04
   24.4799995       6.84464816E-04
   24.6399994       8.09541962E-04
   24.7999992       8.84126988E-04
   24.9599991       9.20241000E-04
   25.1200008       9.29593924E-04
   25.2800007       9.22018487E-04
   25.4400005       9.04293905E-04
   25.6000004       8.79495929E-04
   25.7600002       8.46940617E-04
   25.9200001       8.02709488E-04
   26.0799999       7.40675139E-04
   26.2399998       6.53885712E-04
   26.3999996       5.36126725E-04
   26.5599995       3.83456761E-04
   26.7199993       1.95522065E-04
   26.8799992      -2.35228763E-05
   27.0400009      -2.64613627E-04
   27.2000008      -5.13962470E-04
   27.3600006      -7.53836241E-04
   27.5200005      -9.63864848E-04
   27.6800003      -1.12276478E-03
   27.8400002      -1.21031958E-03
   28.0000000      -1.20943168E-03
   28.1599998      -1.10805267E-03
   28.3199997      -9.00800107E-04
   28.4799995      -5.90091455E-04
   28.6399994      -1.86662088E-04
   28.7999992       2.90616008E-04
   28.9599991       8.15633102E-04
   29.1200008       1.35661452E-03
   29.2800007       1.87826506E-03
   29.4400005       2.34433054E-03
   29.6000004       2.72037904E-03
   29.7600002       2.97657400E-03
   29.9200001       3.09019722E-03
   30.0799999       3.04768886E-03
   30.2399998       2.84600933E-03
   30.3999996       2.49318383E-03
   30.5599995       2.00795662E-03
   30.7199993       1.41855516E-03
   30.8799992       7.60647759E-04
   31.0400009       7.46605001E-05
   31.2000008      -5.97319333E-04
   31.3600006      -1.21477887E-03
   31.5200005      -1.74186996E-03
   31.6800003      -2.15008599E-03
   31.8400002      -2.42029689E-03
