  -8.00000000       0.00000000
  -7.84000015       0.00000000
  -7.67999983       0.00000000
  -7.51999998       0.00000000
  -7.36000013       0.00000000
  -7.19999981      -1.59425726E-41
  -7.03999996      -2.78431476E-19
  -6.88000011      -2.76429699E-19
  -6.71999979      -1.66227621E-18
  -6.55999994      -1.74424069E-17
  -6.40000010      -1.99532689E-17
  -6.23999977       1.86449197E-16
  -6.07999992       7.27590184E-16
  -5.92000008       6.24128657E-16
  -5.76000023      -2.35853974E-15
  -5.59999990      -7.34856054E-15
  -5.44000006      -3.75516006E-15
  -5.28000021       2.23272396E-14
  -5.11999989       5.73087855E-14
  -4.96000004       3.61705837E-14
  -4.80000019      -1.03572004E-13
  -4.63999987      -2.82143368E-13
  -4.48000002      -2.17917752E-13
  -4.32000017       3.22963959E-13
  -4.15999985       1.04849235E-12
  -4.00000000       1.02485273E-12
  -3.83999991      -5.00824317E-13
  -3.68000007      -2.77628528E-12
  -3.51999998      -3.34234853E-12
  -3.35999990      -1.50203485E-13
  -3.20000005       5.38273809E-12
  -3.03999996       8.04234977E-12
  -2.88000011       3.29256717E-12
  -2.72000003      -6.79579526E-12
  -2.55999994      -1.31870730E-11
  -2.40000010      -8.04227171E-12
  -2.24000001       5.52330707E-12
  -2.07999992       1.38836598E-11
  -1.91999996       6.67138653E-12
  -1.75999999      -9.02751485E-12
  -1.60000002      -1.21253545E-11
  -1.44000006       9.44862417E-12
  -1.27999997       3.83063650E-11
  -1.12000000       3.62958240E-11
 -0.959999979      -1.75855424E-11
 -0.800000012      -9.42461664E-11
 -0.639999986      -1.24999289E-10
 -0.479999989      -5.69646448E-11
 -0.319999993       9.10514997E-11
 -0.159999996       2.25138144E-10
   1.66533454E-16   2.37268344E-10
  0.159999996       8.79111922E-11
  0.319999993      -1.52822477E-10
  0.479999989      -3.39428652E-10
  0.639999986      -3.42195050E-10
  0.800000012      -1.38580092E-10
  0.959999979       1.56408275E-10
   1.12000000       3.51819684E-10
   1.27999997       3.09563375E-10
   1.44000006       5.84576970E-11
   1.60000002      -2.02396946E-10
   1.75999999      -2.41816900E-10
   1.91999996       1.05964786E-11
   2.07999992       3.76786574E-10
   2.24000001       5.46260093E-10
   2.40000010       3.23660682E-10
   2.55999994      -1.96514277E-10
   2.72000003      -6.88174406E-10
   2.88000011      -8.45335579E-10
   3.03999996      -6.12264128E-10
   3.20000005      -1.92326058E-10
   3.35999990       1.72359529E-10
   3.51999998       4.67388295E-10
   3.68000007       1.00505648E-09
   3.83999991       2.27034525E-09
   4.00000000       4.58953231E-09
   4.15999985       7.78756615E-09
   4.32000017       1.10072165E-08
   4.48000002       1.28028690E-08
   4.63999987       1.14793046E-08
   4.80000019       5.42911183E-09
   4.96000004      -6.94648605E-09
   5.11999989      -2.80851715E-08
   5.28000021      -6.28939176E-08
   5.44000006      -1.20799328E-07
   5.59999990      -2.17789307E-07
   5.76000023      -3.78410988E-07
   5.92000008      -6.38297706E-07
   6.07999992      -1.04819651E-06
   6.23999977      -1.68039890E-06
   6.40000010      -2.63802190E-06
   6.55999994      -4.06708295E-06
   6.71999979      -6.17098885E-06
   6.88000011      -9.22707750E-06
   7.03999996      -1.36050103E-05
   7.19999981      -1.97868703E-05
   7.36000013      -2.83882364E-05
   7.51999998      -4.01779434E-05
   7.67999983      -5.60921435E-05
   7.84000015      -7.72362400E-05
   8.00000000      -1.04867548E-04
   8.15999985      -1.40352626E-04
   8.31999969      -1.85095050E-04
   8.47999954      -2.40431662E-04
   8.64000034      -3.07496754E-04
   8.80000019      -3.87055421E-04
   8.96000004      -4.79311595E-04
   9.11999989      -5.83701825E-04
   9.27999973      -6.98693213E-04
   9.43999958      -8.21610971E-04
   9.60000038      -9.48523288E-04
   9.76000023      -1.07421377E-03
   9.92000008      -1.19226321E-03
   10.0799999      -1.29526097E-03
   10.2399998      -1.37514935E-03
   10.3999996      -1.42369641E-03
   10.5600004      -1.43307587E-03
   10.7200003      -1.39651506E-03
   10.8800001      -1.30896084E-03
   11.0400000      -1.16770144E-03
   11.1999998      -9.72872134E-04
   11.3599997      -7.27783423E-04
   11.5200005      -4.39015450E-04
   11.6800003      -1.16248302E-04
   11.8400002       2.28181132E-04
   12.0000000       5.79976186E-04
   12.1599998       9.23783460E-04
   12.3199997       1.24422635E-03
   12.4799995       1.52697600E-03
   12.6400003       1.75975263E-03
   12.8000002       1.93316140E-03
   12.9600000       2.04127911E-03
   13.1199999       2.08194158E-03
   13.2799997       2.05670740E-03
   13.4399996       1.97051791E-03
   13.6000004       1.83109415E-03
   13.7600002       1.64814945E-03
   13.9200001       1.43250520E-03
   14.0799999       1.19520887E-03
   14.2399998       9.46748827E-04
   14.3999996       6.96442090E-04
   14.5600004       4.52046079E-04
   14.7200003       2.19610665E-04
   14.8800001       3.55257225E-06
   15.0400000      -1.93095329E-04
   15.1999998      -3.68323992E-04
   15.3599997      -5.20749367E-04
   15.5200005      -6.49243710E-04
   15.6800003      -7.52657943E-04
   15.8400002      -8.29679600E-04
   16.0000000      -8.78848077E-04
   16.1599998      -8.98724480E-04
   16.3199997      -8.88187147E-04
   16.4799995      -8.46806681E-04
   16.6399994      -7.75239023E-04
   16.7999992      -6.75572664E-04
   16.9599991      -5.51568985E-04
   17.1200008      -4.08746389E-04
   17.2800007      -2.54273444E-04
   17.4400005      -9.66576335E-05
   17.6000004       5.47643576E-05
   17.7600002       1.90510516E-04
   17.9200001       3.01765598E-04
   18.0799999       3.81259917E-04
   18.2399998       4.24136029E-04
   18.3999996       4.28717467E-04
   18.5599995       3.97093332E-04
   18.7199993       3.35439283E-04
   18.8799992       2.54010345E-04
   19.0400009       1.66759521E-04
   19.2000008       9.05631241E-05
   19.3600006       4.40670701E-05
   19.5200005       4.62046701E-05
   19.6800003       1.14476279E-04
   19.8400002       2.63115508E-04
   20.0000000       5.01297123E-04
   20.1599998       8.31557263E-04
   20.3199997       1.24860136E-03
   20.4799995       1.73865724E-03
   20.6399994       2.27949861E-03
   20.7999992       2.84121255E-03
   20.9599991       3.38771893E-03
   21.1200008       3.87898344E-03
   21.2800007       4.27378528E-03
   21.4400005       4.53283638E-03
   21.6000004       4.62200213E-03
   21.7600002       4.51534055E-03
   21.9200001       4.19768039E-03
   22.0799999       3.66648193E-03
   22.2399998       2.93278112E-03
   22.3999996       2.02109152E-03
   22.5599995       9.68241307E-04
   22.7199993      -1.78791437E-04
   22.8799992      -1.36587641E-03
   23.0400009      -2.53532594E-03
   23.2000008      -3.62978387E-03
   23.3600006      -4.59609088E-03
   23.5200005      -5.38880611E-03
   23.6800003      -5.97310439E-03
   23.8400002      -6.32683979E-03
   24.0000000      -6.44162716E-03
   24.1599998      -6.32290915E-03
   24.3199997      -5.98904304E-03
   24.4799995      -5.46952849E-03
   24.6399994      -4.80257440E-03
   24.7999992      -4.03221929E-03
   24.9599991      -3.20525095E-03
   25.1200008      -2.36816448E-03
   25.2800007      -1.56436372E-03
   25.4400005      -8.31768091E-04
   25.6000004      -2.00947863E-04
   25.7600002       3.06151691E-04
   25.9200001       6.76877564E-04
   26.0799999       9.07946320E-04
   26.2399998       1.00498192E-03
   26.3999996       9.81586985E-04
   26.5599995       8.58031621E-04
   26.7199993       6.59656012E-04
   26.8799992       4.15075978E-04
   27.0400009       1.54287409E-04
   27.2000008      -9.32375478E-05
   27.3600006      -3.00368847E-04
   27.5200005      -4.43958241E-04
   27.6800003      -5.06213633E-04
   27.8400002      -4.75731184E-04
   28.0000000      -3.48125439E-04
   28.1599998      -1.26219384E-04
   28.3199997       1.80220755E-04
   28.4799995       5.55193168E-04
   28.6399994       9.77567397E-04
   28.7999992       1.42252026E-03
   28.9599991       1.86320662E-03
   29.1200008       2.27255444E-03
   29.2800007       2.62506446E-03
   29.4400005       2.89849355E-03
   29.6000004       3.07530840E-03
   29.7600002       3.14380927E-03
   29.9200001       3.09884851E-03
   30.0799999       2.94209481E-03
   30.2399998       2.68182857E-03
   30.3999996       2.33228365E-03
   30.5599995       1.91258301E-03
   30.7199993       1.44534430E-03
   30.8799992       9.55056574E-04
   31.0400009       4.66345664E-04
   31.2000008       2.25698432E-06
   31.3600006      -4.17312258E-04
   31.5200005      -7.76913192E-04
   31.6800003      -1.06647389E-03
   31.8400002      -1.28178112E-03
