  -8.00000000       0.00000000
  -7.84000015       0.00000000
  -7.67999983       0.00000000
  -7.51999998       0.00000000
  -7.36000013       0.00000000
  -7.19999981       0.00000000
  -7.03999996      -5.59464771E-20
  -6.88000011       4.43782593E-20
  -6.71999979      -2.92814337E-19
  -6.55999994      -6.47567317E-18
  -6.40000010      -1.90105130E-17
  -6.23999977      -2.80126059E-19
  -6.07999992       9.26306628E-17
  -5.92000008       1.15863863E-16
  -5.76000023      -2.91571372E-16
  -5.59999990      -9.74747093E-16
  -5.44000006      -4.13543561E-16
  -5.28000021       2.68740557E-15
  -5.11999989       5.05903472E-15
  -4.96000004      -9.78860602E-16
  -4.80000019      -1.50385550E-14
  -4.63999987      -1.58096548E-14
  -4.48000002       1.96087314E-14
  -4.32000017       6.13005537E-14
  -4.15999985       1.53284893E-14
  -4.00000000      -1.52442485E-13
  -3.83999991      -2.42559851E-13
  -3.68000007       8.92323257E-14
  -3.51999998       8.07888316E-13
  -3.35999990       1.02986489E-12
  -3.20000005      -4.12983748E-13
  -3.03999996      -3.19265339E-12
  -2.88000011      -4.26801780E-12
  -2.72000003       1.22890616E-13
  -2.55999994       9.30586771E-12
  -2.40000010       1.48884186E-11
  -2.24000001       5.82371044E-12
  -2.07999992      -1.86923480E-11
  -1.91999996      -4.03001590E-11
  -1.75999999      -3.10248736E-11
  -1.60000002       1.90919173E-11
  -1.44000006       7.96440899E-11
  -1.27999997       9.22471335E-11
  -1.12000000       2.04523135E-11
 -0.959999979      -1.02034201E-10
 -0.800000012      -1.78285692E-10
 -0.639999986      -1.23100641E-10
 -0.479999989       5.00682551E-11
 -0.319999993       2.16201446E-10
 -0.159999996       2.32644709E-10
   1.66533454E-16   7.07160094E-11
  0.159999996      -1.39170883E-10
  0.319999993      -2.11974369E-10
  0.479999989      -8.54493420E-11
  0.639999986       9.69404348E-11
  0.800000012       1.03118201E-10
  0.959999979      -1.48186796E-10
   1.12000000      -4.46423343E-10
   1.27999997      -4.17707147E-10
   1.44000006       1.37269474E-10
   1.60000002       9.75516334E-10
   1.75999999       1.48585011E-09
   1.91999996       1.11064735E-09
   2.07999992      -1.90034544E-10
   2.24000001      -1.81126447E-09
   2.40000010      -2.84050827E-09
   2.55999994      -2.61671196E-09
   2.72000003      -1.10485676E-09
   2.88000011       1.14027277E-09
   3.03999996       3.30664807E-09
   3.20000005       4.65831018E-09
   3.35999990       4.68959760E-09
   3.51999998       3.16201998E-09
   3.68000007       1.75427783E-10
   3.83999991      -3.71322151E-09
   4.00000000      -7.48021911E-09
   4.15999985      -9.86419124E-09
   4.32000017      -9.75377823E-09
   4.48000002      -6.50588872E-09
   4.63999987      -6.20115487E-11
   4.80000019       9.04226383E-09
   4.96000004       1.96077270E-08
   5.11999989       2.96742293E-08
   5.28000021       3.66577915E-08
   5.44000006       3.78833818E-08
   5.59999990       3.11869854E-08
   5.76000023       1.47975348E-08
   5.92000008      -1.41986511E-08
   6.07999992      -6.27840180E-08
   6.23999977      -1.45545627E-07
   6.40000010      -2.88099244E-07
   6.55999994      -5.30819193E-07
   6.71999979      -9.34790990E-07
   6.88000011      -1.59255990E-06
   7.03999996      -2.64545542E-06
   7.19999981      -4.30779801E-06
   7.36000013      -6.89765966E-06
   7.51999998      -1.08749637E-05
   7.67999983      -1.68896731E-05
   7.84000015      -2.58435266E-05
   8.00000000      -3.89669804E-05
   8.15999985      -5.79091575E-05
   8.31999969      -8.48346826E-05
   8.47999954      -1.22518846E-04
   8.64000034      -1.74430184E-04
   8.80000019      -2.44786497E-04
   8.96000004      -3.38564365E-04
   9.11999989      -4.61436313E-04
   9.27999973      -6.19605475E-04
   9.43999958      -8.19510256E-04
   9.60000038      -1.06737774E-03
   9.76000023      -1.36861671E-03
   9.92000008      -1.72705972E-03
   10.0799999      -2.14408315E-03
   10.2399998      -2.61765881E-03
   10.3999996      -3.14142136E-03
   10.5600004      -3.70385288E-03
   10.7200003      -4.28771088E-03
   10.8800001      -4.86982567E-03
   11.0400000      -5.42138424E-03
   11.1999998      -5.90879237E-03
   11.3599997      -6.29515247E-03
   11.5200005      -6.54234085E-03
   11.6800003      -6.61358610E-03
   11.8400002      -6.47638738E-03
   12.0000000      -6.10555010E-03
   12.1599998      -5.48604736E-03
   12.3199997      -4.61542839E-03
   12.4799995      -3.50547326E-03
   12.6400003      -2.18286365E-03
   12.8000002      -6.88714557E-04
   12.9600000       9.23084212E-04
   13.1199999       2.58864905E-03
   13.2799997       4.23781713E-03
   13.4399996       5.79850329E-03
   13.6000004       7.20133353E-03
   13.7600002       8.38414952E-03
   13.9200001       9.29600466E-03
   14.0799999       9.90030635E-03
   14.2399998       1.01768663E-02
   14.3999996       1.01227006E-02
   14.5600004       9.75159183E-03
   14.7200003       9.09249485E-03
   14.8800001       8.18700157E-03
   15.0400000       7.08613591E-03
   15.1999998       5.84678072E-03
   15.3599997       4.52801911E-03
   15.5200005       3.18766572E-03
   15.6800003       1.87919929E-03
   15.8400002       6.49254594E-04
   16.0000000      -4.64220764E-04
   16.1599998      -1.43310358E-03
   16.3199997      -2.23952439E-03
   16.4799995      -2.87562446E-03
   16.6399994      -3.34269856E-03
   16.7999992      -3.64981382E-03
   16.9599991      -3.81200504E-03
   17.1200008      -3.84818739E-03
   17.2800007      -3.77895241E-03
   17.4400005      -3.62444599E-03
   17.6000004      -3.40254442E-03
   17.7600002      -3.12754442E-03
   17.9200001      -2.80954526E-03
   18.0799999      -2.45463173E-03
   18.2399998      -2.06586672E-03
   18.3999996      -1.64499239E-03
   18.5599995      -1.19459792E-03
   18.7199993      -7.20413111E-04
   18.8799992      -2.33302417E-04
   19.0400009       2.49469012E-04
   19.2000008       7.04064674E-04
   19.3600006       1.10124238E-03
   19.5200005       1.40891352E-03
   19.6800003       1.59593695E-03
   19.8400002       1.63676590E-03
   20.0000000       1.51636964E-03
   20.1599998       1.23473397E-03
   20.3199997       8.10216647E-04
   20.4799995       2.81121349E-04
   20.6399994      -2.94970348E-04
   20.7999992      -8.44310794E-04
   20.9599991      -1.28243596E-03
   21.1200008      -1.52152951E-03
   21.2800007      -1.47899950E-03
   21.4400005      -1.08637346E-03
   21.6000004      -2.97539373E-04
   21.7600002       9.04593093E-04
   21.9200001       2.50378205E-03
   22.0799999       4.44901828E-03
   22.2399998       6.65618666E-03
   22.3999996       9.01271123E-03
   22.5599995       1.13847628E-02
   22.7199993       1.36263594E-02
   22.8799992       1.55895390E-02
   23.0400009       1.71347000E-02
   23.2000008       1.81402639E-02
   23.3600006       1.85109153E-02
   23.5200005       1.81838386E-02
   23.6800003       1.71326175E-02
   23.8400002       1.53686553E-02
   24.0000000       1.29401917E-02
   24.1599998       9.92914196E-03
   24.3199997       6.44611660E-03
   24.4799995       2.62405863E-03
   24.6399994      -1.38903630E-03
   24.7999992      -5.43785468E-03
   24.9599991      -9.36751347E-03
   25.1200008      -1.30309351E-02
   25.2800007      -1.62954833E-02
   25.4400005      -1.90485921E-02
   25.6000004      -2.12021582E-02
   25.7600002      -2.26955488E-02
   25.9200001      -2.34971549E-02
   26.0799999      -2.36044470E-02
   26.2399998      -2.30426360E-02
   26.3999996      -2.18620803E-02
   26.5599995      -2.01346409E-02
   26.7199993      -1.79492570E-02
   26.8799992      -1.54070165E-02
   27.0400009      -1.26160402E-02
   27.2000008      -9.68647189E-03
   27.3600006      -6.72582630E-03
   27.5200005      -3.83488904E-03
   27.6800003      -1.10430608E-03
   27.8400002       1.38806074E-03
   28.0000000       3.57900024E-03
   28.1599998       5.42105455E-03
   28.3199997       6.88293017E-03
   28.4799995       7.94929732E-03
   28.6399994       8.62007495E-03
   28.7999992       8.90929252E-03
   28.9599991       8.84358492E-03
   29.1200008       8.46041646E-03
   29.2800007       7.80605664E-03
   29.4400005       6.93340460E-03
   29.6000004       5.89969335E-03
   29.7600002       4.76413267E-03
   29.9200001       3.58554954E-03
   30.0799999       2.42009270E-03
   30.2399998       1.31909200E-03
   30.3999996       3.27153830E-04
   30.5599995      -5.19438414E-04
   30.7199993      -1.19394157E-03
   30.8799992      -1.67992467E-03
   31.0400009      -1.97154260E-03
   31.2000008      -2.07328191E-03
   31.3600006      -1.99918891E-03
   31.5200005      -1.77161745E-03
   31.6800003      -1.41957612E-03
   31.8400002      -9.76756564E-04
