  -8.00000000       0.00000000
  -7.84000015       0.00000000
  -7.67999983       0.00000000
  -7.51999998       0.00000000
  -7.36000013       0.00000000
  -7.19999981      -3.58446884E-22
  -7.03999996       9.15438733E-17
  -6.88000011       9.06072308E-16
  -6.71999979       4.92109159E-15
  -6.55999994       1.62173995E-14
  -6.40000010       2.43647215E-14
  -6.23999977      -4.39031339E-14
  -6.07999992      -3.50524297E-13
  -5.92000008      -9.56541920E-13
  -5.76000023      -1.29584787E-12
  -5.59999990       1.63592311E-13
  -5.44000006       4.75565420E-12
  -5.28000021       1.04019623E-11
  -5.11999989       9.23510053E-12
  -4.96000004      -7.95711674E-12
  -4.80000019      -3.84512283E-11
  -4.63999987      -5.63433501E-11
  -4.48000002      -2.36338987E-11
  -4.32000017       6.97970293E-11
  -4.15999985       1.67863723E-10
  -4.00000000       1.65556499E-10
  -3.83999991      -9.77224825E-14
  -3.68000007      -2.52909055E-10
  -3.51999998      -3.89544424E-10
  -3.35999990      -2.40022752E-10
  -3.20000005       1.46259380E-10
  -3.03999996       4.90264218E-10
  -2.88000011       5.12385079E-10
  -2.72000003       2.06700684E-10
  -2.55999994      -1.31837971E-10
  -2.40000010      -1.96987593E-10
  -2.24000001       8.38937372E-13
  -2.07999992       1.28949809E-10
  -1.91999996      -1.13264571E-10
  -1.75999999      -6.41287023E-10
  -1.60000002      -1.01111119E-09
  -1.44000006      -7.96651523E-10
  -1.27999997       6.80595372E-11
  -1.12000000       1.26940802E-09
 -0.959999979       2.30715935E-09
 -0.800000012       2.63134026E-09
 -0.639999986       1.72707204E-09
 -0.479999989      -5.97834615E-10
 -0.319999993      -3.72826969E-09
 -0.159999996      -6.09718542E-09
   1.66533454E-16  -5.92055693E-09
  0.159999996      -2.52645838E-09
  0.319999993       2.85174218E-09
  0.479999989       7.70963204E-09
  0.639999986       9.91741356E-09
  0.800000012       8.92923779E-09
  0.959999979       5.56133228E-09
   1.12000000       8.60346849E-10
   1.27999997      -4.51904603E-09
   1.44000006      -9.74221859E-09
   1.60000002      -1.28424515E-08
   1.75999999      -1.07361746E-08
   1.91999996      -5.53867507E-10
   2.07999992       1.87003018E-08
   2.24000001       4.53451641E-08
   2.40000010       7.52607363E-08
   2.55999994       1.02370841E-07
   2.72000003       1.18537379E-07
   2.88000011       1.12621066E-07
   3.03999996       6.88230699E-08
   3.20000005      -3.57441117E-08
   3.35999990      -2.34629994E-07
   3.51999998      -5.77468825E-07
   3.68000007      -1.13857800E-06
   3.83999991      -2.03099330E-06
   4.00000000      -3.42874819E-06
   4.15999985      -5.59988848E-06
   4.32000017      -8.95225367E-06
   4.48000002      -1.40945349E-05
   4.63999987      -2.19166031E-05
   4.80000019      -3.36940866E-05
   4.96000004      -5.12201041E-05
   5.11999989      -7.69631515E-05
   5.28000021      -1.14245704E-04
   5.44000006      -1.67434540E-04
   5.59999990      -2.42130191E-04
   5.76000023      -3.45335779E-04
   5.92000008      -4.85575321E-04
   6.07999992      -6.72922237E-04
   6.23999977      -9.18891805E-04
   6.40000010      -1.23614899E-03
   6.55999994      -1.63798395E-03
   6.71999979      -2.13751267E-03
   6.88000011      -2.74657342E-03
   7.03999996      -3.47431004E-03
   7.19999981      -4.32547135E-03
   7.36000013      -5.29849995E-03
   7.51999998      -6.38354197E-03
   7.67999983      -7.56055163E-03
   7.84000015      -8.79772287E-03
   8.00000000      -1.00505101E-02
   8.15999985      -1.12615107E-02
   8.31999969      -1.23614650E-02
   8.47999954      -1.32715488E-02
   8.64000034      -1.39070628E-02
   8.80000019      -1.41824791E-02
   8.96000004      -1.40175996E-02
   9.11999989      -1.33444862E-02
   9.27999973      -1.21145882E-02
   9.43999958      -1.03054093E-02
   9.60000038      -7.92601146E-03
   9.76000023      -5.02063800E-03
   9.92000008      -1.66985951E-03
   10.0799999       2.01119483E-03
   10.2399998       5.87763824E-03
   10.3999996       9.76251718E-03
   10.5600004       1.34869106E-02
   10.7200003       1.68716703E-02
   10.8800001       1.97498128E-02
   11.0400000       2.19784733E-02
   11.1999998       2.34492589E-02
   11.3599997       2.40960587E-02
   11.5200005       2.38995869E-02
   11.6800003       2.28881724E-02
   11.8400002       2.11348347E-02
   12.0000000       1.87509339E-02
   12.1599998       1.58770867E-02
   12.3199997       1.26722790E-02
   12.4799995       9.30220354E-03
   12.6400003       5.92792127E-03
   12.8000002       2.69579585E-03
   12.9600000      -2.70476303E-04
   13.1199999      -2.87527125E-03
   13.2799997      -5.05367294E-03
   13.4399996      -6.77144201E-03
   13.6000004      -8.02268554E-03
   13.7600002      -8.82574636E-03
   13.9200001      -9.21797380E-03
   14.0799999      -9.25002247E-03
   14.2399998      -8.98030959E-03
   14.3999996      -8.47011618E-03
   14.5600004      -7.77968764E-03
   14.7200003      -6.96548121E-03
   14.8800001      -6.07855897E-03
   15.0400000      -5.16397972E-03
   15.1999998      -4.26092744E-03
   15.3599997      -3.40328482E-03
   15.5200005      -2.62031751E-03
   15.6800003      -1.93719845E-03
   15.8400002      -1.37516286E-03
   16.0000000      -9.51177906E-04
   16.1599998      -6.77130476E-04
   16.3199997      -5.58645930E-04
   16.4799995      -5.93740027E-04
   16.6399994      -7.71561521E-04
   16.7999992      -1.07149396E-03
   16.9599991      -1.46287505E-03
   17.1200008      -1.90553686E-03
   17.2800007      -2.35129124E-03
   17.4400005      -2.74636829E-03
   17.6000004      -3.03469528E-03
   17.7600002      -3.16178170E-03
   17.9200001      -3.07890889E-03
   18.0799999      -2.74726655E-03
   18.2399998      -2.14165007E-03
   18.3999996      -1.25337020E-03
   18.5599995      -9.20461389E-05
   18.7199993       1.31392688E-03
   18.8799992       2.91831791E-03
   19.0400009       4.65936400E-03
   19.2000008       6.46327622E-03
   19.3600006       8.24869983E-03
   19.5200005       9.93178971E-03
   19.6800003       1.14315189E-02
   19.8400002       1.26747945E-02
   20.0000000       1.36010032E-02
   20.1599998       1.41656287E-02
   20.3199997       1.43427225E-02
   20.4799995       1.41260596E-02
   20.6399994       1.35289440E-02
   20.7999992       1.25827072E-02
   20.9599991       1.13340653E-02
   21.1200008       9.84155014E-03
   21.2800007       8.17134697E-03
   21.4400005       6.39285706E-03
   21.6000004       4.57434822E-03
   21.7600002       2.77901348E-03
   21.9200001       1.06171612E-03
   22.0799999      -5.33359067E-04
   22.2399998      -1.97400479E-03
   22.3999996      -3.24020116E-03
   22.5599995      -4.32329858E-03
   22.7199993      -5.22434618E-03
   22.8799992      -5.95181109E-03
   23.0400009      -6.51898282E-03
   23.2000008      -6.94134785E-03
   23.3600006      -7.23423995E-03
   23.5200005      -7.41101429E-03
   23.6800003      -7.48193497E-03
   23.8400002      -7.45386910E-03
   24.0000000      -7.33075198E-03
   24.1599998      -7.11465813E-03
   24.3199997      -6.80726347E-03
   24.4799995      -6.41143369E-03
   24.6399994      -5.93269942E-03
   24.7999992      -5.38035715E-03
   24.9599991      -4.76800743E-03
   25.1200008      -4.11341013E-03
   25.2800007      -3.43764899E-03
   25.4400005      -2.76372558E-03
   25.6000004      -2.11479026E-03
   25.7600002      -1.51225179E-03
   25.9200001      -9.74021386E-04
   26.0799999      -5.13123872E-04
   26.2399998      -1.36875460E-04
   26.3999996       1.53248067E-04
   26.5599995       3.61023791E-04
   26.7199993       4.94255626E-04
   26.8799992       5.63084672E-04
   27.0400009       5.78067906E-04
   27.2000008       5.48278971E-04
   27.3600006       4.79686132E-04
   27.5200005       3.74038442E-04
   27.6800003       2.28441306E-04
   27.8400002       3.57220633E-05
   28.0000000      -2.14419633E-04
   28.1599998      -5.33584389E-04
   28.3199997      -9.32363793E-04
   28.4799995      -1.41780300E-03
   28.6399994      -1.99092156E-03
   28.7999992      -2.64459476E-03
   28.9599991      -3.36206937E-03
   29.1200008      -4.11636010E-03
   29.2800007      -4.87068156E-03
   29.4400005      -5.57997590E-03
   29.6000004      -6.19348604E-03
   29.7600002      -6.65819878E-03
   29.9200001      -6.92291884E-03
   30.0799999      -6.94264192E-03
   30.2399998      -6.68285368E-03
   30.3999996      -6.12334348E-03
   30.5599995      -5.26116462E-03
   30.7199993      -4.11240757E-03
   30.8799992      -2.71256687E-03
   31.0400009      -1.11540500E-03
   31.2000008       6.09674142E-04
   31.3600006       2.38159578E-03
   31.5200005       4.11266368E-03
   31.6800003       5.71430847E-03
   31.8400002       7.10309809E-03
