  -8.00000000       0.00000000
  -7.84000015       0.00000000
  -7.67999983       0.00000000
  -7.51999998       0.00000000
  -7.36000013       0.00000000
  -7.19999981       4.33903538E-22
  -7.03999996       2.24268847E-17
  -6.88000011       2.16450905E-16
  -6.71999979      -1.11927452E-15
  -6.55999994      -1.31972883E-14
  -6.40000010      -4.08905596E-14
  -6.23999977      -1.56534281E-14
  -6.07999992       2.59468770E-13
  -5.92000008       8.43999458E-13
  -5.76000023       9.17009199E-13
  -5.59999990      -1.50510106E-12
  -5.44000006      -7.42628355E-12
  -5.28000021      -1.22900292E-11
  -5.11999989      -4.61402618E-12
  -4.96000004       2.38018199E-11
  -4.80000019       5.81367454E-11
  -4.63999987       5.38885776E-11
  -4.48000002      -2.94172534E-11
  -4.32000017      -1.63987351E-10
  -4.15999985      -2.27097396E-10
  -4.00000000      -8.44444722E-11
  -3.83999991       2.45643117E-10
  -3.68000007       5.11820197E-10
  -3.51999998       3.93270111E-10
  -3.35999990      -1.60070970E-10
  -3.20000005      -7.43361539E-10
  -3.03999996      -7.67361008E-10
  -2.88000011      -4.95749622E-11
  -2.72000003       8.52777571E-10
  -2.55999994       1.04330145E-09
  -2.40000010       1.79177326E-10
  -2.24000001      -1.02713216E-09
  -2.07999992      -1.34838873E-09
  -1.91999996      -2.34076647E-10
  -1.75999999       1.53014179E-09
  -1.60000002       2.45214316E-09
  -1.44000006       1.68897329E-09
  -1.27999997      -2.29703589E-10
  -1.12000000      -1.99767292E-09
 -0.959999979      -2.71809086E-09
 -0.800000012      -2.41299425E-09
 -0.639999986      -1.52833790E-09
 -0.479999989      -3.12798648E-10
 -0.319999993       1.10046583E-09
 -0.159999996       2.25153785E-09
   1.66533454E-16   2.51515031E-09
  0.159999996       1.91856309E-09
  0.319999993       1.41673229E-09
  0.479999989       1.77899606E-09
  0.639999986       2.15489404E-09
  0.800000012       4.32228059E-10
  0.959999979      -4.19129709E-09
   1.12000000      -8.94246099E-09
   1.27999997      -8.59896865E-09
   1.44000006       1.25983654E-10
   1.60000002       1.49883093E-08
   1.75999999       2.95001694E-08
   1.91999996       3.86316081E-08
   2.07999992       4.37313297E-08
   2.24000001       5.16620666E-08
   2.40000010       6.84435904E-08
   2.55999994       9.30263866E-08
   2.72000003       1.16992545E-07
   2.88000011       1.30782524E-07
   3.03999996       1.31086708E-07
   3.20000005       1.22314574E-07
   3.35999990       1.08778785E-07
   3.51999998       8.05131393E-08
   3.68000007      -1.11047040E-10
   3.83999991      -2.04791277E-07
   4.00000000      -6.38651557E-07
   4.15999985      -1.43952207E-06
   4.32000017      -2.78629864E-06
   4.48000002      -4.92061872E-06
   4.63999987      -8.17800355E-06
   4.80000019      -1.30214457E-05
   4.96000004      -2.00762042E-05
   5.11999989      -3.01743694E-05
   5.28000021      -4.44209181E-05
   5.44000006      -6.42854066E-05
   5.59999990      -9.17103753E-05
   5.76000023      -1.29220367E-04
   5.92000008      -1.80017261E-04
   6.07999992      -2.48048716E-04
   6.23999977      -3.38030426E-04
   6.40000010      -4.55388945E-04
   6.55999994      -6.06083893E-04
   6.71999979      -7.96274107E-04
   6.88000011      -1.03181030E-03
   7.03999996      -1.31756195E-03
   7.19999981      -1.65660563E-03
   7.36000013      -2.04931712E-03
   7.51999998      -2.49244133E-03
   7.67999983      -2.97823735E-03
   7.84000015      -3.49382334E-03
   8.00000000      -4.02085157E-03
   8.15999985      -4.53563267E-03
   8.31999969      -5.00978809E-03
   8.47999954      -5.41146519E-03
   8.64000034      -5.70710609E-03
   8.80000019      -5.86368563E-03
   8.96000004      -5.85128553E-03
   9.11999989      -5.64578502E-03
   9.27999973      -5.23142377E-03
   9.43999958      -4.60295752E-03
   9.60000038      -3.76715232E-03
   9.76000023      -2.74343183E-03
   9.92000008      -1.56353705E-03
   10.0799999      -2.70185032E-04
   10.2399998       1.08522421E-03
   10.3999996       2.44569033E-03
   10.5600004       3.75224254E-03
   10.7200003       4.94780671E-03
   10.8800001       5.98096242E-03
   11.0400000       6.80926722E-03
   11.1999998       7.40185287E-03
   11.3599997       7.74111273E-03
   11.5200005       7.82335270E-03
   11.6800003       7.65840802E-03
   11.8400002       7.26828352E-03
   12.0000000       6.68499339E-03
   12.1599998       5.94785204E-03
   12.3199997       5.10047702E-03
   12.4799995       4.18776413E-03
   12.6400003       3.25307529E-03
   12.8000002       2.33583222E-03
   12.9600000       1.46963319E-03
   13.1199999       6.80971425E-04
   13.2799997      -1.14472978E-05
   13.4399996      -5.96829923E-04
   13.6000004      -1.07193075E-03
   13.7600002      -1.44027942E-03
   13.9200001      -1.71109557E-03
   14.0799999      -1.89796276E-03
   14.2399998      -2.01732386E-03
   14.3999996      -2.08683335E-03
   14.5600004      -2.12359871E-03
   14.7200003      -2.14235182E-03
   14.8800001      -2.15363246E-03
   15.0400000      -2.16208422E-03
   15.1999998      -2.16502161E-03
   15.3599997      -2.15143431E-03
   15.5200005      -2.10162764E-03
   15.6800003      -1.98769080E-03
   15.8400002      -1.77494180E-03
   16.0000000      -1.42440549E-03
   16.1599998      -8.96272308E-04
   16.3199997      -1.54157708E-04
   16.4799995       8.30147357E-04
   16.6399994       2.07186001E-03
   16.7999992       3.56883858E-03
   16.9599991       5.29821124E-03
   17.1200008       7.21449777E-03
   17.2800007       9.24959779E-03
   17.4400005       1.13148671E-02
   17.6000004       1.33052748E-02
   17.7600002       1.51054626E-02
   17.9200001       1.65972523E-02
   18.0799999       1.76680200E-02
   18.2399998       1.82191469E-02
   18.3999996       1.81738306E-02
   18.5599995       1.74835045E-02
   18.7199993       1.61322933E-02
   18.8799992       1.41390935E-02
   19.0400009       1.15570743E-02
   19.2000008       8.47072806E-03
   19.3600006       4.99074813E-03
   19.5200005       1.24726910E-03
   19.6800003      -2.61793821E-03
   19.8400002      -6.45962218E-03
   20.0000000      -1.01369210E-02
   20.1599998      -1.35203879E-02
   20.3199997      -1.64977107E-02
   20.4799995      -1.89779215E-02
   20.6399994      -2.08939761E-02
   20.7999992      -2.22038180E-02
   20.9599991      -2.28900872E-02
   21.1200008      -2.29587816E-02
   21.2800007      -2.24371273E-02
   21.4400005      -2.13709027E-02
   21.6000004      -1.98215134E-02
   21.7600002      -1.78629179E-02
   21.9200001      -1.55785289E-02
   22.0799999      -1.30580962E-02
   22.2399998      -1.03945937E-02
   22.3999996      -7.68105360E-03
   22.5599995      -5.00738481E-03
   22.7199993      -2.45721475E-03
   22.8799992      -1.04857871E-04
   23.0400009       1.98744237E-03
   23.2000008       3.77183524E-03
   23.3600006       5.21656778E-03
   23.5200005       6.30690157E-03
   23.6800003       7.04512466E-03
   23.8400002       7.44958455E-03
   24.0000000       7.55278626E-03
   24.1599998       7.39866402E-03
   24.3199997       7.03920750E-03
   24.4799995       6.53067324E-03
   24.6399994       5.92966424E-03
   24.7999992       5.28937718E-03
   24.9599991       4.65628924E-03
   25.1200008       4.06754110E-03
   25.2800007       3.54918907E-03
   25.4400005       3.11542698E-03
   25.6000004       2.76880944E-03
   25.7600002       2.50142021E-03
   25.9200001       2.29686568E-03
   26.0799999       2.13290518E-03
   26.2399998       1.98446983E-03
   26.3999996       1.82678935E-03
   26.5599995       1.63832738E-03
   26.7199993       1.40325911E-03
   26.8799992       1.11327064E-03
   27.0400009       7.68534490E-04
   27.2000008       3.77781340E-04
   27.3600006      -4.25359358E-05
   27.5200005      -4.69905470E-04
   27.6800003      -8.78077000E-04
   27.8400002      -1.23979140E-03
   28.0000000      -1.52963132E-03
   28.1599998      -1.72670628E-03
   28.3199997      -1.81692082E-03
   28.4799995      -1.79461064E-03
   28.6399994      -1.66339544E-03
   28.7999992      -1.43615424E-03
   28.9599991      -1.13412901E-03
   29.1200008      -7.85247423E-04
   29.2800007      -4.21828008E-04
   29.4400005      -7.78754911E-05
   29.6000004       2.13812964E-04
   29.7600002       4.24499100E-04
   29.9200001       5.32076927E-04
   30.0799999       5.23144321E-04
   30.2399998       3.94388160E-04
   30.3999996       1.53159461E-04
   30.5599995      -1.82818272E-04
   30.7199993      -5.86599926E-04
   30.8799992      -1.02397345E-03
   31.0400009      -1.45609432E-03
   31.2000008      -1.84260670E-03
   31.3600006      -2.14499584E-03
   31.5200005      -2.32987874E-03
   31.6800003      -2.37194728E-03
   31.8400002      -2.25629658E-03
