  -8.00000000       0.00000000
  -7.84000015       0.00000000
  -7.67999983       0.00000000
  -7.51999998       0.00000000
  -7.36000013       0.00000000
  -7.19999981       3.88887454E-21
  -7.03999996       9.20448363E-16
  -6.88000011      -2.78576367E-15
  -6.71999979      -2.79760498E-14
  -6.55999994      -2.96394235E-15
  -6.40000010       4.33661109E-13
  -6.23999977       1.63761702E-12
  -6.07999992       2.42855432E-12
  -5.92000008      -1.26271259E-12
  -5.76000023      -1.30975075E-11
  -5.59999990      -2.67584913E-11
  -5.44000006      -2.05538312E-11
  -5.28000021       2.57067648E-11
  -5.11999989       9.28846444E-11
  -4.96000004       1.05981897E-10
  -4.80000019      -1.00104031E-11
  -4.63999987      -2.21616114E-10
  -4.48000002      -3.45833334E-10
  -4.32000017      -1.86311092E-10
  -4.15999985       2.27038180E-10
  -4.00000000       5.57244972E-10
  -3.83999991       4.19830060E-10
  -3.68000007      -2.03663850E-10
  -3.51999998      -8.48830006E-10
  -3.35999990      -9.57049107E-10
  -3.20000005      -3.99482281E-10
  -3.03999996       4.49690729E-10
  -2.88000011       1.14655130E-09
  -2.72000003       1.49658863E-09
  -2.55999994       1.30127631E-09
  -2.40000010       4.58996313E-11
  -2.24000001      -2.53363797E-09
  -2.07999992      -5.21087840E-09
  -1.91999996      -5.14352738E-09
  -1.75999999      -2.23697241E-10
  -1.60000002       7.67560770E-09
  -1.44000006       1.24632082E-08
  -1.27999997       8.51387405E-09
  -1.12000000      -3.28591021E-09
 -0.959999979      -1.46860977E-08
 -0.800000012      -1.67690430E-08
 -0.639999986      -8.34025737E-09
 -0.479999989       2.89672530E-09
 -0.319999993       8.36149372E-09
 -0.159999996       7.45147677E-09
   1.66533454E-16   7.09419945E-09
  0.159999996       1.20352555E-08
  0.319999993       1.72127059E-08
  0.479999989       1.23245298E-08
  0.639999986      -5.17063459E-09
  0.800000012      -2.34953941E-08
  0.959999979      -2.58326001E-08
   1.12000000      -7.37077377E-09
   1.27999997       1.80810797E-08
   1.44000006       3.04964551E-08
   1.60000002       2.37167175E-08
   1.75999999       1.31287443E-08
   1.91999996       2.29442936E-08
   2.07999992       6.52141097E-08
   2.24000001       1.29930598E-07
   2.40000010       1.93513685E-07
   2.55999994       2.35344160E-07
   2.72000003       2.46472126E-07
   2.88000011       2.24555365E-07
   3.03999996       1.62500655E-07
   3.20000005       4.21470787E-08
   3.35999990      -1.63182179E-07
   3.51999998      -4.83870906E-07
   3.68000007      -9.57483394E-07
   3.83999991      -1.64556172E-06
   4.00000000      -2.65850736E-06
   4.15999985      -4.17714591E-06
   4.32000017      -6.46459102E-06
   4.48000002      -9.87588737E-06
   4.63999987      -1.48827385E-05
   4.80000019      -2.21230439E-05
   4.96000004      -3.24633220E-05
   5.11999989      -4.70470623E-05
   5.28000021      -6.73124669E-05
   5.44000006      -9.49922105E-05
   5.59999990      -1.32124493E-04
   5.76000023      -1.81084833E-04
   5.92000008      -2.44607305E-04
   6.07999992      -3.25742614E-04
   6.23999977      -4.27721476E-04
   6.40000010      -5.53733436E-04
   6.55999994      -7.06649385E-04
   6.71999979      -8.88693263E-04
   6.88000011      -1.10103516E-03
   7.03999996      -1.34328019E-03
   7.19999981      -1.61287840E-03
   7.36000013      -1.90453522E-03
   7.51999998      -2.20974348E-03
   7.67999983      -2.51653511E-03
   7.84000015      -2.80953012E-03
   8.00000000      -3.07034049E-03
   8.15999985      -3.27836978E-03
   8.31999969      -3.41203553E-03
   8.47999954      -3.45039810E-03
   8.64000034      -3.37509089E-03
   8.80000019      -3.17239203E-03
   8.96000004      -2.83519155E-03
   9.11999989      -2.36460310E-03
   9.27999973      -1.77097099E-03
   9.43999958      -1.07408478E-03
   9.60000038      -3.02480592E-04
   9.76000023       5.08200377E-04
   9.92000008       1.31772959E-03
   10.0799999       2.08449317E-03
   10.2399998       2.76906067E-03
   10.3999996       3.33770900E-03
   10.5600004       3.76547151E-03
   10.7200003       4.03833063E-03
   10.8800001       4.15429240E-03
   11.0400000       4.12318856E-03
   11.1999998       3.96519434E-03
   11.3599997       3.70820123E-03
   11.5200005       3.38435639E-03
   11.6800003       3.02621722E-03
   11.8400002       2.66303238E-03
   12.0000000       2.31762021E-03
   12.1599998       2.00421759E-03
   12.3199997       1.72753760E-03
   12.4799995       1.48313772E-03
   12.6400003       1.25902612E-03
   12.8000002       1.03826774E-03
   12.9600000       8.02208262E-04
   13.1199999       5.33859129E-04
   13.2799997       2.20991715E-04
   13.4399996      -1.41449025E-04
   13.6000004      -5.49884338E-04
   13.7600002      -9.91722336E-04
   13.9200001      -1.44603499E-03
   14.0799999      -1.88514346E-03
   14.2399998      -2.27688369E-03
   14.3999996      -2.58727674E-03
   14.5600004      -2.78330641E-03
   14.7200003      -2.83552101E-03
   14.8800001      -2.72022234E-03
   15.0400000      -2.42113229E-03
   15.1999998      -1.93051831E-03
   15.3599997      -1.24983408E-03
   15.5200005      -3.89928406E-04
   15.6800003       6.29132381E-04
   15.8400002       1.77858700E-03
   16.0000000       3.02180182E-03
   16.1599998       4.31536464E-03
   16.3199997       5.61047206E-03
   16.4799995       6.85465755E-03
   16.6399994       7.99389277E-03
   16.7999992       8.97501316E-03
   16.9599991       9.74834245E-03
   17.1200008       1.02703637E-02
   17.2800007       1.05062379E-02
   17.4400005       1.04319742E-02
   17.6000004       1.00360271E-02
   17.7600002       9.32013709E-03
   17.9200001       8.29932094E-03
   18.0799999       7.00101117E-03
   18.2399998       5.46345441E-03
   18.3999996       3.73356207E-03
   18.5599995       1.86444016E-03
   18.7199993      -8.71577868E-05
   18.8799992      -2.06320896E-03
   19.0400009      -4.00647148E-03
   19.2000008      -5.86213265E-03
   19.3600006      -7.57907471E-03
   19.5200005      -9.11084376E-03
   19.6800003      -1.04164416E-02
   19.8400002      -1.14610894E-02
   20.0000000      -1.22170812E-02
   20.1599998      -1.26647986E-02
   20.3199997      -1.27938101E-02
   20.4799995      -1.26039051E-02
   20.6399994      -1.21059045E-02
   20.7999992      -1.13219935E-02
   20.9599991      -1.02854352E-02
   21.1200008      -9.03946441E-03
   21.2800007      -7.63536198E-03
   21.4400005      -6.12976030E-03
   21.6000004      -4.58144164E-03
   21.7600002      -3.04793357E-03
   21.9200001      -1.58224755E-03
   22.0799999      -2.30075340E-04
   22.2399998       9.72290523E-04
   22.3999996       1.99913047E-03
   22.5599995       2.83550611E-03
   22.7199993       3.47660645E-03
   22.8799992       3.92645225E-03
   23.0400009       4.19624755E-03
   23.2000008       4.30263672E-03
   23.3600006       4.26607672E-03
   23.5200005       4.10946272E-03
   23.6800003       3.85708106E-03
   23.8400002       3.53385042E-03
   24.0000000       3.16472864E-03
   24.1599998       2.77412194E-03
   24.3199997       2.38515134E-03
   24.4799995       2.01872061E-03
   24.6399994       1.69240532E-03
   24.7999992       1.41926925E-03
   24.9599991       1.20677764E-03
   25.1200008       1.05603936E-03
   25.2800007       9.61610815E-04
   25.4400005       9.12029354E-04
   25.6000004       8.91110103E-04
   25.7600002       8.79903091E-04
   25.9200001       8.59090011E-04
   26.0799999       8.11519742E-04
   26.2399998       7.24533573E-04
   26.3999996       5.91726450E-04
   26.5599995       4.13857953E-04
   26.7199993       1.98765381E-04
   26.8799992      -3.96960459E-05
   27.0400009      -2.83508271E-04
   27.2000008      -5.12856641E-04
   27.3600006      -7.08660460E-04
   27.5200005      -8.54898593E-04
   27.6800003      -9.40399768E-04
   27.8400002      -9.59869532E-04
   28.0000000      -9.14088741E-04
   28.1599998      -8.09369492E-04
   28.3199997      -6.56461809E-04
   28.4799995      -4.69148334E-04
   28.6399994      -2.62764748E-04
   28.7999992      -5.28566197E-05
   28.9599991       1.45879734E-04
   29.1200008       3.20315798E-04
   29.2800007       4.59313858E-04
   29.4400005       5.53964870E-04
   29.6000004       5.97767124E-04
   29.7600002       5.86839917E-04
   29.9200001       5.20213856E-04
   30.0799999       4.00175893E-04
   30.2399998       2.32582155E-04
   30.3999996       2.69960456E-05
   30.5599995      -2.03503078E-04
   30.7199993      -4.42964054E-04
   30.8799992      -6.73692906E-04
   31.0400009      -8.77797953E-04
   31.2000008      -1.03898929E-03
   31.3600006      -1.14440091E-03
   31.5200005      -1.18616689E-03
   31.6800003      -1.16248301E-03
   31.8400002      -1.07794779E-03
