 -0.12000000000000000          0.0000000000000000     
 -0.11914999999999999          0.0000000000000000     
 -0.11830000000000000          0.0000000000000000     
 -0.11745000000000000          0.0000000000000000     
 -0.11660000000000000          0.0000000000000000     
 -0.11574999999999999          0.0000000000000000     
 -0.11490000000000000         -2.5035176180645007E-027
 -0.11405000000000000         -2.4024771759594697E-026
 -0.11320000000000000         -1.1473154943760113E-025
 -0.11234999999999999         -3.5058483237499407E-025
 -0.11150000000000000         -7.1477374196146596E-025
 -0.11065000000000000         -8.0142157465849419E-025
 -0.10979999999999999          5.3535528930987412E-025
 -0.10894999999999999          5.0799552678053108E-024
 -0.10810000000000000          1.3854673387267327E-023
 -0.10725000000000000          2.3826976899831396E-023
 -0.10639999999999999          2.3581627916896228E-023
 -0.10554999999999999         -8.5014703694640261E-024
 -0.10470000000000000         -9.7355473894505787E-023
 -0.10385000000000000         -2.4954232908573024E-022
 -0.10299999999999999         -4.1699095537516416E-022
 -0.10214999999999999         -4.6039887138039409E-022
 -0.10130000000000000         -1.4490022764983351E-022
 -0.10045000000000000          7.8721068809962044E-022
  -9.9599999999999994E-002     2.4320906508949034E-021
  -9.8750000000000004E-002     4.4413077458768140E-021
  -9.7900000000000001E-002     5.7404379516532550E-021
  -9.7049999999999997E-002     4.4531755086701103E-021
  -9.6199999999999994E-002    -1.6999673801639881E-021
  -9.5349999999999990E-002    -1.4309314339915340E-020
  -9.4500000000000001E-002    -3.2504656999633249E-020
  -9.3649999999999997E-002    -5.0950574047388586E-020
  -9.2799999999999994E-002    -5.8590936238535112E-020
  -9.1950000000000004E-002    -3.9547292097134273E-020
  -9.1100000000000000E-002     2.2439198848150276E-020
  -9.0249999999999997E-002     1.3540800472243570E-019
  -8.9399999999999993E-002     2.8750010140698257E-019
  -8.8549999999999990E-002     4.3569322193063778E-019
  -8.7700000000000000E-002     5.0090167098116676E-019
  -8.6849999999999997E-002     3.7673351869566671E-019
  -8.5999999999999993E-002    -4.1940067308080576E-020
  -8.5150000000000003E-002    -8.0917579521113398E-019
  -8.4300000000000000E-002    -1.8640000697090038E-018
  -8.3449999999999996E-002    -2.9703507538923604E-018
  -8.2600000000000007E-002    -3.6892584364856457E-018
  -8.1749999999999989E-002    -3.4165258497925905E-018
  -8.0900000000000000E-002    -1.5136088276377422E-018
  -8.0049999999999996E-002     2.4604148684594224E-018
  -7.9199999999999993E-002     8.4423789117295987E-018
  -7.8350000000000003E-002     1.5554635006472054E-017
  -7.7499999999999999E-002     2.1903864390493736E-017
  -7.6649999999999996E-002     2.4627027138651740E-017
  -7.5800000000000006E-002     2.0311581759443552E-017
  -7.4949999999999989E-002     5.8565259236491382E-018
  -7.4099999999999999E-002    -2.0273360328875439E-017
  -7.3249999999999996E-002    -5.6604157614967961E-017
  -7.2399999999999992E-002    -9.7390978497891604E-017
  -7.1550000000000002E-002    -1.3203873459333382E-016
  -7.0699999999999999E-002    -1.4574152018814254E-016
  -6.9849999999999995E-002    -1.2176495810959296E-016
  -6.9000000000000006E-002    -4.5506353427582135E-017
  -6.8149999999999988E-002     8.9992904032469376E-017
  -6.7299999999999999E-002     2.7797570387302524E-016
  -6.6449999999999995E-002     4.9279743233616593E-016
  -6.5599999999999992E-002     6.8751440285041635E-016
  -6.4750000000000002E-002     7.9616951153018344E-016
  -6.3899999999999998E-002     7.4229914725708922E-016
  -6.3049999999999995E-002     4.5422525018696157E-016
  -6.2199999999999998E-002    -1.1379492953886872E-016
  -6.1350000000000002E-002    -9.5733386119687417E-016
  -6.0499999999999998E-002    -1.9991352949082054E-015
  -5.9650000000000002E-002    -3.0741912909826707E-015
  -5.8799999999999998E-002    -3.9293674843362121E-015
  -5.7950000000000002E-002    -4.2437233970478407E-015
  -5.7099999999999998E-002    -3.6734073779511061E-015
  -5.6249999999999994E-002    -1.9210771442429734E-015
  -5.5400000000000005E-002     1.1755588942864531E-015
  -5.4550000000000001E-002     5.5476076482828130E-015
  -5.3699999999999998E-002     1.0808712859659046E-014
  -5.2849999999999994E-002     1.6200653303494668E-014
  -5.2000000000000005E-002     2.0594509171437315E-014
  -5.1150000000000001E-002     2.2568827153609376E-014
  -5.0299999999999997E-002     2.0579007560269249E-014
  -4.9449999999999994E-002     1.3219644757725885E-014
  -4.8600000000000004E-002    -4.3553160060323790E-016
  -4.7750000000000001E-002    -2.0451695722604448E-014
  -4.6899999999999997E-002    -4.5665124572617890E-014
  -4.6049999999999994E-002    -7.3403416778312142E-014
  -4.5200000000000004E-002    -9.9377805935702742E-014
  -4.4350000000000001E-002    -1.1783037298200437E-013
  -4.3499999999999997E-002    -1.2200318955750735E-013
  -4.2649999999999993E-002    -1.0496268244789659E-013
  -4.1800000000000004E-002    -6.0762843989941913E-014
  -4.0950000000000000E-002     1.4132849405397888E-014
  -4.0099999999999997E-002     1.1932188174603737E-013
  -3.9249999999999993E-002     2.4904338263865576E-013
  -3.8400000000000004E-002     3.9114171005444553E-013
  -3.7550000000000000E-002     5.2670886041480787E-013
  -3.6699999999999997E-002     6.3068671415708140E-013
  -3.5850000000000007E-002     6.7364625254148822E-013
  -3.5000000000000003E-002     6.2484393586854481E-013
  -3.4150000000000000E-002     4.5648825931924156E-013
  -3.3299999999999996E-002     1.4895157942751511E-013
  -3.2450000000000007E-002    -3.0355460817876212E-013
  -3.1600000000000003E-002    -8.8752371670323787E-013
  -3.0750000000000000E-002    -1.5657536287545061E-012
  -2.9899999999999996E-002    -2.2749097287026913E-012
  -2.9050000000000006E-002    -2.9259383245999962E-012
  -2.8200000000000003E-002    -3.4080403171856699E-012
  -2.7349999999999999E-002    -3.5966518385915624E-012
  -2.6499999999999996E-002    -3.3654553124412865E-012
  -2.5650000000000006E-002    -2.6019603097488172E-012
  -2.4800000000000003E-002    -1.2256525280344147E-012
  -2.3949999999999999E-002     7.9281514544092567E-013
  -2.3099999999999996E-002     3.4133651905789283E-012
  -2.2250000000000006E-002     6.5114759785651050E-012
  -2.1400000000000002E-002     9.8688141255771267E-012
  -2.0549999999999999E-002     1.3171834085541562E-011
  -1.9699999999999995E-002     1.6020286439640961E-011
  -1.8850000000000006E-002     1.7946984786335116E-011
  -1.8000000000000002E-002     1.8449272774127831E-011
  -1.7149999999999999E-002     1.7031632302477671E-011
  -1.6299999999999995E-002     1.3257666587171338E-011
  -1.5450000000000005E-002     6.8084872818573825E-012
  -1.4600000000000002E-002    -2.4566805445115616E-012
  -1.3749999999999998E-002    -1.4442770742598603E-011
  -1.2899999999999995E-002    -2.8770040426846100E-011
  -1.2050000000000005E-002    -4.4740353734023450E-011
  -1.1200000000000002E-002    -6.1324794150134034E-011
  -1.0349999999999998E-002    -7.7178261843369309E-011
  -9.5000000000000084E-003    -9.0685425941860236E-011
  -8.6500000000000049E-003    -1.0004060845134342E-010
  -7.8000000000000014E-003    -1.0336186072472710E-010
  -6.9499999999999978E-003    -9.8836806445364352E-011
  -6.1000000000000082E-003    -8.4894526521992654E-011
  -5.2500000000000047E-003    -6.0394754920831483E-011
  -4.4000000000000011E-003    -2.4822493004353758E-011
  -3.5499999999999976E-003     2.1526464194326384E-011
  -2.7000000000000079E-003     7.7385293492554280E-011
  -1.8500000000000044E-003     1.4039887015959786E-010
  -1.0000000000000009E-003     2.0706653155461383E-010
  -1.4999999999999736E-004     2.7276041160425948E-010
   6.9999999999999230E-004     3.3183226860629400E-010
   1.5499999999999958E-003     3.7781756167813128E-010
   2.3999999999999994E-003     4.0373990811354141E-010
   3.2500000000000029E-003     4.0251349962239848E-010
   4.0999999999999925E-003     3.6743424714222147E-010
   4.9499999999999961E-003     2.9274412467319804E-010
   5.7999999999999996E-003     1.7424767686099112E-010
   6.6499999999999893E-003     9.9540662775563800E-012
   7.5000000000000067E-003    -1.9928296920043632E-010
   8.3499999999999963E-003    -4.4915908673637121E-010
   9.1999999999999860E-003    -7.3137500933685169E-010
   1.0050000000000003E-002    -1.0331797374472013E-009
   1.0899999999999993E-002    -1.3370216086495126E-009
   1.1750000000000010E-002    -1.6203184930681644E-009
   1.2600000000000000E-002    -1.8553514239182556E-009
   1.3449999999999990E-002    -2.0092716301204218E-009
   1.4300000000000007E-002    -2.0442037930204473E-009
   1.5149999999999997E-002    -1.9174166072531633E-009
   1.5999999999999986E-002    -1.5815168060985698E-009
   1.6850000000000004E-002    -9.8462285712823610E-010
   1.7699999999999994E-002    -7.0455109551725716E-011
   1.8549999999999983E-002     1.2217135299925290E-009
   1.9400000000000001E-002     2.9573167272537099E-009
   2.0249999999999990E-002     5.2070292924879884E-009
   2.1100000000000008E-002     8.0476468432466636E-009
   2.1949999999999997E-002     1.1563361463482342E-008
   2.2799999999999987E-002     1.5847527791603259E-008
   2.3650000000000004E-002     2.1004939925365600E-008
   2.4499999999999994E-002     2.7154675718882268E-008
   2.5349999999999984E-002     3.4433583051931953E-008
   2.6200000000000001E-002     4.3000416951305590E-008
   2.7049999999999991E-002     5.3040657965925514E-008
   2.7900000000000008E-002     6.4772061880305383E-008
   2.8749999999999998E-002     7.8450945318429561E-008
   2.9599999999999987E-002     9.4379257845971595E-008
   3.0450000000000005E-002     1.1291237077356337E-007
   3.1299999999999994E-002     1.3446772166894163E-007
   3.2149999999999984E-002     1.5953424893695376E-007
   3.3000000000000002E-002     1.8868264301574658E-007
   3.3849999999999991E-002     2.2257646422199903E-007
   3.4700000000000009E-002     2.6198418593216691E-007
   3.5549999999999998E-002     3.0779205883113354E-007
   3.6399999999999988E-002     3.6101821738886534E-007
   3.7250000000000005E-002     4.2282745801427999E-007
   3.8099999999999995E-002     4.9454743443973959E-007
   3.8949999999999985E-002     5.7768598793589240E-007
   3.9800000000000002E-002     6.7394968723524492E-007
   4.0649999999999992E-002     7.8526380194737036E-007
   4.1500000000000009E-002     9.1379389889071670E-007
   4.2349999999999999E-002     1.0619683780277327E-006
   4.3199999999999988E-002     1.2325038908256483E-006
   4.4050000000000006E-002     1.4284302631116823E-006
   4.4899999999999995E-002     1.6531200295283271E-006
   4.5749999999999985E-002     1.9103170425760886E-006
   4.6600000000000003E-002     2.2041673186163891E-006
   4.7449999999999992E-002     2.5392527064095029E-006
   4.8299999999999982E-002     2.9206248423060895E-006
   4.9149999999999999E-002     3.3538390461731737E-006
   4.9999999999999989E-002     3.8449912075848487E-006
   5.0850000000000006E-002     4.4007529402473178E-006
   5.1699999999999996E-002     5.0284080797175159E-006
   5.2549999999999986E-002     5.7358865795854862E-006
   5.3400000000000003E-002     6.5318014997254934E-006
   5.4249999999999993E-002     7.4254737635832458E-006
   5.5099999999999982E-002     8.4269667588786195E-006
   5.5950000000000000E-002     9.5471052556771060E-006
   5.6799999999999989E-002     1.0797496581313584E-005
   5.7650000000000007E-002     1.2190541020555596E-005
   5.8499999999999996E-002     1.3739440400743870E-005
   5.9349999999999986E-002     1.5458183496923812E-005
   6.0200000000000004E-002     1.7361542668896627E-005
   6.1049999999999993E-002     1.9465043629746894E-005
   6.1899999999999983E-002     2.1784919523661034E-005
   6.2750000000000000E-002     2.4338069304874343E-005
   6.3599999999999990E-002     2.7141976783151308E-005
   6.4450000000000007E-002     3.0214633651249403E-005
   6.5299999999999997E-002     3.3574430622500373E-005
   6.6149999999999987E-002     3.7240030890279764E-005
   6.7000000000000004E-002     4.1230232695512297E-005
   6.7849999999999994E-002     4.5563790778638410E-005
   6.8699999999999983E-002     5.0259242409433490E-005
   6.9550000000000001E-002     5.5334690571225511E-005
   7.0399999999999990E-002     6.0807556255542241E-005
   7.1249999999999980E-002     6.6694316793808778E-005
   7.2099999999999997E-002     7.3010242617821091E-005
   7.2949999999999987E-002     7.9769067949388684E-005
   7.3800000000000004E-002     8.6982646320587343E-005
   7.4649999999999994E-002     9.4660630329011783E-005
   7.5499999999999984E-002     1.0281006271335304E-004
   7.6350000000000001E-002     1.1143496706382514E-004
   7.7199999999999991E-002     1.2053596701933487E-004
   7.8049999999999981E-002     1.3010984774745467E-004
   7.8899999999999998E-002     1.4014912298894360E-004
   7.9749999999999988E-002     1.5064156531087883E-004
   8.0600000000000005E-002     1.6156980823254255E-004
   8.1449999999999995E-002     1.7291089729657043E-004
   8.2299999999999984E-002     1.8463583054103061E-004
   8.3150000000000002E-002     1.9670918962560330E-004
   8.3999999999999991E-002     2.0908873846869270E-004
   8.4849999999999981E-002     2.2172512356160898E-004
   8.5699999999999998E-002     2.3456153741821433E-004
   8.6549999999999988E-002     2.4753347994709235E-004
   8.7400000000000005E-002     2.6056854409749382E-004
   8.8249999999999995E-002     2.7358636946082655E-004
   8.9099999999999985E-002     2.8649846905443412E-004
   8.9950000000000002E-002     2.9920841031076640E-004
   9.0799999999999992E-002     3.1161188450969546E-004
   9.1649999999999981E-002     3.2359682114366641E-004
   9.2499999999999999E-002     3.3504402225546673E-004
   9.3349999999999989E-002     3.4582741635952471E-004
   9.4200000000000006E-002     3.5581452304181643E-004
   9.5049999999999996E-002     3.6486729355455344E-004
   9.5899999999999985E-002     3.7284316554578843E-004
   9.6750000000000003E-002     3.7959562115796853E-004
   9.7599999999999992E-002     3.8497529825571599E-004
   9.8449999999999982E-002     3.8883135202848841E-004
   9.9299999999999999E-002     3.9101283581295426E-004
  0.10014999999999999          3.9136996150425119E-004
  0.10099999999999998          3.8975556054444781E-004
  0.10185000000000000          3.8602668514087083E-004
  0.10269999999999999          3.8004685658740825E-004
  0.10355000000000000          3.7168701931187870E-004
  0.10439999999999999          3.6082792645031027E-004
  0.10524999999999998          3.4736171828818026E-004
  0.10610000000000000          3.3119387441274612E-004
  0.10694999999999999          3.1224488725981639E-004
  0.10779999999999998          2.9045269269253654E-004
  0.10865000000000000          2.6577331619800432E-004
  0.10949999999999999          2.3818349055931603E-004
  0.11035000000000000          2.0768196927376225E-004
  0.11119999999999999          1.7429033360496563E-004
  0.11204999999999998          1.3805497309459094E-004
  0.11290000000000000          9.9047816559537355E-005
  0.11374999999999999          5.7366884393282070E-005
  0.11459999999999998          1.3137477741320923E-005
  0.11545000000000000         -3.3488104360389256E-005
  0.11629999999999999         -8.2330262686040298E-005
  0.11715000000000000         -1.3318269904935616E-004
  0.11799999999999999         -1.8581210669956497E-004
  0.11884999999999998         -2.3996027099912006E-004
  0.11970000000000000         -2.9534408339244362E-004
  0.12054999999999999         -3.5165826433498725E-004
  0.12139999999999998         -4.0857628761347754E-004
  0.12225000000000000         -4.6575267603687388E-004
  0.12309999999999999         -5.2282586084766310E-004
  0.12395000000000000         -5.7942063093580683E-004
  0.12479999999999999         -6.3515115408656732E-004
  0.12564999999999998         -6.8962429367780734E-004
  0.12650000000000000         -7.4244278688914255E-004
  0.12734999999999999         -7.9320917633207840E-004
  0.12819999999999998         -8.4152930879967836E-004
  0.12905000000000000         -8.8701615317747962E-004
  0.12989999999999999         -9.2929356519550247E-004
  0.13074999999999998         -9.6800019807013853E-004
  0.13159999999999999         -1.0027936328933298E-003
  0.13245000000000001         -1.0333533112885124E-003
  0.13329999999999997         -1.0593847169717827E-003
  0.13414999999999999         -1.0806228243747243E-003
  0.13500000000000001         -1.0968346555753415E-003
  0.13584999999999997         -1.1078223370996993E-003
  0.13669999999999999         -1.1134260243709968E-003
  0.13755000000000001         -1.1135254504077870E-003
  0.13839999999999997         -1.1080420977299305E-003
  0.13924999999999998         -1.0969403965140449E-003
  0.14010000000000000         -1.0802286551282636E-003
  0.14094999999999996         -1.0579595896193846E-003
  0.14179999999999998         -1.0302302023761261E-003
  0.14265000000000000         -9.9718108144039412E-004
  0.14350000000000002         -9.5899609303689757E-004
  0.14434999999999998         -9.1590029491275642E-004
  0.14520000000000000         -8.6815804500458920E-004
  0.14605000000000001         -8.1607124781171638E-004
  0.14689999999999998         -7.5997546820066257E-004
  0.14774999999999999         -7.0023859142656782E-004
  0.14860000000000001         -6.3725580639214857E-004
  0.14944999999999997         -5.7144665536985038E-004
  0.15029999999999999         -5.0325075505379185E-004
  0.15115000000000001         -4.3312352744238230E-004
  0.15199999999999997         -3.6153234709879829E-004
  0.15284999999999999         -2.8895172353004633E-004
  0.15370000000000000         -2.1585867312511259E-004
  0.15454999999999997         -1.4272897431221349E-004
  0.15539999999999998         -7.0031972193677227E-005
  0.15625000000000000          1.7731712134444347E-006
  0.15709999999999996          7.2241783196079783E-005
  0.15794999999999998          1.4094747481534342E-004
  0.15880000000000000          2.0748611717184086E-004
  0.15965000000000001          2.7147790912744396E-004
  0.16049999999999998          3.3257237872573328E-004
  0.16134999999999999          3.9044921229659189E-004
  0.16220000000000001          4.4482129083208110E-004
  0.16304999999999997          4.9543706639757997E-004
  0.16389999999999999          5.4208032616694319E-004
  0.16475000000000001          5.8457270375485886E-004
  0.16559999999999997          6.2277361754027377E-004
  0.16644999999999999          6.5658051173712048E-004
  0.16730000000000000          6.8592861630520320E-004
  0.16814999999999997          7.1079005912793257E-004
  0.16899999999999998          7.3117275188833370E-004
  0.16985000000000000          7.4711967347256946E-004
  0.17069999999999996          7.5870678429613243E-004
  0.17154999999999998          7.6604044495276111E-004
  0.17240000000000000          7.6925634859833798E-004
  0.17325000000000002          7.6851581529068186E-004
  0.17409999999999998          7.6400407170200435E-004
  0.17494999999999999          7.5592714992591954E-004
  0.17580000000000001          7.4450936061728535E-004
  0.17664999999999997          7.2998936671563399E-004
  0.17749999999999999          7.1261870560745781E-004
  0.17835000000000001          6.9265758133810066E-004
  0.17919999999999997          6.7037254263786468E-004
  0.18004999999999999          6.4603378901093782E-004
  0.18090000000000001          6.1991242120314693E-004
  0.18174999999999997          5.9227763733509940E-004
  0.18259999999999998          5.6339462821902329E-004
  0.18345000000000000          5.3352225848257143E-004
  0.18429999999999996          5.0291130131286342E-004
  0.18514999999999998          4.7180225022756676E-004
  0.18600000000000000          4.4042400550175766E-004
  0.18684999999999996          4.0899274114188463E-004
  0.18769999999999998          3.7771015601423529E-004
  0.18855000000000000          3.4676319614064240E-004
  0.18940000000000001          3.1632307409699013E-004
  0.19024999999999997          2.8654491191529698E-004
  0.19109999999999999          2.5756737205612142E-004
  0.19195000000000001          2.2951280261981934E-004
  0.19279999999999997          2.0248704393032642E-004
  0.19364999999999999          1.7657999092854192E-004
  0.19450000000000001          1.5186594223083686E-004
  0.19534999999999997          1.2840401009563200E-004
  0.19619999999999999          1.0623903465323465E-004
  0.19705000000000000          8.5402207233123911E-005
  0.19789999999999996          6.5911962007440003E-005
  0.19874999999999998          4.7774921488782435E-005
  0.19960000000000000          3.0986795931965950E-005
  0.20044999999999996          1.5533355793241252E-005
  0.20129999999999998          1.3915617851786106E-006
  0.20215000000000000         -1.1469551606732206E-005
  0.20300000000000001         -2.3087726011591040E-005
  0.20384999999999998         -3.3506788802790129E-005
  0.20469999999999999         -4.2775353970746428E-005
  0.20555000000000001         -5.0946150587732012E-005
  0.20639999999999997         -5.8075076199937164E-005
  0.20724999999999999         -6.4220401097061521E-005
  0.20810000000000001         -6.9441996816016382E-005
  0.20894999999999997         -7.3800740404606012E-005
  0.20979999999999999         -7.7357675712672188E-005
  0.21065000000000000         -8.0173704704261911E-005
  0.21149999999999997         -8.2308752046280758E-005
  0.21234999999999998         -8.3821691633866236E-005
  0.21320000000000000         -8.4769684500477974E-005
  0.21404999999999996         -8.5207948280816473E-005
  0.21489999999999998         -8.5189486938121363E-005
  0.21575000000000000         -8.4764846153832335E-005
  0.21659999999999996         -8.3982057099249912E-005
  0.21744999999999998         -8.2886320831995362E-005
  0.21829999999999999         -8.1520153350662415E-005
  0.21915000000000001         -7.9923085871033808E-005
  0.21999999999999997         -7.8131824828423134E-005
  0.22084999999999999         -7.6180193540736706E-005
  0.22170000000000001         -7.4099247984225585E-005
  0.22254999999999997         -7.1917275203634156E-005
  0.22339999999999999         -6.9659816820675800E-005
  0.22425000000000000         -6.7349868627206182E-005
  0.22509999999999997         -6.5007954351695675E-005
  0.22594999999999998         -6.2652235033099166E-005
  0.22680000000000000         -6.0298669379961939E-005
  0.22764999999999996         -5.7961108375637589E-005
  0.22849999999999998         -5.5651422362616073E-005
  0.22935000000000000         -5.3379713664646542E-005
  0.23019999999999996         -5.1154451080333857E-005
  0.23104999999999998         -4.8982519445746656E-005
  0.23190000000000000         -4.6869421248644448E-005
  0.23275000000000001         -4.4819485123328423E-005
  0.23359999999999997         -4.2835847223865478E-005
  0.23444999999999999         -4.0920731471045939E-005
  0.23530000000000001         -3.9075555339092455E-005
  0.23614999999999997         -3.7300913064117395E-005
  0.23699999999999999         -3.5596827629766142E-005
  0.23785000000000001         -3.3962787224390294E-005
  0.23869999999999997         -3.2397851601979454E-005
  0.23954999999999999         -3.0900817032528126E-005
  0.24040000000000000         -2.9470100015460036E-005
  0.24124999999999996         -2.8104003781485108E-005
  0.24209999999999998         -2.6800643578774533E-005
  0.24295000000000000         -2.5558093203778630E-005
  0.24379999999999996         -2.4374379778892546E-005
  0.24464999999999998         -2.3247508290192548E-005
  0.24550000000000000         -2.2175533273480113E-005
  0.24634999999999996         -2.1156557274999101E-005
  0.24719999999999998         -2.0188704383787602E-005
  0.24804999999999999         -1.9270208210951156E-005
  0.24890000000000001         -1.8399353865879437E-005
  0.24974999999999997         -1.7574504200565398E-005
  0.25059999999999999         -1.6794063018171863E-005
  0.25145000000000001         -1.6056534851174692E-005
  0.25229999999999997         -1.5360434711573584E-005
  0.25314999999999999         -1.4704330505101813E-005
  0.25400000000000000         -1.4086778830384313E-005
  0.25484999999999997         -1.3506378860049468E-005
  0.25569999999999998         -1.2961730653176583E-005
  0.25655000000000000         -1.2451423201016901E-005
  0.25739999999999996         -1.1973993996134861E-005
  0.25824999999999998         -1.1527976741963738E-005
  0.25910000000000000         -1.1111856290217781E-005
  0.25994999999999996         -1.0724063895899725E-005
  0.26079999999999998         -1.0362984552782931E-005
  0.26164999999999999         -1.0026938550725435E-005
  0.26249999999999996         -9.7141942385177994E-006
  0.26334999999999997         -9.4229882389212806E-006
  0.26419999999999999         -9.1515065956370076E-006
  0.26505000000000001         -8.8979374670175239E-006
  0.26589999999999997         -8.6604337703013434E-006
  0.26674999999999999         -8.4371932229927502E-006
  0.26760000000000000         -8.2264471338482598E-006
  0.26844999999999997         -8.0264690905527386E-006
  0.26929999999999998         -7.8356174579472277E-006
  0.27015000000000000         -7.6523497531522914E-006
  0.27099999999999996         -7.4752311735236437E-006
  0.27184999999999998         -7.3029532291620508E-006
  0.27270000000000000         -7.1343559113817549E-006
  0.27354999999999996         -6.9684365738743401E-006
  0.27439999999999998         -6.8043468081567534E-006
  0.27524999999999999         -6.6413984074484085E-006
  0.27609999999999996         -6.4790678868974840E-006
  0.27694999999999997         -6.3169882763425724E-006
  0.27779999999999999         -6.1549396083620217E-006
  0.27865000000000001         -5.9928309382409011E-006
  0.27949999999999997         -5.8306979328624105E-006
  0.28034999999999999         -5.6686879129602921E-006
  0.28120000000000001         -5.5070325880343116E-006
  0.28204999999999997         -5.3460395684872291E-006
  0.28289999999999998         -5.1860735384761212E-006
  0.28375000000000000         -5.0275488809968434E-006
  0.28459999999999996         -4.8708926564479566E-006
  0.28544999999999998         -4.7165525163123358E-006
  0.28630000000000000         -4.5649527507768193E-006
  0.28714999999999996         -4.4165076219732472E-006
  0.28799999999999998         -4.2715941510080692E-006
  0.28885000000000000         -4.1305297696074730E-006
  0.28969999999999996         -3.9935865577272299E-006
  0.29054999999999997         -3.8609644284205528E-006
  0.29139999999999999         -3.7328006907198982E-006
  0.29224999999999995         -3.6091594396749726E-006
  0.29309999999999997         -3.4900394373509006E-006
  0.29394999999999999         -3.3753777232969521E-006
  0.29480000000000001         -3.2650603680572155E-006
  0.29564999999999997         -3.1589245097115130E-006
  0.29649999999999999         -3.0567757710038239E-006
  0.29735000000000000         -2.9583897263473467E-006
  0.29819999999999997         -2.8635448100865921E-006
  0.29904999999999998         -2.7720169385491210E-006
  0.29990000000000000         -2.6836037002674980E-006
  0.30074999999999996         -2.5981299759278667E-006
  0.30159999999999998         -2.5154718744994641E-006
  0.30245000000000000         -2.4355552184214463E-006
  0.30329999999999996         -2.3583746780467723E-006
  0.30414999999999998         -2.2839770286602446E-006
  0.30499999999999999         -2.2124763486681567E-006
  0.30584999999999996         -2.1440584522267617E-006
  0.30669999999999997         -2.0789479085009800E-006
  0.30754999999999999         -2.0174210889109062E-006
  0.30840000000000001         -1.9597785852436257E-006
  0.30924999999999997         -1.9063496258046637E-006
  0.31009999999999999         -1.8574587748484856E-006
  0.31095000000000000         -1.8134263548457090E-006
  0.31179999999999997         -1.7745475001971830E-006
  0.31264999999999998         -1.7410665076060289E-006
  0.31350000000000000         -1.7131775766079470E-006
  0.31434999999999996         -1.6910019562850735E-006
  0.31519999999999998         -1.6745747269433012E-006
  0.31605000000000000         -1.6638384755419156E-006
  0.31689999999999996         -1.6586237958131592E-006
  0.31774999999999998         -1.6586449516218655E-006
  0.31859999999999999         -1.6635114304592282E-006
  0.31944999999999996         -1.6727183331690150E-006
  0.32029999999999997         -1.6856547810272924E-006
  0.32114999999999999         -1.7016172993540349E-006
  0.32199999999999995         -1.7198264097562039E-006
  0.32284999999999997         -1.7394528994212218E-006
  0.32369999999999999         -1.7596170692555785E-006
  0.32455000000000001         -1.7794378255545300E-006
  0.32539999999999997         -1.7980273372411538E-006
  0.32624999999999998         -1.8145312349965387E-006
  0.32710000000000000         -1.8281364508414266E-006
  0.32794999999999996         -1.8380927465375834E-006
  0.32879999999999998         -1.8437191288858137E-006
  0.32965000000000000         -1.8444322192517134E-006
  0.33049999999999996         -1.8397422706227648E-006
  0.33134999999999998         -1.8292734294556123E-006
  0.33220000000000000         -1.8127679151675626E-006
  0.33304999999999996         -1.7900940070733179E-006
  0.33389999999999997         -1.7612460274933844E-006
  0.33474999999999999         -1.7263477131861516E-006
  0.33559999999999995         -1.6856481216491533E-006
  0.33644999999999997         -1.6395159835868193E-006
  0.33729999999999999         -1.5884357176181043E-006
  0.33815000000000001         -1.5329883879200020E-006
  0.33899999999999997         -1.4738440368856702E-006
  0.33984999999999999         -1.4117380088491240E-006
  0.34070000000000000         -1.3474571350683461E-006
  0.34154999999999996         -1.2818179327916687E-006
  0.34239999999999998         -1.2156368344055281E-006