 -0.12000000000000000          0.0000000000000000     
 -0.11914999999999999          0.0000000000000000     
 -0.11830000000000000          0.0000000000000000     
 -0.11745000000000000          7.6408973773108083E-016
 -0.11660000000000000          3.9157043497397588E-015
 -0.11574999999999999          9.8377495663398734E-015
 -0.11490000000000000          1.3884539571661920E-014
 -0.11405000000000000          4.4139445377712542E-015
 -0.11320000000000000         -3.2407139484328873E-014
 -0.11234999999999999         -9.8528993276631036E-014
 -0.11150000000000000         -1.6488875347168117E-013
 -0.11065000000000000         -1.5966443113468679E-013
 -0.10979999999999999          1.9124206301840546E-014
 -0.10894999999999999          4.5430164877243765E-013
 -0.10810000000000000          1.1271770652433586E-012
 -0.10725000000000000          1.8299234594535628E-012
 -0.10639999999999999          2.1230451835151470E-012
 -0.10554999999999999          1.3960420937351713E-012
 -0.10470000000000000         -9.2934770252420723E-013
 -0.10385000000000000         -5.0628105179682857E-012
 -0.10299999999999999         -1.0455699142284682E-011
 -0.10214999999999999         -1.5507379832633428E-011
 -0.10130000000000000         -1.7555914466556570E-011
 -0.10045000000000000         -1.3320875465791058E-011
  -9.9599999999999994E-002     1.3077886931219638E-013
  -9.8750000000000004E-002     2.3989130696509939E-011
  -9.7900000000000001E-002     5.6171065947229024E-011
  -9.7049999999999997E-002     9.0129467900947493E-011
  -9.6199999999999994E-002     1.1457220022267757E-010
  -9.5349999999999990E-002     1.1461398041453898E-010
  -9.4500000000000001E-002     7.4664419221008651E-011
  -9.3649999999999997E-002    -1.7026907079658898E-011
  -9.2799999999999994E-002    -1.6274567359793917E-010
  -9.1950000000000004E-002    -3.4969552146881152E-010
  -9.1100000000000000E-002    -5.4590838421527203E-010
  -9.0249999999999997E-002    -6.9940206918405230E-010
  -8.9399999999999993E-002    -7.4220672078397338E-010
  -8.8549999999999990E-002    -6.0035453932608981E-010
  -8.7700000000000000E-002    -2.1000455306025849E-010
  -8.6849999999999997E-002     4.6146215774346285E-010
  -8.5999999999999993E-002     1.3921816082736703E-009
  -8.5150000000000003E-002     2.4848377074704976E-009
  -8.4300000000000000E-002     3.5538598808712932E-009
  -8.3449999999999996E-002     4.3274139482171322E-009
  -8.2600000000000007E-002     4.4703088120459480E-009
  -8.1749999999999989E-002     3.6318728694848848E-009
  -8.0900000000000000E-002     1.5189155083450610E-009
  -8.0049999999999996E-002    -2.0118514710294895E-009
  -7.9199999999999993E-002    -6.8544396428548917E-009
  -7.8350000000000003E-002    -1.2566791907480308E-008
  -7.7499999999999999E-002    -1.8320908199130457E-008
  -7.6649999999999996E-002    -2.2916508847595160E-008
  -7.5800000000000006E-002    -2.4880252253794853E-008
  -7.4949999999999989E-002    -2.2662451408757070E-008
  -7.4099999999999999E-002    -1.4926086597886992E-008
  -7.3249999999999996E-002    -9.0097675660751307E-010
  -7.2399999999999992E-002     1.9247734217630084E-008
  -7.1550000000000002E-002     4.4107284415332332E-008
  -7.0699999999999999E-002     7.0843446315112546E-008
  -6.9849999999999995E-002     9.5244410678910560E-008
  -6.9000000000000006E-002     1.1204198289537251E-007
  -6.8149999999999988E-002     1.1553165781425264E-007
  -6.7299999999999999E-002     1.0046059023346089E-007
  -6.6449999999999995E-002     6.3093973494954601E-008
  -6.5599999999999992E-002     2.3128836051074348E-009
  -6.4750000000000002E-002    -7.9444236198768552E-008
  -6.3899999999999998E-002    -1.7560093328797469E-007
  -6.3049999999999995E-002    -2.7540654819146065E-007
  -6.2199999999999998E-002    -3.6457484374807724E-007
  -6.1350000000000002E-002    -4.2663830495802937E-007
  -6.0499999999999998E-002    -4.4494657034492386E-007
  -5.9650000000000002E-002    -4.0511908946408098E-007
  -5.8799999999999998E-002    -2.9766036840448665E-007
  -5.7950000000000002E-002    -1.2036901088666556E-007
  -5.7099999999999998E-002     1.1985193446358032E-007
  -5.6249999999999994E-002     4.0614194252407941E-007
  -5.5400000000000005E-002     7.1205758655223733E-007
  -5.4550000000000001E-002     1.0032981633466131E-006
  -5.3699999999999998E-002     1.2407428072003381E-006
  -5.2849999999999994E-002     1.3845658096676430E-006
  -5.2000000000000005E-002     1.3990217222905407E-006
  -5.1150000000000001E-002     1.2573798470996156E-006
  -5.0299999999999997E-002     9.4639179789065022E-007
  -4.9449999999999994E-002     4.6969943144141140E-007
  -4.8600000000000004E-002    -1.5034692717630010E-007
  -4.7750000000000001E-002    -8.7283012167906931E-007
  -4.6899999999999997E-002    -1.6405178500941248E-006
  -4.6049999999999994E-002    -2.3841477654317095E-006
  -4.5200000000000004E-002    -3.0283890635843743E-006
  -4.4350000000000001E-002    -3.4989193892077594E-006
  -4.3499999999999997E-002    -3.7298502367543336E-006
  -4.2649999999999993E-002    -3.6706821128153893E-006
  -4.1800000000000004E-002    -3.2919658835523222E-006
  -4.0950000000000000E-002    -2.5889937988911979E-006
  -4.0099999999999997E-002    -1.5830757725747097E-006
  -3.9249999999999993E-002    -3.2026779826958010E-007
  -3.8400000000000004E-002     1.1322175662517089E-006
  -3.7550000000000000E-002     2.6913749252423609E-006
  -3.6699999999999997E-002     4.2647477270753978E-006
  -3.5850000000000007E-002     5.7568180497966584E-006
  -3.5000000000000003E-002     7.0745993911119024E-006
  -3.4150000000000000E-002     8.1317396911274807E-006
  -3.3299999999999996E-002     8.8508566428467461E-006
  -3.2450000000000007E-002     9.1641793184255384E-006
  -3.1600000000000003E-002     9.0131304328123779E-006
  -3.0750000000000000E-002     8.3476615181644414E-006
  -2.9899999999999996E-002     7.1263886481563695E-006
  -2.9050000000000006E-002     5.3185337989467626E-006
  -2.8200000000000003E-002     2.9082449263773897E-006
  -2.7349999999999999E-002    -9.8625990231937780E-008
  -2.6499999999999996E-002    -3.6658243656810618E-006
  -2.5650000000000006E-002    -7.7172998951095162E-006
  -2.4800000000000003E-002    -1.2129028510513376E-005
  -2.3949999999999999E-002    -1.6723825238557925E-005
  -2.3099999999999996E-002    -2.1270902678632547E-005
  -2.2250000000000006E-002    -2.5492412341341829E-005
  -2.1400000000000002E-002    -2.9075948519863275E-005
  -2.0549999999999999E-002    -3.1694727905774222E-005
  -1.9699999999999995E-002    -3.3032482027281322E-005
  -1.8850000000000006E-002    -3.2811179951595239E-005
  -1.8000000000000002E-002    -3.0819058271589808E-005
  -1.7149999999999999E-002    -2.6936221808728009E-005
  -1.6299999999999995E-002    -2.1153507266190179E-005
  -1.5450000000000005E-002    -1.3585170642313122E-005
  -1.4600000000000002E-002    -4.4710493623577378E-006
  -1.3749999999999998E-002     5.8277669367085971E-006
  -1.2899999999999995E-002     1.6843227639205782E-005
  -1.2050000000000005E-002     2.8019419698734809E-005
  -1.1200000000000002E-002     3.8737511189229461E-005
  -1.0349999999999998E-002     4.8336166987817318E-005
  -9.5000000000000084E-003     5.6140675303480583E-005
  -8.6500000000000049E-003     6.1484661647423234E-005
  -7.8000000000000014E-003     6.3725166549539233E-005
  -6.9499999999999978E-003     6.2265948611159988E-005
  -6.1000000000000082E-003     5.6567499770706741E-005
  -5.2500000000000047E-003     4.6156904042985895E-005
  -4.4000000000000011E-003     3.0638324060694193E-005
  -3.5499999999999976E-003     9.7000649682176261E-006
  -2.7000000000000079E-003    -1.6880505502159931E-005
  -1.8500000000000044E-003    -4.9232848479493105E-005
  -1.0000000000000009E-003    -8.7400295434556779E-005
  -1.4999999999999736E-004    -1.3133790024219896E-004
   6.9999999999999230E-004    -1.8093048153738410E-004
   1.5499999999999958E-003    -2.3601278288276766E-004
   2.3999999999999994E-003    -2.9639500622035601E-004
   3.2500000000000029E-003    -3.6189070742802596E-004
   4.0999999999999925E-003    -4.3238359980115671E-004
   4.9499999999999961E-003    -5.0787738825952273E-004
   5.7999999999999996E-003    -5.8855095194618070E-004
   6.6499999999999893E-003    -6.7481752258070622E-004
   7.5000000000000067E-003    -7.6741435785186132E-004
   8.3499999999999963E-003    -8.6746357259909917E-004
   9.1999999999999860E-003    -9.7651087180721787E-004
   1.0050000000000003E-002    -1.0966103847175038E-003
   1.0899999999999993E-002    -1.2303488533845701E-003
   1.1750000000000010E-002    -1.3808894617095078E-003
   1.2600000000000000E-002    -1.5519533648218906E-003
   1.3449999999999990E-002    -1.7479475695615547E-003
   1.4300000000000007E-002    -1.9738162546411547E-003
   1.5149999999999997E-002    -2.2352226410920673E-003
   1.5999999999999986E-002    -2.5384461485794857E-003
   1.6850000000000004E-002    -2.8904338721103726E-003
   1.7699999999999994E-002    -3.2990042445511470E-003
   1.8549999999999983E-002    -3.7725595529380235E-003
   1.9400000000000001E-002    -4.3205761459793350E-003
   2.0249999999999990E-002    -4.9534553630303868E-003
   2.1100000000000008E-002    -5.6826215210287918E-003
   2.1949999999999997E-002    -6.5208457415777262E-003
   2.2799999999999987E-002    -7.4819877736952665E-003
   2.3650000000000004E-002    -8.5816226879269521E-003
   2.4499999999999994E-002    -9.8370123961347613E-003
   2.5349999999999984E-002    -1.1266967341560791E-002
   2.6200000000000001E-002    -1.2892198655694426E-002
   2.7049999999999991E-002    -1.4735301776920862E-002
   2.7900000000000008E-002    -1.6821218485148136E-002
   2.8749999999999998E-002    -1.9176964379799998E-002
   2.9599999999999987E-002    -2.1831953457757059E-002
   3.0450000000000005E-002    -2.4817863397271041E-002
   3.1299999999999994E-002    -2.8169494510929146E-002
   3.2149999999999984E-002    -3.1923023328433983E-002
   3.3000000000000002E-002    -3.6118405816766223E-002
   3.3849999999999991E-002    -4.0798032158560801E-002
   3.4700000000000009E-002    -4.6006990786566400E-002
   3.5549999999999998E-002    -5.1792897742300184E-002
   3.6399999999999988E-002    -5.8206067598924105E-002
   3.7250000000000005E-002    -6.5299872603147138E-002
   3.8099999999999995E-002    -7.3128966570922743E-002
   3.8949999999999985E-002    -8.1750574368286019E-002
   3.9800000000000002E-002    -9.1223688931160896E-002
   4.0649999999999992E-002   -0.10160839610341625     
   4.1500000000000009E-002   -0.11296499556314046     
   4.2349999999999999E-002   -0.12535252357828039     
   4.3199999999999988E-002   -0.13882962503624824     
   4.4050000000000006E-002   -0.15345049088325260     
   4.4899999999999995E-002   -0.16926446202652398     
   4.5749999999999985E-002   -0.18631559105514492     
   4.6600000000000003E-002   -0.20464090422229073     
   4.7449999999999992E-002   -0.22426507332840642     
   4.8299999999999982E-002   -0.24519975116766507     
   4.9149999999999999E-002   -0.26744607295973660     
   4.9999999999999989E-002   -0.29098601542903085     
   5.0850000000000006E-002   -0.31578055237803360     
   5.1699999999999996E-002   -0.34177439411382338     
   5.2549999999999986E-002   -0.36888387200097605     
   5.3400000000000003E-002   -0.39699918186335653     
   5.4249999999999993E-002   -0.42598443989126628     
   5.5099999999999982E-002   -0.45566990154846010     
   5.5950000000000000E-002   -0.48585123150649556     
   5.6799999999999989E-002   -0.51629103397605813     
   5.7650000000000007E-002   -0.54670927589296314     
   5.8499999999999996E-002   -0.57678764178553943     
   5.9349999999999986E-002   -0.60617456239912793     
   6.0200000000000004E-002   -0.63447120347713537     
   6.1049999999999993E-002   -0.66123346829349106     
   6.1899999999999983E-002   -0.68597329017919872     
   6.2750000000000000E-002   -0.70816603352529517     
   6.3599999999999990E-002   -0.72724872607127899     
   6.4450000000000007E-002   -0.74262245352858147     
   6.5299999999999997E-002   -0.75363367965253114     
   6.6149999999999987E-002   -0.75961681774293899     
   6.7000000000000004E-002   -0.75988332402017822     
   6.7849999999999994E-002   -0.75370828439206750     
   6.8699999999999983E-002   -0.74035699196002591     
   6.9550000000000001E-002   -0.71911138120095031     
   7.0399999999999990E-002   -0.68922390814566625     
   7.1249999999999980E-002   -0.64997646765397321     
   7.2099999999999997E-002   -0.60068534612139679     
   7.2949999999999987E-002   -0.54067749797839193     
   7.3800000000000004E-002   -0.46936227651966922     
   7.4649999999999994E-002   -0.38617807563495521     
   7.5499999999999984E-002   -0.29065289892318369     
   7.6350000000000001E-002   -0.18242699838255216     
   7.7199999999999991E-002    -6.1230518123265187E-002
   7.8049999999999981E-002     7.3069161060706045E-002
   7.8899999999999998E-002    0.22051668251253920     
   7.9749999999999988E-002    0.38094019704189752     
   8.0600000000000005E-002    0.55404197810615630     
   8.1449999999999995E-002    0.73935421957060532     
   8.2299999999999984E-002    0.93618793957338442     
   8.3150000000000002E-002     1.1436866440577913     
   8.3999999999999991E-002     1.3607858706268168     
   8.4849999999999981E-002     1.5862163319002192     
   8.5699999999999998E-002     1.8185252349379228     
   8.6549999999999988E-002     2.0560007798132443     
   8.7400000000000005E-002     2.2967560574449499     
   8.8249999999999995E-002     2.5387086258007359     
   8.9099999999999985E-002     2.7796066914136763     
   8.9950000000000002E-002     3.0169809581959108     
   9.0799999999999992E-002     3.2482376382436171     
   9.1649999999999981E-002     3.4706529161343074     
   9.2499999999999999E-002     3.6813875051126201     
   9.3349999999999989E-002     3.8774946734656872     
   9.4200000000000006E-002     4.0560312799346727     
   9.5049999999999996E-002     4.2139921196667771     
   9.5899999999999985E-002     4.3483989780949255     
   9.6750000000000003E-002     4.4563412352876046     
   9.7599999999999992E-002     4.5350129028122392     
   9.8449999999999982E-002     4.5817575315077868     
   9.9299999999999999E-002     4.5940698267338345     
  0.10014999999999999          4.5697112218698974     
  0.10099999999999998          4.5066750117870065     
  0.10185000000000000          4.4032930115028055     
  0.10269999999999999          4.2582530235827534     
  0.10355000000000000          4.0705731914565426     
  0.10439999999999999          3.8397627992114103     
  0.10524999999999998          3.5657318988934925     
  0.10610000000000000          3.2488661549471645     
  0.10694999999999999          2.8900615882896545     
  0.10779999999999998          2.4906910772779582     
  0.10865000000000000          2.0526798785260665     
  0.10949999999999999          1.5784126138062469     
  0.11035000000000000          1.0708241708125039     
  0.11119999999999999         0.53329665666349602     
  0.11204999999999998         -3.0298216954292023E-002
  0.11290000000000000        -0.61565897888043253     
  0.11374999999999999         -1.2180501951819394     
  0.11459999999999998         -1.8323978748295842     
  0.11545000000000000         -2.4533305890084596     
  0.11629999999999999         -3.0752085985970297     
  0.11715000000000000         -3.6921568759941796     
  0.11799999999999999         -4.2982780211285663     
  0.11884999999999998         -4.8875134561906366     
  0.11970000000000000         -5.4538386491471567     
  0.12054999999999999         -5.9913716663397913     
  0.12139999999999998         -6.4943083387676968     
  0.12225000000000000         -6.9571359291498966     
  0.12309999999999999         -7.3746484882862484     
  0.12395000000000000         -7.7419669953950638     
  0.12479999999999999         -8.0546978374781641     
  0.12564999999999998         -8.3089207765866568     
  0.12650000000000000         -8.5013233518944791     
  0.12734999999999999         -8.6292049851392498     
  0.12819999999999998         -8.6904833332546456     
  0.12905000000000000         -8.6838027853234241     
  0.12989999999999999         -8.6085282984984914     
  0.13074999999999998         -8.4647196072501885     
  0.13159999999999999         -8.2531568474111694     
  0.13245000000000001         -7.9754208587176656     
  0.13329999999999997         -7.6337353818704621     
  0.13414999999999999         -7.2310602513165048     
  0.13500000000000001         -6.7709940058494507     
  0.13584999999999997         -6.2577869534833805     
  0.13669999999999999         -5.6961821336430214     
  0.13755000000000001         -5.0915402035566570     
  0.13839999999999997         -4.4495686651546471     
  0.13924999999999998         -3.7764185776574921     
  0.14010000000000000         -3.0785021123073166     
  0.14094999999999996         -2.3624534128332266     
  0.14179999999999998         -1.6351044996681372     
  0.14265000000000000        -0.90326920757196261     
  0.14350000000000002        -0.17376023027877130     
  0.14434999999999998         0.54671686720731238     
  0.14520000000000000          1.2516400259795322     
  0.14605000000000001          1.9347992069486475     
  0.14689999999999998          2.5902524983727160     
  0.14774999999999999          3.2125047304297620     
  0.14860000000000001          3.7964707263130419     
  0.14944999999999997          4.3376579337058052     
  0.15029999999999999          4.8320568789371325     
  0.15115000000000001          5.2762741648900935     
  0.15199999999999997          5.6675397151726283     
  0.15284999999999999          6.0036645119672052     
  0.15370000000000000          6.2831669467484490     
  0.15454999999999997          6.5051603341375142     
  0.15539999999999998          6.6694529335527548     
  0.15625000000000000          6.7764012508879992     
  0.15709999999999996          6.8269924523971603     
  0.15794999999999998          6.8227800511061085     
  0.15880000000000000          6.7658407852912514     
  0.15965000000000001          6.6587264131687354     
  0.16049999999999998          6.5044383714522986     
  0.16134999999999999          6.3063602664267639     
  0.16220000000000001          6.0681664168767186     
  0.16304999999999997          5.7938293311045079     
  0.16389999999999999          5.4875072951557735     
  0.16475000000000001          5.1535081486499639     
  0.16559999999999997          4.7962365644687663     
  0.16644999999999999          4.4201136899132916     
  0.16730000000000000          4.0295340570503786     
  0.16814999999999997          3.6288393660310003     
  0.16899999999999998          3.2222178153467071     
  0.16985000000000000          2.8137270157005445     
  0.17069999999999996          2.4072023783693695     
  0.17154999999999998          2.0062443854434817     
  0.17240000000000000          1.6141675616164175     
  0.17325000000000002          1.2340127593999313     
  0.17409999999999998         0.86849714840762315     
  0.17494999999999999         0.52001222081810194     
  0.17580000000000001         0.19060775314109990     
  0.17664999999999997        -0.11799802919769276     
  0.17749999999999999        -0.40442497210562833     
  0.17835000000000001        -0.66763134458140549     
  0.17919999999999997        -0.90689406441253162     
  0.18004999999999999         -1.1218018959021179     
  0.18090000000000001         -1.3122230942846147     
  0.18174999999999997         -1.4783088336016383     
  0.18259999999999998         -1.6204504485217990     
  0.18345000000000000         -1.7392672427633000     
  0.18429999999999996         -1.8355597915973283     
  0.18514999999999998         -1.9103279465414511     
  0.18600000000000000         -1.9646812836531793     
  0.18684999999999996         -1.9998538435971147     
  0.18769999999999998         -2.0171902412870750     
  0.18855000000000000         -2.0180724591486219     
  0.18940000000000001         -2.0039637164365454     
  0.19024999999999997         -1.9763223080560697     
  0.19109999999999999         -1.9366273786290780     
  0.19195000000000001         -1.8863347805083586     
  0.19279999999999997         -1.8268814526635051     
  0.19364999999999999         -1.7596538137084980     
  0.19450000000000001         -1.6859839574463218     
  0.19534999999999997         -1.6071320931241817     
  0.19619999999999999         -1.5242767263333674     
  0.19705000000000000         -1.4385160724455721     
  0.19789999999999996         -1.3508500181663348     
  0.19874999999999998         -1.2622007810208959     
  0.19960000000000000         -1.1733937547558395     
  0.20044999999999996         -1.0851684913354007     
  0.20129999999999998        -0.99817256008030797     
  0.20215000000000000        -0.91297955864015257     
  0.20300000000000001        -0.83008376392381322     
  0.20384999999999998        -0.74990673632689275     
  0.20469999999999999        -0.67279858879777377     
  0.20555000000000001        -0.59904418982350582     
  0.20639999999999997        -0.52887474590435568     
  0.20724999999999999        -0.46245987558859258     
  0.20810000000000001        -0.39991832845070485     
  0.20894999999999997        -0.34132825379508253     
  0.20979999999999999        -0.28671129734149420     
  0.21065000000000000        -0.23606604093996830     
  0.21149999999999997        -0.18935959451090445     
  0.21234999999999998        -0.14652116415146318     
  0.21320000000000000        -0.10747157512682809     
  0.21404999999999996         -7.2103355883276654E-002
  0.21489999999999998         -4.0296785226586140E-002
  0.21575000000000000         -1.1915094047274963E-002
  0.21659999999999996          1.3189483756326149E-002
  0.21744999999999998          3.5168037835030454E-002
  0.21829999999999999          5.4186698923083476E-002
  0.21915000000000001          7.0408469900252763E-002
  0.21999999999999997          8.4007713027602626E-002
  0.22084999999999999          9.5165468774739498E-002
  0.22170000000000001         0.10405442991164590     
  0.22254999999999997         0.11086524885694801     
  0.22339999999999999         0.11578389658777871     
  0.22425000000000000         0.11899733185557547     
  0.22509999999999997         0.12069303221004085     
  0.22594999999999998         0.12106593665403620     
  0.22680000000000000         0.12029649334295969     
  0.22764999999999996         0.11856333837896771     
  0.22849999999999998         0.11603768784120116     
  0.22935000000000000         0.11287012449705347     
  0.23019999999999996         0.10920795258855798     
  0.23104999999999998         0.10517656483627399     
  0.23190000000000000         0.10088443305658412     
  0.23275000000000001          9.6432910539068328E-002
  0.23359999999999997          9.1903040561222282E-002
  0.23444999999999999          8.7371020999791535E-002
  0.23530000000000001          8.2896224823765824E-002
  0.23614999999999997          7.8535982123496217E-002
  0.23699999999999999          7.4334341967266432E-002
  0.23785000000000001          7.0324470060974448E-002
  0.23869999999999997          6.6534289600552313E-002
  0.23954999999999999          6.2975959408095597E-002
  0.24040000000000000          5.9654630269244030E-002
  0.24124999999999996          5.6563383501168712E-002
  0.24209999999999998          5.3683884585331548E-002
  0.24295000000000000          5.0990610272995368E-002
  0.24379999999999996          4.8453327967471753E-002
  0.24464999999999998          4.6038855485721550E-002
  0.24550000000000000          4.3716787706986268E-002
  0.24634999999999996          4.1456565472028722E-002
  0.24719999999999998          3.9233436171778172E-002
  0.24804999999999999          3.7028863451871487E-002
  0.24890000000000001          3.4828491332819678E-002
  0.24974999999999997          3.2625004827574751E-002
  0.25059999999999999          3.0414564039771406E-002
  0.25145000000000001          2.8197848104766721E-002
  0.25229999999999997          2.5979539558490451E-002
  0.25314999999999999          2.3768427131495899E-002
  0.25400000000000000          2.1574951936476430E-002
  0.25484999999999997          1.9414037626800048E-002
  0.25569999999999998          1.7302832344731452E-002
  0.25655000000000000          1.5261999495678292E-002
  0.25739999999999996          1.3314275600132017E-002
  0.25824999999999998          1.1484560591072529E-002
  0.25910000000000000          9.7976535592111235E-003
  0.25994999999999996          8.2792508334775181E-003
  0.26079999999999998          6.9525724836773974E-003
  0.26164999999999999          5.8406543511791489E-003
  0.26249999999999996          4.9605896141175568E-003
  0.26334999999999997          4.3266323463348293E-003
  0.26419999999999999          3.9473850886994049E-003
  0.26505000000000001          3.8253813495659570E-003
  0.26589999999999997          3.9574758197657902E-003
  0.26674999999999999          4.3307304521929260E-003
  0.26760000000000000          4.9257341000980949E-003
  0.26844999999999997          5.7136031100700783E-003
  0.26929999999999998          6.6609457366189522E-003
  0.27015000000000000          7.7275944187326414E-003
  0.27099999999999996          8.8707109409548041E-003
  0.27184999999999998          1.0045674302833959E-002
  0.27270000000000000          1.1211519400189513E-002
  0.27354999999999996          1.2329769774801838E-002
  0.27439999999999998          1.3366218419499525E-002
  0.27524999999999999          1.4293213954756346E-002
  0.27609999999999996          1.5087733612058587E-002
  0.27694999999999997          1.5731548176932016E-002
  0.27779999999999999          1.6208482791843122E-002
  0.27865000000000001          1.6504303254114040E-002
  0.27949999999999997          1.6605992127769802E-002
  0.28034999999999999          1.6501921302621517E-002
  0.28120000000000001          1.6182880380861020E-002
  0.28204999999999997          1.5643879823880203E-002
  0.28289999999999998          1.4885681021720387E-002
  0.28375000000000000          1.3916867153904014E-002
  0.28459999999999996          1.2754152407122967E-002
  0.28544999999999998          1.1423562065556222E-002
  0.28630000000000000          9.9592550152016492E-003
  0.28714999999999996          8.4002350756537097E-003
  0.28799999999999998          6.7901655761747892E-003
  0.28885000000000000          5.1720556768827218E-003
  0.28969999999999996          3.5869827183021667E-003
  0.29054999999999997          2.0710218595770555E-003
  0.29139999999999999          6.5462964990817274E-004
  0.29224999999999995         -6.3888741202594058E-004
  0.29309999999999997         -1.7921290860844520E-003
  0.29394999999999999         -2.7929445633305466E-003
  0.29480000000000001         -3.6335567900745427E-003
  0.29564999999999997         -4.3096112852150812E-003
  0.29649999999999999         -4.8205340635497093E-003
  0.29735000000000000         -5.1670353785532742E-003
  0.29819999999999997         -5.3538469523789082E-003
  0.29904999999999998         -5.3872096677083882E-003
  0.29990000000000000         -5.2780876271462523E-003
  0.30074999999999996         -5.0395674491920438E-003
  0.30159999999999998         -4.6883208949936557E-003
  0.30245000000000000         -4.2432288420408484E-003
  0.30329999999999996         -3.7262610409788122E-003
  0.30414999999999998         -3.1591195024215524E-003
  0.30499999999999999         -2.5647516912404265E-003
  0.30584999999999996         -1.9660468073156995E-003
  0.30669999999999997         -1.3846274662467823E-003
  0.30754999999999999         -8.4063927303048560E-004
  0.30840000000000001         -3.5221940046310319E-004
  0.30924999999999997          6.5331223178329619E-005
  0.31009999999999999          4.0112055879290630E-004
  0.31095000000000000          6.4872111193635396E-004
  0.31179999999999997          8.0626228186910735E-004
  0.31264999999999998          8.7864807930420740E-004
  0.31350000000000000          8.7549100895944251E-004
  0.31434999999999996          8.1100042013466391E-004
  0.31519999999999998          7.0236477437211420E-004
  0.31605000000000000          5.6822180384087065E-004
  0.31689999999999996          4.2629321443418775E-004
  0.31774999999999998          2.9282511370036643E-004
  0.31859999999999999          1.8015107651158583E-004
  0.31944999999999996          9.7805359549006307E-005
  0.32029999999999997          5.2430476804646558E-005
  0.32114999999999999          4.8640411848617678E-005
  0.32199999999999995          9.0526938850742219E-005
  0.32284999999999997          1.8276297198182136E-004
  0.32369999999999999          3.3070556516537428E-004
  0.32455000000000001          5.4094274378230765E-004
  0.32539999999999997          8.1978002397745261E-004
  0.32624999999999998          1.1736149442927082E-003
  0.32710000000000000          1.6047138579084173E-003
  0.32794999999999996          2.1116313146891342E-003
  0.32879999999999998          2.6863722212188334E-003
  0.32965000000000000          3.3159606115560950E-003
  0.33049999999999996          3.9813465495063521E-003
  0.33134999999999998          4.6600432689826859E-003
  0.33220000000000000          5.3261993318937393E-003
  0.33304999999999996          5.9545588664151449E-003
  0.33389999999999997          6.5208551881552846E-003
  0.33474999999999999          7.0036763889701672E-003
  0.33559999999999995          7.3852893265686373E-003
  0.33644999999999997          7.6516562998633821E-003
  0.33729999999999999          7.7924691964548418E-003
  0.33815000000000001          7.8000361646905804E-003
  0.33899999999999997          7.6703545237013764E-003
  0.33984999999999999          7.4015103744050452E-003
  0.34070000000000000          6.9950542591390944E-003
  0.34154999999999996          6.4559606720441748E-003
  0.34239999999999998          5.7924090092132717E-003