 -0.12000000000000000          0.0000000000000000
 -0.11914999999999999          7.3731923724922773E-012
 -0.11830000000000000          2.0138593168117509E-011
 -0.11745000000000000          3.3684332144728767E-011
 -0.11660000000000000          4.2390845773030382E-011
 -0.11574999999999999          4.1796712361289863E-011
 -0.11490000000000000          3.0650141157711331E-011
 -0.11405000000000000          1.2189411811677246E-011
 -0.11320000000000000         -5.8198390698929520E-012
 -0.11234999999999999         -1.2434581706769046E-011
 -0.11150000000000000          3.9581381844908253E-012
 -0.11065000000000000          5.2534938077803955E-011
 -0.10979999999999999          1.3707216050808011E-010
 -0.10894999999999999          2.5386329611159621E-010
 -0.10810000000000000          3.9105840920387686E-010
 -0.10725000000000000          5.2963549418822763E-010
 -0.10639999999999999          6.4582813686361383E-010
 -0.10554999999999999          7.1450706261519146E-010
 -0.10470000000000000          7.1282085978892722E-010
 -0.10385000000000000          6.2339362687035811E-010
 -0.10299999999999999          4.3655446775911144E-010
 -0.10214999999999999          1.5138279577217175E-010
 -0.10130000000000000         -2.2429780915556637E-010
 -0.10045000000000000         -6.7456619814201597E-010
  -9.9599999999999994E-002    -1.1760837656507931E-009
  -9.8750000000000004E-002    -1.6982742952981572E-009
  -9.7900000000000001E-002    -2.2026004652751010E-009
  -9.7049999999999997E-002    -2.6408733931059439E-009
  -9.6199999999999994E-002    -2.9528461303320164E-009
  -9.5349999999999990E-002    -3.0635972778584603E-009
  -9.4500000000000001E-002    -2.8813780143735279E-009
  -9.3649999999999997E-002    -2.2964922141180135E-009
  -9.2799999999999994E-002    -1.1815516471152742E-009
  -9.1950000000000004E-002     6.0674924225314292E-010
  -9.1100000000000000E-002     3.2247977394028105E-009
  -9.0249999999999997E-002     6.8387120078629780E-009
  -8.9399999999999993E-002     1.1621428188146073E-008
  -8.8549999999999990E-002     1.7750920778920856E-008
  -8.7700000000000000E-002     2.5410541535190364E-008
  -8.6849999999999997E-002     3.4791835233356527E-008
  -8.5999999999999993E-002     4.6100086137025006E-008
  -8.5150000000000003E-002     5.9562549237760164E-008
  -8.4300000000000000E-002     7.5439243301402764E-008
  -8.3449999999999996E-002     9.4035518636079730E-008
  -8.2600000000000007E-002     1.1571659631423871E-007
  -8.1749999999999989E-002     1.4092312552939890E-007
  -8.0900000000000000E-002     1.7018806349002363E-007
  -8.0049999999999996E-002     2.0415413949300850E-007
  -7.9199999999999993E-002     2.4359235205987415E-007
  -7.8350000000000003E-002     2.8942076690410204E-007
  -7.7499999999999999E-002     3.4272412461455350E-007
  -7.6649999999999996E-002     4.0477457157898736E-007
  -7.5800000000000006E-002     4.7705209924251616E-007
  -7.4949999999999989E-002     5.6126769571310036E-007
  -7.4099999999999999E-002     6.5938683940373476E-007
  -7.3249999999999996E-002     7.7365557686702917E-007
  -7.2399999999999992E-002     9.0663006342590927E-007
  -7.1550000000000002E-002     1.0612084184137008E-006
  -7.0699999999999999E-002     1.2406689854281960E-006
  -6.9849999999999995E-002     1.4487116022273504E-006
  -6.9000000000000006E-002     1.6895042843498595E-006
  -6.8149999999999988E-002     1.9677314182384093E-006
  -6.7299999999999999E-002     2.2886507991968282E-006
  -6.6449999999999995E-002     2.6581469763763259E-006
  -6.5599999999999992E-002     3.0827945115286888E-006
  -6.4750000000000002E-002     3.5699181796520031E-006
  -6.3899999999999998E-002     4.1276556944115148E-006
  -6.3049999999999995E-002     4.7650251119836156E-006
  -6.2199999999999998E-002     5.4919972503158663E-006
  -6.1350000000000002E-002     6.3195714202686345E-006
  -6.0499999999999998E-002     7.2598485077368283E-006
  -5.9650000000000002E-002     8.3261262924403774E-006
  -5.8799999999999998E-002     9.5329701538833110E-006
  -5.7950000000000002E-002     1.0896312451628154E-005
  -5.7099999999999998E-002     1.2433532648649137E-005
  -5.6249999999999994E-002     1.4163532756565104E-005
  -5.5400000000000005E-002     1.6106813791770260E-005
  -5.4550000000000001E-002     1.8285516696508034E-005
  -5.3699999999999998E-002     2.0723495157801939E-005
  -5.2849999999999994E-002     2.3446317756722578E-005
  -5.2000000000000005E-002     2.6481301310527160E-005
  -5.1150000000000001E-002     2.9857497614865426E-005
  -5.0299999999999997E-002     3.3605670122044756E-005
  -4.9449999999999994E-002     3.7758298072378283E-005
  -4.8600000000000004E-002     4.2349464793769754E-005
  -4.7750000000000001E-002     4.7414847141515049E-005
  -4.6899999999999997E-002     5.2991579489601779E-005
  -4.6049999999999994E-002     5.9118137170721347E-005
  -4.5200000000000004E-002     6.5834174703272851E-005
  -4.4350000000000001E-002     7.3180353283419324E-005
  -4.3499999999999997E-002     8.1198060374539899E-005
  -4.2649999999999993E-002     8.9929106726260844E-005
  -4.1800000000000004E-002     9.9415414610502068E-005
  -4.0950000000000000E-002     1.0969856560239321E-004
  -4.0099999999999997E-002     1.2081933504217019E-004
  -3.9249999999999993E-002     1.3281727982117990E-004
  -3.8400000000000004E-002     1.4573004790136297E-004
  -3.7550000000000000E-002     1.5959283643566472E-004
  -3.6699999999999997E-002     1.7443764563576211E-004
  -3.5850000000000007E-002     1.9029273827953324E-004
  -3.5000000000000003E-002     2.0718169830358292E-004
  -3.4150000000000000E-002     2.2512274327652905E-004
  -3.3299999999999996E-002     2.4412791721362158E-004
  -3.2450000000000007E-002     2.6420214312192989E-004
  -3.1600000000000003E-002     2.8534231706249036E-004
  -3.0750000000000000E-002     3.0753649762170010E-004
  -2.9899999999999996E-002     3.3076300052554730E-004
  -2.9050000000000006E-002     3.5498914305962816E-004
  -2.8200000000000003E-002     3.8017070958632090E-004
  -2.7349999999999999E-002     4.0625075292598960E-004
  -2.6499999999999996E-002     4.3315875062029856E-004
  -2.5650000000000006E-002     4.6080983339157890E-004
  -2.4800000000000003E-002     4.8910394633848615E-004
  -2.3949999999999999E-002     5.1792523915964220E-004
  -2.3099999999999996E-002     5.4714168595208377E-004
  -2.2250000000000006E-002     5.7660404059017259E-004
  -2.1400000000000002E-002     6.0614621681217532E-004
  -2.0549999999999999E-002     6.3558457803648306E-004
  -1.9699999999999995E-002     6.6471837117362776E-004
  -1.8850000000000006E-002     6.9333009720451389E-004
  -1.8000000000000002E-002     7.2118496755355587E-004
  -1.7149999999999999E-002     7.4803287900623383E-004
  -1.6299999999999995E-002     7.7360849473059293E-004
  -1.5450000000000005E-002     7.9763213890108253E-004
  -1.4600000000000002E-002     8.1981188603579924E-004
  -1.3749999999999998E-002     8.3984435530853668E-004
  -1.2899999999999995E-002     8.5741765054722576E-004
  -1.2050000000000005E-002     8.7221216910098292E-004
  -1.1200000000000002E-002     8.8390391797208323E-004
  -1.0349999999999998E-002     8.9216725057149598E-004
  -9.5000000000000084E-003     8.9667734083701911E-004
  -8.6500000000000049E-003     8.9711345075635797E-004
  -7.8000000000000014E-003     8.9316248016175516E-004
  -6.9499999999999978E-003     8.8452216494212972E-004
  -6.1000000000000082E-003     8.7090532217945352E-004
  -5.2500000000000047E-003     8.5204261537439869E-004
  -4.4000000000000011E-003     8.2768773077532493E-004
  -3.5499999999999976E-003     7.9762029170380626E-004
  -2.7000000000000079E-003     7.6164973142941583E-004
  -1.8500000000000044E-003     7.1961973527844350E-004
  -1.0000000000000009E-003     6.7141178330073820E-004
  -1.4999999999999736E-004     6.1694732327883855E-004
   6.9999999999999230E-004     5.5619318531164794E-004
   1.5499999999999958E-003     4.8916318595255786E-004
   2.3999999999999994E-003     4.1592157371559649E-004
   3.2500000000000029E-003     3.3658490513433935E-004
   4.0999999999999925E-003     2.5132417721162020E-004
   4.9499999999999961E-003     1.6036671537863676E-004
   5.7999999999999996E-003     6.3996123562918986E-005
   6.6499999999999893E-003    -3.7446076607746521E-005
   7.5000000000000067E-003    -1.4356189872824466E-004
   8.3499999999999963E-003    -2.5389670945478109E-004
   9.1999999999999860E-003    -3.6794147287486789E-004
   1.0050000000000003E-002    -4.8513452227548037E-004
   1.0899999999999993E-002    -6.0486440867012269E-004
   1.1750000000000010E-002    -7.2647331870605357E-004
   1.2600000000000000E-002    -8.4926186217005629E-004
   1.3449999999999990E-002    -9.7249295863075218E-004
   1.4300000000000007E-002    -1.0953975394841411E-003
   1.5149999999999997E-002    -1.2171808840302565E-003
   1.5999999999999986E-002    -1.3370280905561555E-003
   1.6850000000000004E-002    -1.4541118129904236E-003
   1.7699999999999994E-002    -1.5675989174330188E-003
   1.8549999999999983E-002    -1.6766580775047712E-003
   1.9400000000000001E-002    -1.7804678066056249E-003
   2.0249999999999990E-002    -1.8782241494125808E-003
   2.1100000000000008E-002    -1.9691486521112560E-003
   2.1949999999999997E-002    -2.0524962705799274E-003
   2.2799999999999987E-002    -2.1275629253293743E-003
   2.3650000000000004E-002    -2.1936936831524890E-003
   2.4499999999999994E-002    -2.2502885816883611E-003
   2.5349999999999984E-002    -2.2968112800347920E-003
   2.6200000000000001E-002    -2.3327933150089483E-003
   2.7049999999999991E-002    -2.3578410910502067E-003
   2.7900000000000008E-002    -2.3716403890695200E-003
   2.8749999999999998E-002    -2.3739600774884142E-003
   2.9599999999999987E-002    -2.3646556755027321E-003
   3.0450000000000005E-002    -2.3436715982622361E-003
   3.1299999999999994E-002    -2.3110435655408442E-003
   3.2149999999999984E-002    -2.2668976845230215E-003
   3.3000000000000002E-002    -2.2114511437294438E-003
   3.3849999999999991E-002    -2.1450106229255472E-003
   3.4700000000000009E-002    -2.0679699194460317E-003
   3.5549999999999998E-002    -1.9808062801387385E-003
   3.6399999999999988E-002    -1.8840767843170813E-003
   3.7250000000000005E-002    -1.7784129560139100E-003
   3.8099999999999995E-002    -1.6645146163628876E-003
   3.8949999999999985E-002    -1.5431446029922531E-003
   3.9800000000000002E-002    -1.4151200656753638E-003
   4.0649999999999992E-002    -1.2813051597340209E-003
   4.1500000000000009E-002    -1.1426029671744750E-003
   4.2349999999999999E-002    -9.9994694587255783E-004
   4.3199999999999988E-002    -8.5429145679404169E-004
   4.4050000000000006E-002    -7.0660313307767386E-004
   4.4899999999999995E-002    -5.5785204052740908E-004
   4.5749999999999985E-002    -4.0900219583635917E-004
   4.6600000000000003E-002    -2.6100299372371777E-004
   4.7449999999999992E-002    -1.1478017412304821E-004
   4.8299999999999982E-002     2.8771298806924136E-005
   4.9149999999999999E-002     1.6879575616602429E-004
   4.9999999999999989E-002     3.0448377789689895E-004
   5.0850000000000006E-002     4.3507860166021209E-004
   5.1699999999999996E-002     5.5988217263198677E-004
   5.2549999999999986E-002     6.7825984146014707E-004
   5.3400000000000003E-002     7.8964416416703570E-004
   5.4249999999999993E-002     8.9353912529421917E-004
   5.5099999999999982E-002     9.8952299329927969E-004
   5.5950000000000000E-002     1.0772487735587390E-003
   5.6799999999999989E-002     1.1564452548869790E-003
   5.7650000000000007E-002     1.2269177233283977E-003
   5.8499999999999996E-002     1.2885470240855700E-003
   5.9349999999999986E-002     1.3412872122221967E-003
   6.0200000000000004E-002     1.3851637827902732E-003
   6.1049999999999993E-002     1.4202696012312270E-003
   6.1899999999999983E-002     1.4467628204813958E-003
   6.2750000000000000E-002     1.4648621268953698E-003
   6.3599999999999990E-002     1.4748413560603860E-003
   6.4450000000000007E-002     1.4770250664772910E-003
   6.5299999999999997E-002     1.4717830035426050E-003
   6.6149999999999987E-002     1.4595251476105736E-003
   6.7000000000000004E-002     1.4406945723871075E-003
   6.7849999999999994E-002     1.4157628374872621E-003
   6.8699999999999983E-002     1.3852234382478125E-003
   6.9550000000000001E-002     1.3495862436696316E-003
   7.0399999999999990E-002     1.3093716853915301E-003
   7.1249999999999980E-002     1.2651056193669259E-003
   7.2099999999999997E-002     1.2173137383768996E-003
   7.2949999999999987E-002     1.1665168146124958E-003
   7.3800000000000004E-002     1.1132265676026501E-003
   7.4649999999999994E-002     1.0579411041924214E-003
   7.5499999999999984E-002     1.0011413113251780E-003
   7.6350000000000001E-002     9.4328784686177418E-004
   7.7199999999999991E-002     8.8481792610636454E-004
   7.8049999999999981E-002     8.2614312045632817E-004
   7.8899999999999998E-002     7.6764739468379204E-004
   7.9749999999999988E-002     7.0968543961043382E-004
   8.0600000000000005E-002     6.5258191791335671E-004
   8.1449999999999995E-002     5.9663033524708000E-004
   8.2299999999999984E-002     5.4209300065943724E-004
   8.3150000000000002E-002     4.8920111230108898E-004
   8.3999999999999991E-002     4.3815480253114593E-004
   8.4849999999999981E-002     3.8912434021625509E-004
   8.5699999999999998E-002     3.4225075557786638E-004
   8.6549999999999988E-002     2.9764714698143630E-004
   8.7400000000000005E-002     2.5539994677305195E-004
   8.8249999999999995E-002     2.1557075348979174E-004
   8.9099999999999985E-002     1.7819762426052657E-004
   8.9950000000000002E-002     1.4329699538015537E-004
   9.0799999999999992E-002     1.1086561562854026E-004
   9.1649999999999981E-002     8.0882347777392621E-005
   9.2499999999999999E-002     5.3309519661233892E-005
   9.3349999999999989E-002     2.8095365755057254E-005
   9.4200000000000006E-002     5.1756742687867095E-006
   9.5049999999999996E-002    -1.5524750868938270E-005
   9.5899999999999985E-002    -3.4090182308812653E-005
   9.6750000000000003E-002    -5.0612706480663707E-005
   9.7599999999999992E-002    -6.5190300672642726E-005
   9.8449999999999982E-002    -7.7925514328177430E-005
   9.9299999999999999E-002    -8.8924463873974014E-005
  0.10014999999999999         -9.8295301075238884E-005
  0.10099999999999998         -1.0614707964842258E-004
  0.10185000000000000         -1.1258925475108401E-004
  0.10269999999999999         -1.1772994521582316E-004
  0.10355000000000000         -1.2167595825955720E-004
  0.10439999999999999         -1.2453170754899063E-004
  0.10524999999999998         -1.2639872155730791E-004
  0.10610000000000000         -1.2737483962005415E-004
  0.10694999999999999         -1.2755430428234383E-004
  0.10779999999999998         -1.2702715308047919E-004
  0.10865000000000000         -1.2587901231035797E-004
  0.10949999999999999         -1.2419046903329104E-004
  0.11035000000000000         -1.2203758400494314E-004
  0.11119999999999999         -1.1949106490560959E-004
  0.11204999999999998         -1.1661671701378680E-004
  0.11290000000000000         -1.1347511096200160E-004
  0.11374999999999999         -1.1012149249497258E-004
  0.11459999999999998         -1.0660619390498329E-004
  0.11545000000000000         -1.0297445773212227E-004
  0.11629999999999999         -9.9266607045073545E-005
  0.11715000000000000         -9.5518427393028021E-005
  0.11799999999999999         -9.1761125019836786E-005
  0.11884999999999998         -8.8021738879849804E-005
  0.11970000000000000         -8.4323318066615511E-005
  0.12054999999999999         -8.0685130522114713E-005
  0.12139999999999998         -7.7123173883046186E-005
  0.12225000000000000         -7.3650099531747849E-005
  0.12309999999999999         -7.0275661843740797E-005
  0.12395000000000000         -6.7007234892933843E-005
  0.12479999999999999         -6.3849580926296940E-005
  0.12564999999999998         -6.0805624242703486E-005
  0.12650000000000000         -5.7876523711934652E-005
  0.12734999999999999         -5.5061927743841372E-005
  0.12819999999999998         -5.2360405584656118E-005
  0.12905000000000000         -4.9769628745145843E-005
  0.12989999999999999         -4.7286695612142656E-005
  0.13074999999999998         -4.4908269534572752E-005
  0.13159999999999999         -4.2630825619805307E-005
  0.13245000000000001         -4.0450805974291444E-005
  0.13329999999999997         -3.8364801211448668E-005
  0.13414999999999999         -3.6369571940765720E-005
  0.13500000000000001         -3.4462140779586742E-005
  0.13584999999999997         -3.2639880867329833E-005
  0.13669999999999999         -3.0900521389361785E-005
  0.13755000000000001         -2.9242163575062155E-005
  0.13839999999999997         -2.7663206954930314E-005
  0.13924999999999998         -2.6162387796668819E-005
  0.14010000000000000         -2.4738671952940216E-005
  0.14094999999999996         -2.3391298556074408E-005
  0.14179999999999998         -2.2119592194730265E-005
  0.14265000000000000         -2.0922985236999129E-005
  0.14350000000000002         -1.9800919971824130E-005
  0.14434999999999998         -1.8752747471449563E-005
  0.14520000000000000         -1.7777694895984843E-005
  0.14605000000000001         -1.6874758030136394E-005
  0.14689999999999998         -1.6042597433881897E-005
  0.14774999999999999         -1.5279547551419597E-005
  0.14860000000000001         -1.4583522386399932E-005
  0.14944999999999997         -1.3951982387012080E-005
  0.15029999999999999         -1.3381928295378188E-005
  0.15115000000000001         -1.2869902015762474E-005
  0.15199999999999997         -1.2412032945605854E-005
  0.15284999999999999         -1.2004035295641053E-005
  0.15370000000000000         -1.1641337353902796E-005
  0.15454999999999997         -1.1319115255488606E-005
  0.15539999999999998         -1.1032375154995345E-005
  0.15625000000000000         -1.0776092966310568E-005
  0.15709999999999996         -1.0545265875713874E-005
  0.15794999999999998         -1.0334984541552810E-005
  0.15880000000000000         -1.0140554328535525E-005
  0.15965000000000001         -9.9575457890790315E-006
  0.16049999999999998         -9.7818200498354509E-006
  0.16134999999999999         -9.6096396425708188E-006
  0.16220000000000001         -9.4376703386034780E-006
  0.16304999999999997         -9.2630819300978541E-006
  0.16389999999999999         -9.0835252524508621E-006
  0.16475000000000001         -8.8972190634747996E-006
  0.16559999999999997         -8.7029175379739563E-006
  0.16644999999999999         -8.4999576487611273E-006
  0.16730000000000000         -8.2882147869416802E-006
  0.16814999999999997         -8.0680865808954086E-006
  0.16899999999999998         -7.8404349167582397E-006
  0.16985000000000000         -7.6065088712787971E-006
  0.17069999999999996         -7.3678933219948902E-006
  0.17154999999999998         -7.1263645801009061E-006
  0.17240000000000000         -6.8838559320113859E-006
  0.17325000000000002         -6.6423049030550500E-006
  0.17409999999999998         -6.4036406155273174E-006
  0.17494999999999999         -6.1696729562447622E-006
  0.17580000000000001         -5.9420363210838012E-006
  0.17664999999999997         -5.7221290183669794E-006
  0.17749999999999999         -5.5111032292298477E-006
  0.17835000000000001         -5.3097989294120623E-006
  0.17919999999999997         -5.1187379025051191E-006
  0.18004999999999999         -4.9381209627514815E-006
  0.18090000000000001         -4.7678185517618930E-006
  0.18174999999999997         -4.6073817430236852E-006
  0.18259999999999998         -4.4560643485849019E-006
  0.18345000000000000         -4.3128423107060028E-006
  0.18429999999999996         -4.1764601571545750E-006
  0.18514999999999998         -4.0454869026013034E-006
  0.18600000000000000         -3.9183740459537331E-006
  0.18684999999999996         -3.7934920954175838E-006
  0.18769999999999998         -3.6692200726722544E-006
  0.18855000000000000         -3.5440224790394673E-006
  0.18940000000000001         -3.4164682076993089E-006
  0.19024999999999997         -3.2853336053665738E-006
  0.19109999999999999         -3.1496214730163665E-006
  0.19195000000000001         -3.0086126541064024E-006
  0.19279999999999997         -2.8619250725875482E-006
  0.19364999999999999         -2.7095108621579495E-006
  0.19450000000000001         -2.5516950563523550E-006
  0.19534999999999997         -2.3891473658803759E-006
  0.19619999999999999         -2.2229166591429223E-006
  0.19705000000000000         -2.0543662269884687E-006
  0.19789999999999996         -1.8851639826932026E-006
  0.19874999999999998         -1.7172096297345247E-006
  0.19960000000000000         -1.5525876562948863E-006
  0.20044999999999996         -1.3935165667072908E-006
  0.20129999999999998         -1.2422693555925473E-006
  0.20215000000000000         -1.1011102000494600E-006
  0.20300000000000001         -9.7223578591474231E-007
  0.20384999999999998         -8.5769483444495642E-007
  0.20469999999999999         -7.5933692890777431E-007
  0.20555000000000001         -6.7876020257386780E-007
  0.20639999999999997         -6.1726916937328231E-007
  0.20724999999999999         -5.7580212069991955E-007
  0.20810000000000001         -5.5492782355038252E-007
  0.20894999999999997         -5.5479845169469022E-007
  0.20979999999999999         -5.7513137679577454E-007
  0.21065000000000000         -6.1521637233051601E-007
  0.21149999999999997         -6.7393467820719763E-007
  0.21234999999999998         -7.4975878084209705E-007
  0.21320000000000000         -8.4081860046267564E-007
  0.21404999999999996         -9.4491913195790849E-007
  0.21489999999999998         -1.0596131948795776E-006
  0.21575000000000000         -1.1822602529042160E-006
  0.21659999999999996         -1.3100867043077603E-006
  0.21744999999999998         -1.4402555771245021E-006
  0.21829999999999999         -1.5699200351050081E-006
  0.21915000000000001         -1.6963001635617629E-006
  0.21999999999999997         -1.8167433369726680E-006
  0.22084999999999999         -1.9287782039221642E-006
  0.22170000000000001         -2.0301752925643770E-006
  0.22254999999999997         -2.1190069363768489E-006
  0.22339999999999999         -2.1936837947289694E-006
  0.22425000000000000         -2.2529954469110598E-006
  0.22509999999999997         -2.2961296808613758E-006
  0.22594999999999998         -2.3226809602591622E-006
  0.22680000000000000         -2.3326390101102720E-006
  0.22764999999999996         -2.3263641142807541E-006
  0.22849999999999998         -2.3045723623584913E-006
  0.22935000000000000         -2.2682766178558520E-006
  0.23019999999999996         -2.2187421616752525E-006
  0.23104999999999998         -2.1574429018504858E-006
  0.23190000000000000         -2.0860111559507851E-006
  0.23275000000000001         -2.0061868052448152E-006
  0.23359999999999997         -1.9197727175710131E-006
  0.23444999999999999         -1.8285935658376989E-006
  0.23530000000000001         -1.7344423925426219E-006
  0.23614999999999997         -1.6390391638594862E-006
  0.23699999999999999         -1.5439833878040775E-006
  0.23785000000000001         -1.4507060079556645E-006
  0.23869999999999997         -1.3604315338751352E-006
  0.23954999999999999         -1.2741347167394205E-006
  0.24040000000000000         -1.1925155225556614E-006
  0.24124999999999996         -1.1159857413911939E-006
  0.24209999999999998         -1.0446767387517530E-006
  0.24295000000000000         -9.7844307243472801E-007
  0.24379999999999996         -9.1688398964091109E-007
  0.24464999999999998         -8.5938986443732719E-007
  0.24550000000000000         -8.0518327179449289E-007
  0.24634999999999996         -7.5336162864680610E-007
  0.24719999999999998         -7.0296516492886325E-007
  0.24804999999999999         -6.5300272307794266E-007
  0.24890000000000001         -6.0252280011579540E-007
  0.24974999999999997         -5.5063564356211169E-007
  0.25059999999999999         -4.9656620724065959E-007
  0.25145000000000001         -4.3967893687125818E-007
  0.25229999999999997         -3.7951817109221138E-007
  0.25314999999999999         -3.1581974868645945E-007
  0.25400000000000000         -2.4853987299373687E-007
  0.25484999999999997         -1.7785664294026097E-007
  0.25569999999999998         -1.0418282611925843E-007
  0.25655000000000000         -2.8164609971120838E-008
  0.25739999999999996          4.9334392779339321E-008
  0.25824999999999998          1.2723890271922513E-007
  0.25910000000000000          2.0429941286007189E-007
  0.25994999999999996          2.7910767781455697E-007
  0.26079999999999998          3.5014924334678948E-007
  0.26164999999999999          4.1582743762992475E-007
  0.26249999999999996          4.7452587895803151E-007
  0.26334999999999997          5.2465629481070317E-007
  0.26419999999999999          5.6470396913488245E-007
  0.26505000000000001          5.9329537511065993E-007
  0.26589999999999997          6.0923850163333144E-007
  0.26674999999999999          6.1157438934612281E-007
  0.26760000000000000          5.9961440387205726E-007
  0.26844999999999997          5.7296697653442338E-007
  0.26929999999999998          5.3155893890029294E-007
  0.27015000000000000          4.7563611351441457E-007
  0.27099999999999996          4.0575503272878803E-007
  0.27184999999999998          3.2277020121025667E-007
  0.27270000000000000          2.2781187239975126E-007
  0.27354999999999996          1.2225493609855002E-007
  0.27439999999999998          7.6940092217431560E-009
  0.27524999999999999         -1.1408657246041629E-007
  0.27609999999999996         -2.4114793162410274E-007
  0.27694999999999997         -3.7143044782332843E-007
  0.27779999999999999         -5.0277986610509010E-007
  0.27865000000000001         -6.3299369392456442E-007
  0.27949999999999997         -7.5986937804285183E-007
  0.28034999999999999         -8.8125155969696674E-007
  0.28120000000000001         -9.9508360732047507E-007
  0.28204999999999997         -1.0994672035446108E-006
  0.28289999999999998         -1.1927181706203452E-006
  0.28375000000000000         -1.2734054937214337E-006
  0.28459999999999996         -1.3403959507848030E-006
  0.28544999999999998         -1.3928744414545363E-006
  0.28630000000000000         -1.4303556334348229E-006
  0.28714999999999996         -1.4526832992427765E-006
  0.28799999999999998         -1.4600141198693195E-006
  0.28885000000000000         -1.4527921697880606E-006
  0.28969999999999996         -1.4317254526260342E-006
  0.29054999999999997         -1.3977445275346701E-006
  0.29139999999999999         -1.3519776352313558E-006
  0.29224999999999995         -1.2957110169546323E-006
  0.29309999999999997         -1.2303603998004207E-006
  0.29394999999999999         -1.1574301922816215E-006
  0.29480000000000001         -1.0784837766118533E-006
  0.29564999999999997         -9.9510691666387891E-007
  0.29649999999999999         -9.0886618074773382E-007
  0.29735000000000000         -8.2127212319943991E-007
  0.29819999999999997         -7.3374450393481873E-007
  0.29904999999999998         -6.4757064885922555E-007
  0.29990000000000000         -5.6387304223317340E-007
  0.30074999999999996         -4.8358530711254259E-007
  0.30159999999999998         -4.0743025761833614E-007
  0.30245000000000000         -3.3591397064078455E-007
  0.30329999999999996         -2.6931884807791828E-007
  0.30414999999999998         -2.0771314036715157E-007
  0.30499999999999999         -1.5096744141245760E-007
  0.30584999999999996         -9.8771799233342904E-008
  0.30669999999999997         -5.0673486097506716E-008
  0.30754999999999999         -6.1067860315407087E-009
  0.30840000000000001          3.5574016192859426E-008
  0.30924999999999997          7.5052030867165497E-008
  0.31009999999999999          1.1301065481583989E-007
  0.31095000000000000          1.5009705497853101E-007
  0.31179999999999997          1.8689104508111868E-007
  0.31264999999999998          2.2387432448018766E-007
  0.31350000000000000          2.6140998261244431E-007
  0.31434999999999996          2.9972624155853169E-007
  0.31519999999999998          3.3890351094942734E-007
  0.31605000000000000          3.7887001514311734E-007
  0.31689999999999996          4.1939758748147824E-007
  0.31774999999999998          4.6010598478814902E-007
  0.31859999999999999          5.0046378832903021E-007
  0.31944999999999996          5.3979842509742595E-007
  0.32029999999999997          5.7730732989804749E-007
  0.32114999999999999          6.1207207589492489E-007
  0.32199999999999995          6.4308666099071624E-007
  0.32284999999999997          6.6927657714406542E-007
  0.32369999999999999          6.8954371194526546E-007
  0.32455000000000001          7.0279920619758425E-007
  0.32539999999999997          7.0801100907146232E-007
  0.32624999999999998          7.0424469693048528E-007
  0.32710000000000000          6.9070767146782539E-007
  0.32794999999999996          6.6678508402681813E-007
  0.32879999999999998          6.3207062572757770E-007
  0.32965000000000000          5.8638603732475441E-007
  0.33049999999999996          5.2979142082017289E-007
  0.33134999999999998          4.6259129702914101E-007
  0.33220000000000000          3.8532813244121303E-007
  0.33304999999999996          2.9877423421117455E-007
  0.33389999999999997          2.0391511372430449E-007
  0.33474999999999999          1.0193316852088159E-007
  0.33559999999999995         -5.8098460117703410E-009
  0.33644999999999997         -1.1779993253693407E-007
  0.33729999999999999         -2.3239386085313892E-007
  0.33815000000000001         -3.4785036905870134E-007
  0.33899999999999997         -4.6236578859769567E-007
  0.33984999999999999         -5.7411138848621221E-007
  0.34070000000000000         -6.8127869729580917E-007
  0.34154999999999996         -7.8211873146625148E-007
  0.34239999999999998         -8.7499000883741823E-007