 -0.12000000000000000          0.0000000000000000     
 -0.11914999999999999          0.0000000000000000     
 -0.11830000000000000          0.0000000000000000     
 -0.11745000000000000          0.0000000000000000     
 -0.11660000000000000          0.0000000000000000     
 -0.11574999999999999          0.0000000000000000     
 -0.11490000000000000          0.0000000000000000     
 -0.11405000000000000          0.0000000000000000     
 -0.11320000000000000          9.2559775452526366E-034
 -0.11234999999999999          1.2090939853374524E-032
 -0.11150000000000000          7.9547700959302626E-032
 -0.11065000000000000          3.4611468184378989E-031
 -0.10979999999999999          1.0942907065928432E-030
 -0.10894999999999999          2.5670553732657204E-030
 -0.10810000000000000          4.1777872433605714E-030
 -0.10725000000000000          2.8293520607703901E-030
 -0.10639999999999999         -8.9692827243497341E-030
 -0.10554999999999999         -4.2282858605718726E-029
 -0.10470000000000000         -1.0260375976294521E-028
 -0.10385000000000000         -1.6651546004690704E-028
 -0.10299999999999999         -1.4570855833883384E-028
 -0.10214999999999999          1.4043437754901280E-028
 -0.10130000000000000          9.3281699890469793E-028
 -0.10045000000000000          2.3678570243141490E-027
  -9.9599999999999994E-002     4.1270645964696773E-027
  -9.8750000000000004E-002     4.9553795608278823E-027
  -9.7900000000000001E-002     2.3180791106697986E-027
  -9.7049999999999997E-002    -7.2612951343569952E-027
  -9.6199999999999994E-002    -2.6478061717659727E-026
  -9.5349999999999990E-002    -5.3668881204306809E-026
  -9.4500000000000001E-002    -7.7842825068306245E-026
  -9.3649999999999997E-002    -7.4517330164067147E-026
  -9.2799999999999994E-002    -6.6858764895051722E-027
  -9.1950000000000004E-002     1.6337377476231881E-025
  -9.1100000000000000E-002     4.4695462380942051E-025
  -9.0249999999999997E-002     7.8770572722241734E-025
  -8.9399999999999993E-002     1.0187767081776986E-024
  -8.8549999999999990E-002     8.4541996029394377E-025
  -8.7700000000000000E-002    -1.0769541642698919E-025
  -8.6849999999999997E-002    -2.1457004752619561E-024
  -8.5999999999999993E-002    -5.2354846381818763E-024
  -8.5150000000000003E-002    -8.6638659324159560E-024
  -8.4300000000000000E-002    -1.0750975948653927E-023
  -8.3449999999999996E-002    -8.8378442140526122E-024
  -8.2600000000000007E-002     1.8463858683782404E-025
  -8.1749999999999989E-002     1.8594117839318379E-023
  -8.0900000000000000E-002     4.5808253408104943E-023
  -8.0049999999999996E-002     7.6012145890710973E-023
  -7.9199999999999993E-002     9.6363344264935438E-023
  -7.8350000000000003E-002     8.7172880535567469E-023
  -7.7499999999999999E-002     2.5629717885803201E-023
  -7.6649999999999996E-002    -1.0581729315591986E-022
  -7.5800000000000006E-002    -3.0663002877959452E-022
  -7.4949999999999989E-002    -5.4333489761959295E-022
  -7.4099999999999999E-002    -7.3784499775117088E-022
  -7.3249999999999996E-002    -7.6658124455676260E-022
  -7.2399999999999992E-002    -4.7888452065840814E-022
  -7.1550000000000002E-002     2.5895483891761867E-022
  -7.0699999999999999E-002     1.4940195420753280E-021
  -6.9849999999999995E-002     3.1019605642939757E-021
  -6.9000000000000006E-002     4.7108863638898416E-021
  -6.8149999999999988E-002     5.6702922964175108E-021
  -6.7299999999999999E-002     5.1078046318931126E-021
  -6.6449999999999995E-002     2.1106485647877304E-021
  -6.5599999999999992E-002    -3.9545761963602868E-021
  -6.4750000000000002E-002    -1.3012857919786742E-020
  -6.3899999999999998E-002    -2.3829246377459956E-020
  -6.3049999999999995E-002    -3.3682789324942200E-020
  -6.2199999999999998E-002    -3.8359006864653041E-020
  -6.1350000000000002E-002    -3.2658868470526379E-020
  -6.0499999999999998E-002    -1.1562898352288189E-020
  -5.9650000000000002E-002     2.7949669902478998E-020
  -5.8799999999999998E-002     8.4642144592018441E-020
  -5.7950000000000002E-002     1.5080171575282899E-019
  -5.7099999999999998E-002     2.1079545497273680E-019
  -5.6249999999999994E-002     2.4129804128605625E-019
  -5.5400000000000005E-002     2.1406101363001581E-019
  -5.4550000000000001E-002     1.0178920863572248E-019
  -5.3699999999999998E-002    -1.1294092329006472E-019
  -5.2849999999999994E-002    -4.2672085333119178E-019
  -5.2000000000000005E-002    -8.0442900083640194E-019
  -5.1150000000000001E-002    -1.1716302630363604E-018
  -5.0299999999999997E-002    -1.4141743626153600E-018
  -4.9449999999999994E-002    -1.3888912698288736E-018
  -4.8600000000000004E-002    -9.4818340282767964E-019
  -4.7750000000000001E-002     2.1094378758538644E-020
  -4.6899999999999997E-002     1.5477433009596140E-018
  -4.6049999999999994E-002     3.5231847546525791E-018
  -4.5200000000000004E-002     5.6578407909039099E-018
  -4.4350000000000001E-002     7.4631748990203040E-018
  -4.3499999999999997E-002     8.2768416924015026E-018
  -4.2649999999999993E-002     7.3457234717632595E-018
  -4.1800000000000004E-002     3.9739510743001754E-018
  -4.0950000000000000E-002    -2.2700096838779413E-018
  -4.0099999999999997E-002    -1.1310724383080670E-017
  -3.9249999999999993E-002    -2.2330844405785056E-017
  -3.8400000000000004E-002    -3.3605346070803705E-017
  -3.7550000000000000E-002    -4.2477865354468575E-017
  -3.6699999999999997E-002    -4.5551013853464344E-017
  -3.5850000000000007E-002    -3.9144120632296351E-017
  -3.5000000000000003E-002    -2.0032260301470531E-017
  -3.4150000000000000E-002     1.3579030609757302E-017
  -3.3299999999999996E-002     6.0963820307980183E-017
  -3.2450000000000007E-002     1.1786985456290589E-016
  -3.1600000000000003E-002     1.7586229808253241E-016
  -3.0750000000000000E-002     2.2231667331107527E-016
  -2.9899999999999996E-002     2.4134172137655693E-016
  -2.9050000000000006E-002     2.1582371312351546E-016
  -2.8200000000000003E-002     1.3061795113779175E-016
  -2.7349999999999999E-002    -2.3325604795717890E-017
  -2.6499999999999996E-002    -2.4439831314637970E-016
  -2.5650000000000006E-002    -5.1611612944710879E-016
  -2.4800000000000003E-002    -8.0426736168953696E-016
  -2.3949999999999999E-002    -1.0565506433354255E-015
  -2.3099999999999996E-002    -1.2057460063554573E-015
  -2.2250000000000006E-002    -1.1771369507461139E-015
  -2.1400000000000002E-002    -9.0031968998859747E-016
  -2.0549999999999999E-002    -3.2471974963810486E-016
  -1.9699999999999995E-002     5.6282976252168200E-016
  -1.8850000000000006E-002     1.7210589651148824E-015
  -1.8000000000000002E-002     3.0412049370893869E-015
  -1.7149999999999999E-002     4.3417603443503018E-015
  -1.6299999999999995E-002     5.3747118532124773E-015
  -1.5450000000000005E-002     5.8460663518737322E-015
  -1.4600000000000002E-002     5.4518108116876373E-015
  -1.3749999999999998E-002     3.9280543159417039E-015
  -1.2899999999999995E-002     1.1112501345208869E-015
  -1.2050000000000005E-002    -2.9986519563114785E-015
  -1.1200000000000002E-002    -8.1819313875781881E-015
  -1.0349999999999998E-002    -1.3961292884792771E-014
  -9.5000000000000084E-003    -1.9594484654826188E-014
  -8.6500000000000049E-003    -2.4107765585328079E-014
  -7.8000000000000014E-003    -2.6376983777011890E-014
  -6.9499999999999978E-003    -2.5257399743451098E-014
  -6.1000000000000082E-003    -1.9755919319682100E-014
  -5.2500000000000047E-003    -9.2312250551914124E-015
  -4.4000000000000011E-003     6.4009545928171295E-015
  -3.5499999999999976E-003     2.6486798113014515E-014
  -2.7000000000000079E-003     4.9510936459680272E-014
  -1.8500000000000044E-003     7.3063790126866181E-014
  -1.0000000000000009E-003     9.3928025863231284E-014
  -1.4999999999999736E-004     1.0830225021876801E-013
   6.9999999999999230E-004     1.1216505214048754E-013
   1.5499999999999958E-003     1.0176387350725088E-013
   2.3999999999999994E-003     7.4192556394534435E-014
   3.2500000000000029E-003     2.8001680366916330E-014
   4.0999999999999925E-003    -3.6230580577844611E-014
   4.9499999999999961E-003    -1.1544944573074503E-013
   5.7999999999999996E-003    -2.0387999966595033E-013
   6.6499999999999893E-003    -2.9306350742668247E-013
   7.5000000000000067E-003    -3.7222826324514325E-013
   8.3499999999999963E-003    -4.2901921480834572E-013
   9.1999999999999860E-003    -4.5057299550263262E-013
   1.0050000000000003E-002    -4.2488205924115485E-013
   1.0899999999999993E-002    -3.4235082917050098E-013
   1.1750000000000010E-002    -1.9740697280998554E-013
   1.2600000000000000E-002     9.9934659478124061E-015
   1.3449999999999990E-002     2.7314597728029441E-013
   1.4300000000000007E-002     5.7783572097370043E-013
   1.5149999999999997E-002     9.0218908168794820E-013
   1.5999999999999986E-002     1.2172556170228397E-012
   1.6850000000000004E-002     1.4883852273716197E-012
   1.7699999999999994E-002     1.6774038638765533E-012
   1.8549999999999983E-002     1.7455188859768751E-012
   1.9400000000000001E-002     1.6568174954683455E-012
   2.0249999999999990E-002     1.3821529603357799E-012
   2.1100000000000008E-002     9.0315638796985141E-013
   2.1949999999999997E-002     2.1606554244959610E-013
   2.2799999999999987E-002    -6.6496567302069944E-013
   2.3650000000000004E-002    -1.7054275397913611E-012
   2.4499999999999994E-002    -2.8492207691724903E-012
   2.5349999999999984E-002    -4.0189372359383107E-012
   2.6200000000000001E-002    -5.1178990908858038E-012
   2.7049999999999991E-002    -6.0341309054152073E-012
   2.7900000000000008E-002    -6.6463125937118716E-012
   2.8749999999999998E-002    -6.8316407124949228E-012
   2.9599999999999987E-002    -6.4753711273473503E-012
   3.0450000000000005E-002    -5.4816280401015509E-012
   3.1299999999999994E-002    -3.7849170471025853E-012
   3.2149999999999984E-002    -1.3615837406938987E-012
   3.3000000000000002E-002     1.7596690278986583E-012
   3.3849999999999991E-002     5.4891895810014346E-012
   3.4700000000000009E-002     9.6707503786669159E-012
   3.5549999999999998E-002     1.4079870191452420E-011
   3.6399999999999988E-002     1.8426957044311005E-011
   3.7250000000000005E-002     2.2365916842515007E-011
   3.8099999999999995E-002     2.5508555262456609E-011
   3.8949999999999985E-002     2.7444725126837017E-011
   3.9800000000000002E-002     2.7767706905003030E-011
   4.0649999999999992E-002     2.6103878484499571E-011
   4.1500000000000009E-002     2.2145210631400684E-011
   4.2349999999999999E-002     1.5682788153733234E-011
   4.3199999999999988E-002     6.6391851764975860E-012
   4.4050000000000006E-002    -4.9026735299142366E-012
   4.4899999999999995E-002    -1.8676557461542099E-011
   4.5749999999999985E-002    -3.4218202799599666E-011
   4.6600000000000003E-002    -5.0860911087878061E-011
   4.7449999999999992E-002    -6.7743087713581128E-011
   4.8299999999999982E-002    -8.3828910154021018E-011
   4.9149999999999999E-002    -9.7942591401320325E-011
   4.9999999999999989E-002    -1.0881612157928983E-010
   5.0850000000000006E-002    -1.1514964352658747E-010
   5.1699999999999996E-002    -1.1568279623473555E-010
   5.2549999999999986E-002    -1.0927480133400886E-010
   5.3400000000000003E-002    -9.4990518136108125E-011
   5.4249999999999993E-002    -7.2188804800876210E-011
   5.5099999999999982E-002    -4.0609486872279175E-011
   5.5950000000000000E-002    -4.5437858998839710E-013
   5.6799999999999989E-002     4.7541948386845216E-011
   5.7650000000000007E-002     1.0205678686420982E-010
   5.8499999999999996E-002     1.6114373171831888E-010
   5.9349999999999986E-002     2.2222157342172059E-010
   6.0200000000000004E-002     2.8209172946230335E-010
   6.1049999999999993E-002     3.3698777666746853E-010
   6.1899999999999983E-002     3.8265924535722275E-010
   6.2750000000000000E-002     4.1449085575365332E-010
   6.3599999999999990E-002     4.2765720235991851E-010
   6.4450000000000007E-002     4.1730998766444524E-010
   6.5299999999999997E-002     3.7879454757871620E-010
   6.6149999999999987E-002     3.0788898049350595E-010
   6.7000000000000004E-002     2.0105833068834986E-010
   6.7849999999999994E-002     5.5715477377405273E-011
   6.8699999999999983E-002    -1.2952309776427343E-010
   6.9550000000000001E-002    -3.5459549770643021E-010
   7.0399999999999990E-002    -6.1777867461291329E-010
   7.1249999999999980E-002    -9.1550770067184061E-010
   7.2099999999999997E-002    -1.2422373671064152E-009
   7.2949999999999987E-002    -1.5903527548356082E-009
   7.3800000000000004E-002    -1.9501300951969876E-009
   7.4649999999999994E-002    -2.3097473313660752E-009
   7.5499999999999984E-002    -2.6553375510190659E-009
   7.6350000000000001E-002    -2.9710811746639190E-009
   7.7199999999999991E-002    -3.2393147618414887E-009
   7.8049999999999981E-002    -3.4406510790859236E-009
   7.8899999999999998E-002    -3.5540818171636461E-009
   7.9749999999999988E-002    -3.5570418093176041E-009
   8.0600000000000005E-002    -3.4254036084483576E-009
   8.1449999999999995E-002    -3.1333924758648972E-009
   8.2299999999999984E-002    -2.6533624189785461E-009
   8.3150000000000002E-002    -1.9554326962379335E-009
   8.3999999999999991E-002    -1.0069346980157867E-009
   8.4849999999999981E-002     2.2835790370135436E-010
   8.5699999999999998E-002     1.7912391031437010E-009
   8.6549999999999988E-002     3.7283513155007557E-009
   8.7400000000000005E-002     6.0937739743089106E-009
   8.8249999999999995E-002     8.9509429410236935E-009
   8.9099999999999985E-002     1.2374906819223552E-008
   8.9950000000000002E-002     1.6454992405351635E-008
   9.0799999999999992E-002     2.1297863173103216E-008
   9.1649999999999981E-002     2.7031022954284960E-008
   9.2499999999999999E-002     3.3806731969926532E-008
   9.3349999999999989E-002     4.1806503826613096E-008
   9.4200000000000006E-002     5.1246075794064207E-008
   9.5049999999999996E-002     6.2380909210326349E-008
   9.5899999999999985E-002     7.5512482253491838E-008
   9.6750000000000003E-002     9.0994968223640063E-008
   9.7599999999999992E-002     1.0924302010888957E-007
   9.8449999999999982E-002     1.3073997012557720E-007
   9.9299999999999999E-002     1.5604710876575226E-007
  0.10014999999999999          1.8581394061008008E-007
  0.10099999999999998          2.2078933714104786E-007
  0.10185000000000000          2.6183407656421005E-007
  0.10269999999999999          3.0993425397386464E-007
  0.10355000000000000          3.6621584038484588E-007
  0.10439999999999999          4.3196152967128753E-007
  0.10524999999999998          5.0862775622928566E-007
  0.10610000000000000          5.9786430264842270E-007
  0.10694999999999999          7.0153466710954979E-007
  0.10779999999999998          8.2173791956775953E-007
  0.10865000000000000          9.6083377542166527E-007
  0.10949999999999999          1.1214660242291836E-006
  0.11035000000000000          1.3065908488425845E-006
  0.11119999999999999          1.5195043335821754E-006
  0.11204999999999998          1.7638725387509712E-006
  0.11290000000000000          2.0437613844361808E-006
  0.11374999999999999          2.3636686323587706E-006
  0.11459999999999998          2.7285560378626693E-006
  0.11545000000000000          3.1438830730391172E-006
  0.11629999999999999          3.6156352071707865E-006
  0.11715000000000000          4.1503619068861775E-006
  0.11799999999999999          4.7552037157328671E-006
  0.11884999999999998          5.4379211436036365E-006
  0.11970000000000000          6.2069216134462095E-006
  0.12054999999999999          7.0712844443967819E-006
  0.12139999999999998          8.0407776313513450E-006
  0.12225000000000000          9.1258742234940772E-006
  0.12309999999999999          1.0337757654778224E-005
  0.12395000000000000          1.1688324616154646E-005
  0.12479999999999999          1.3190176001271971E-005
  0.12564999999999998          1.4856596045887880E-005
  0.12650000000000000          1.6701533190650318E-005
  0.12734999999999999          1.8739550964963782E-005
  0.12819999999999998          2.0985773044950579E-005
  0.12905000000000000          2.3455819617978804E-005
  0.12989999999999999          2.6165714606958430E-005
  0.13074999999999998          2.9131791911835968E-005
  0.13159999999999999          3.2370567717266796E-005
  0.13245000000000001          3.5898599290501638E-005
  0.13329999999999997          3.9732313664679278E-005
  0.13414999999999999          4.3887858989106416E-005
  0.13500000000000001          4.8380869792981286E-005
  0.13584999999999997          5.3226250690001047E-005
  0.13669999999999999          5.8437917028756218E-005
  0.13755000000000001          6.4028563985354259E-005
  0.13839999999999997          7.0009348449043003E-005
  0.13924999999999998          7.6389550176662044E-005
  0.14010000000000000          8.3176306714161520E-005
  0.14094999999999996          9.0374226476335297E-005
  0.14179999999999998          9.7985044703106564E-005
  0.14265000000000000          1.0600725726197404E-004
  0.14350000000000002          1.1443571929501954E-004
  0.14434999999999998          1.2326130647823024E-004
  0.14520000000000000          1.3247047832668760E-004
  0.14605000000000001          1.4204502840204852E-004
  0.14689999999999998          1.5196154819356088E-004
  0.14774999999999999          1.6219117236570049E-004
  0.14860000000000001          1.7269924313841186E-004
  0.14944999999999997          1.8344502986366901E-004
  0.15029999999999999          1.9438146383683551E-004
  0.15115000000000001          2.0545489018593185E-004
  0.15199999999999997          2.1660496172349426E-004
  0.15284999999999999          2.2776446549840017E-004
  0.15370000000000000          2.3885933702781328E-004
  0.15454999999999997          2.4980860636443584E-004
  0.15539999999999998          2.6052473333863037E-004
  0.15625000000000000          2.7091348702588421E-004
  0.15709999999999996          2.8087449091361642E-004
  0.15794999999999998          2.9030149186361947E-004
  0.15880000000000000          2.9908282548406863E-004
  0.15965000000000001          3.0710205707522098E-004
  0.16049999999999998          3.1423862575039334E-004
  0.16134999999999999          3.2036882513021623E-004
  0.16220000000000001          3.2536646773397265E-004
  0.16304999999999997          3.2910400878919348E-004
  0.16389999999999999          3.3145348548601093E-004
  0.16475000000000001          3.3228805349574161E-004
  0.16559999999999997          3.3148290940731212E-004
  0.16644999999999999          3.2891678961794520E-004
  0.16730000000000000          3.2447347786513433E-004
  0.16814999999999997          3.1804318516812818E-004
  0.16899999999999998          3.0952405891653077E-004
  0.16985000000000000          2.9882367861838163E-004
  0.17069999999999996          2.8586068537618623E-004
  0.17154999999999998          2.7056623574703916E-004
  0.17240000000000000          2.5288541309499479E-004
  0.17325000000000002          2.3277900446382023E-004
  0.17409999999999998          2.1022432495129529E-004
  0.17494999999999999          1.8521690222754374E-004
  0.17580000000000001          1.5777143841641148E-004
  0.17664999999999997          1.2792276359896280E-004
  0.17749999999999999          9.5727030453558119E-005
  0.17835000000000001          6.1261940392470961E-005
  0.17919999999999997          2.4627469395308097E-005
  0.18004999999999999         -1.4053906121066589E-005
  0.18090000000000001         -5.4637382088703896E-005
  0.18174999999999997         -9.6955589240123297E-005
  0.18259999999999998         -1.4081948966671119E-004
  0.18345000000000000         -1.8601883490098367E-004
  0.18429999999999996         -2.3232314840235431E-004
  0.18514999999999998         -2.7948304981977902E-004
  0.18600000000000000         -3.2723172732983328E-004
  0.18684999999999996         -3.7528656523577134E-004
  0.18769999999999998         -4.2335122639802639E-004
  0.18855000000000000         -4.7111762512637521E-004
  0.18940000000000001         -5.1826856239911990E-004
  0.19024999999999997         -5.6448014888277418E-004
  0.19109999999999999         -6.0942460309705679E-004
  0.19195000000000001         -6.5277321386963537E-004
  0.19279999999999997         -6.9419910131257774E-004
  0.19364999999999999         -7.3338054662637508E-004
  0.19450000000000001         -7.7000387437464604E-004
  0.19534999999999997         -8.0376661910095781E-004
  0.19619999999999999         -8.3438075141613083E-004
  0.19705000000000000         -8.6157527056127104E-004
  0.19789999999999996         -8.8509944653606385E-004
  0.19874999999999998         -9.0472547876525834E-004
  0.19960000000000000         -9.2025101966379302E-004
  0.20044999999999996         -9.3150152071997262E-004
  0.20129999999999998         -9.3833207862687308E-004
  0.20215000000000000         -9.4062987987434581E-004
  0.20300000000000001         -9.3831529242457284E-004
  0.20384999999999998         -9.3134283548717493E-004
  0.20469999999999999         -9.1970297071800619E-004
  0.20555000000000001         -9.0342146325001393E-004
  0.20639999999999997         -8.8256041411172495E-004
  0.20724999999999999         -8.5721717316911746E-004
  0.20810000000000001         -8.2752466004336453E-004
  0.20894999999999997         -7.9364971158502138E-004
  0.20979999999999999         -7.5579187579277360E-004
  0.21065000000000000         -7.1418220362596174E-004
  0.21149999999999997         -6.6908031109148966E-004
  0.21234999999999998         -6.2077283976221453E-004
  0.21320000000000000         -5.6957064360113141E-004
  0.21404999999999996         -5.1580586616887885E-004
  0.21489999999999998         -4.5982887397406262E-004
  0.21575000000000000         -4.0200510848958443E-004
  0.21659999999999996         -3.4271164752969452E-004
  0.21744999999999998         -2.8233384499860896E-004
  0.21829999999999999         -2.2126174201677091E-004
  0.21915000000000001         -1.5988667844371875E-004
  0.21999999999999997         -9.8597045317271709E-005
  0.22084999999999999         -3.7775766097468649E-005
  0.22170000000000001          2.2203514095184545E-005
  0.22254999999999997          8.0979503310652336E-005
  0.22339999999999999          1.3820663951276234E-004
  0.22425000000000000          1.9355745395275594E-004
  0.22509999999999997          2.4672528117236018E-004
  0.22594999999999998          2.9742689757905215E-004
  0.22680000000000000          3.4540426546249042E-004
  0.22764999999999996          3.9042653654638223E-004
  0.22849999999999998          4.3229119909747517E-004
  0.22935000000000000          4.7082499430084294E-004
  0.23019999999999996          5.0588531083433643E-004
  0.23104999999999998          5.3735988017904743E-004
  0.23190000000000000          5.6516745251086146E-004
  0.23275000000000001          5.8925710178851039E-004
  0.23359999999999997          6.0960818264673192E-004
  0.23444999999999999          6.2622882319322284E-004
  0.23530000000000001          6.3915570296143556E-004
  0.23614999999999997          6.4845197223571704E-004
  0.23699999999999999          6.5420590127944500E-004
  0.23785000000000001          6.5652958540627661E-004
  0.23869999999999997          6.5555626643040254E-004
  0.23954999999999999          6.5143857964975957E-004
  0.24040000000000000          6.4434621828753905E-004
  0.24124999999999996          6.3446397345360661E-004
  0.24209999999999998          6.2198900725168947E-004
  0.24295000000000000          6.0712859115768082E-004
  0.24379999999999996          5.9009786212313746E-004
  0.24464999999999998          5.7111749807270298E-004
  0.24550000000000000          5.5041106358751318E-004
  0.24634999999999996          5.2820341308024220E-004
  0.24719999999999998          5.0471818984773565E-004
  0.24804999999999999          4.8017611304195944E-004
  0.24890000000000001          4.5479303891764742E-004
  0.24974999999999997          4.2877824882293772E-004
  0.25059999999999999          4.0233295631992747E-004
  0.25145000000000001          3.7564924821715769E-004
  0.25229999999999997          3.4890850468662017E-004
  0.25314999999999999          3.2228073973245035E-004
  0.25400000000000000          2.9592364814242235E-004
  0.25484999999999997          2.6998217131446640E-004
  0.25569999999999998          2.4458793881268129E-004
  0.25655000000000000          2.1985898826966534E-004
  0.25739999999999996          1.9589973201357701E-004
  0.25824999999999998          1.7280098426004868E-004
  0.25910000000000000          1.5064012208094931E-004
  0.25994999999999996          1.2948151615259232E-004
  0.26079999999999998          1.0937680701007911E-004
  0.26164999999999999          9.0365505543034118E-005
  0.26249999999999996          7.2475682116953741E-005
  0.26334999999999997          5.5724538508430912E-005
  0.26419999999999999          4.0119271071541414E-005
  0.26505000000000001          2.5657844746850055E-005
  0.26589999999999997          1.2329780442579238E-005
  0.26674999999999999          1.1700278446636855E-007
  0.26760000000000000         -1.1005237463730009E-005
  0.26844999999999997         -2.1067645003867001E-005
  0.26929999999999998         -3.0106009709845842E-005
  0.27015000000000000         -3.8160380742764154E-005
  0.27099999999999996         -4.5274381205907851E-005
  0.27184999999999998         -5.1494421289218699E-005
  0.27270000000000000         -5.6869063359376746E-005
  0.27354999999999996         -6.1448329350125540E-005
  0.27439999999999998         -6.5283093877994196E-005
  0.27524999999999999         -6.8424664104927633E-005
  0.27609999999999996         -7.0924123700961055E-005
  0.27694999999999997         -7.2832065578302293E-005
  0.27779999999999999         -7.4198082133428907E-005
  0.27865000000000001         -7.5070562676427503E-005
  0.27949999999999997         -7.5496364252984976E-005
  0.28034999999999999         -7.5520560226211784E-005
  0.28120000000000001         -7.5186309267047676E-005
  0.28204999999999997         -7.4534657676155223E-005
  0.28289999999999998         -7.3604458095920472E-005
  0.28375000000000000         -7.2432257463399437E-005
  0.28459999999999996         -7.1052294937935941E-005
  0.28544999999999998         -6.9496449612631414E-005
  0.28630000000000000         -6.7794264276761901E-005
  0.28714999999999996         -6.5972978469833800E-005
  0.28799999999999998         -6.4057504614945031E-005
  0.28885000000000000         -6.2070611867993142E-005
  0.28969999999999996         -6.0032847328056959E-005
  0.29054999999999997         -5.7962752230998857E-005
  0.29139999999999999         -5.5876851021687858E-005
  0.29224999999999995         -5.3789794859321364E-005
  0.29309999999999997         -5.1714405346210732E-005
  0.29394999999999999         -4.9661824797786294E-005
  0.29480000000000001         -4.7641544628205131E-005
  0.29564999999999997         -4.5661594593396650E-005
  0.29649999999999999         -4.3728576884693599E-005
  0.29735000000000000         -4.1847811995581546E-005
  0.29819999999999997         -4.0023458565309009E-005
  0.29904999999999998         -3.8258621445374298E-005
  0.29990000000000000         -3.6555413160446317E-005
  0.30074999999999996         -3.4915160675427431E-005
  0.30159999999999998         -3.3338406112346807E-005
  0.30245000000000000         -3.1825058450776447E-005
  0.30329999999999996         -3.0374496074285705E-005
  0.30414999999999998         -2.8985597917532107E-005
  0.30499999999999999         -2.7656870868056495E-005
  0.30584999999999996         -2.6386527600119366E-005
  0.30669999999999997         -2.5172558515598566E-005
  0.30754999999999999         -2.4012783654161423E-005
  0.30840000000000001         -2.2904969423489687E-005
  0.30924999999999997         -2.1846846025411193E-005
  0.31009999999999999         -2.0836166145181456E-005
  0.31095000000000000         -1.9870789310871323E-005
  0.31179999999999997         -1.8948686464336237E-005
  0.31264999999999998         -1.8067950225009163E-005
  0.31350000000000000         -1.7226854001057067E-005
  0.31434999999999996         -1.6423833697774677E-005
  0.31519999999999998         -1.5657504679838538E-005
  0.31605000000000000         -1.4926623852186590E-005
  0.31689999999999996         -1.4230131713656720E-005
  0.31774999999999998         -1.3567116242505836E-005
  0.31859999999999999         -1.2936789802333280E-005
  0.31944999999999996         -1.2338458724070083E-005
  0.32029999999999997         -1.1771520789972136E-005
  0.32114999999999999         -1.1235437689257166E-005
  0.32199999999999995         -1.0729683969255333E-005
  0.32284999999999997         -1.0253743970145480E-005
  0.32369999999999999         -9.8070691832504196E-006
  0.32455000000000001         -9.3890744522783618E-006
  0.32539999999999997         -8.9990981123769871E-006
  0.32624999999999998         -8.6364162314984765E-006
  0.32710000000000000         -8.3002106327974673E-006
  0.32794999999999996         -7.9895754004836154E-006
  0.32879999999999998         -7.7035163732990704E-006
  0.32965000000000000         -7.4409517525491280E-006
  0.33049999999999996         -7.2007058421155660E-006
  0.33134999999999998         -6.9815194487738614E-006
  0.33220000000000000         -6.7820588273072507E-006
  0.33304999999999996         -6.6009123170818211E-006
  0.33389999999999997         -6.4366171705919462E-006
  0.33474999999999999         -6.2876673886211350E-006
  0.33559999999999995         -6.1525336655020165E-006
  0.33644999999999997         -6.0297052020112834E-006
  0.33729999999999999         -5.9176809821502848E-006
  0.33815000000000001         -5.8150215633923260E-006
  0.33899999999999997         -5.7203618533534388E-006
  0.33984999999999999         -5.6324255066277832E-006
  0.34070000000000000         -5.5500366860502381E-006
  0.34154999999999996         -5.4721400104731108E-006
  0.34239999999999998         -5.3977877074250138E-006