 -0.12000000000000000          0.0000000000000000
 -0.11914999999999999          0.0000000000000000
 -0.11830000000000000          0.0000000000000000
 -0.11745000000000000          0.0000000000000000
 -0.11660000000000000          0.0000000000000000
 -0.11574999999999999          0.0000000000000000
 -0.11490000000000000          0.0000000000000000
 -0.11405000000000000          0.0000000000000000
 -0.11320000000000000          0.0000000000000000
 -0.11234999999999999          0.0000000000000000
 -0.11150000000000000          0.0000000000000000
 -0.11065000000000000          0.0000000000000000
 -0.10979999999999999          0.0000000000000000
 -0.10894999999999999          0.0000000000000000
 -0.10810000000000000          0.0000000000000000
 -0.10725000000000000          0.0000000000000000
 -0.10639999999999999          0.0000000000000000
 -0.10554999999999999          0.0000000000000000
 -0.10470000000000000          0.0000000000000000
 -0.10385000000000000          0.0000000000000000
 -0.10299999999999999          0.0000000000000000
 -0.10214999999999999          0.0000000000000000
 -0.10130000000000000          0.0000000000000000
 -0.10045000000000000          0.0000000000000000
  -9.9599999999999994E-002     0.0000000000000000
  -9.8750000000000004E-002     0.0000000000000000
  -9.7900000000000001E-002     0.0000000000000000
  -9.7049999999999997E-002     0.0000000000000000
  -9.6199999999999994E-002     0.0000000000000000
  -9.5349999999999990E-002     0.0000000000000000
  -9.4500000000000001E-002     0.0000000000000000
  -9.3649999999999997E-002     0.0000000000000000
  -9.2799999999999994E-002     0.0000000000000000
  -9.1950000000000004E-002     0.0000000000000000
  -9.1100000000000000E-002     0.0000000000000000
  -9.0249999999999997E-002     0.0000000000000000
  -8.9399999999999993E-002     0.0000000000000000
  -8.8549999999999990E-002     0.0000000000000000
  -8.7700000000000000E-002     0.0000000000000000
  -8.6849999999999997E-002     0.0000000000000000
  -8.5999999999999993E-002     0.0000000000000000
  -8.5150000000000003E-002     0.0000000000000000
  -8.4300000000000000E-002     0.0000000000000000
  -8.3449999999999996E-002     0.0000000000000000
  -8.2600000000000007E-002     0.0000000000000000
  -8.1749999999999989E-002     0.0000000000000000
  -8.0900000000000000E-002     0.0000000000000000
  -8.0049999999999996E-002     0.0000000000000000
  -7.9199999999999993E-002     0.0000000000000000
  -7.8350000000000003E-002     0.0000000000000000
  -7.7499999999999999E-002     0.0000000000000000
  -7.6649999999999996E-002     0.0000000000000000
  -7.5800000000000006E-002     0.0000000000000000
  -7.4949999999999989E-002     0.0000000000000000
  -7.4099999999999999E-002     0.0000000000000000
  -7.3249999999999996E-002     0.0000000000000000
  -7.2399999999999992E-002     0.0000000000000000
  -7.1550000000000002E-002     0.0000000000000000
  -7.0699999999999999E-002     0.0000000000000000
  -6.9849999999999995E-002     0.0000000000000000
  -6.9000000000000006E-002     0.0000000000000000
  -6.8149999999999988E-002     0.0000000000000000
  -6.7299999999999999E-002     1.2714523388380390E-039
  -6.6449999999999995E-002     2.7014282017571832E-039
  -6.5599999999999992E-002     2.7014282017571832E-039
  -6.4750000000000002E-002    -2.0775908267508284E-039
  -6.3899999999999998E-002    -1.4374089564024109E-038
  -6.3049999999999995E-002    -2.0947723082621278E-038
  -6.2199999999999998E-002    -6.5943633646203801E-039
  -6.1350000000000002E-002     3.2888690865372866E-038
  -6.0499999999999998E-002     9.1599035506979018E-038
  -5.9650000000000002E-002     1.2489727367745884E-037
  -5.8799999999999998E-002     7.1659791885365910E-038
  -5.7950000000000002E-002    -1.1718932359299271E-037
  -5.7099999999999998E-002    -4.4893619967455921E-037
  -5.6249999999999994E-002    -8.4491281986915490E-037
  -5.5400000000000005E-002    -1.1167458531733250E-036
  -5.4550000000000001E-002    -9.6801222644516901E-037
  -5.3699999999999998E-002    -6.1481392035567636E-038
  -5.2849999999999994E-002     1.8079399899298101E-036
  -5.2000000000000005E-002     4.4670740416305654E-036
  -5.1150000000000001E-002     7.1046470022950112E-036
  -5.0299999999999997E-002     8.1422132574572185E-036
  -4.9449999999999994E-002     5.4300645350804828E-036
  -4.8600000000000004E-002    -3.0501075952353418E-036
  -4.7750000000000001E-002    -1.7919748805654128E-035
  -4.6899999999999997E-002    -3.6781832624997709E-035
  -4.6049999999999994E-002    -5.2826335720755413E-035
  -4.5200000000000004E-002    -5.4624045706873022E-035
  -4.4350000000000001E-002    -2.8248420324444368E-035
  -4.3499999999999997E-002     3.7421123805789050E-035
  -4.2649999999999993E-002     1.4234011734906818E-034
  -4.1800000000000004E-002     2.6572336159189082E-034
  -4.0950000000000000E-002     3.5923397584068627E-034
  -4.0099999999999997E-002     3.4872014954647737E-034
  -3.9249999999999993E-002     1.5056080845310883E-034
  -3.8400000000000004E-002    -2.9388408025638284E-034
  -3.7550000000000000E-002    -9.6852278281797435E-034
  -3.6699999999999997E-002    -1.7300349964032742E-033
  -3.5850000000000007E-002    -2.2761848681894852E-033
  -3.5000000000000003E-002    -2.1663537989824990E-033
  -3.4150000000000000E-002    -9.2433149049187963E-034
  -3.3299999999999996E-002     1.7632226700284459E-033
  -3.2450000000000007E-002     5.7742214165673639E-033
  -3.1600000000000003E-002     1.0276150095837852E-032
  -3.0750000000000000E-002     1.3573048467787769E-032
  -2.9899999999999996E-002     1.3232274919207192E-032
  -2.9050000000000006E-002     6.6346740666547355E-033
  -2.8200000000000003E-002    -7.9956767981831219E-033
  -2.7349999999999999E-002    -3.0197116639980996E-032
  -2.6499999999999996E-002    -5.5862507597202729E-032
  -2.5650000000000006E-002    -7.6411337596264772E-032
  -2.4800000000000003E-002    -7.9286439700482419E-032
  -2.3949999999999999E-002    -5.0459445851419683E-032
  -2.3099999999999996E-002     2.0750506243417681E-032
  -2.2250000000000006E-002     1.3498215371158366E-031
  -2.1400000000000002E-002     2.7572843073959288E-031
  -2.0549999999999999E-002     4.0437712099380223E-031
  -1.9699999999999995E-002     4.6070813785571130E-031
  -1.8850000000000006E-002     3.7211057955331615E-031
  -1.8000000000000002E-002     7.3480571370252154E-032
  -1.7149999999999999E-002    -4.6302720249393920E-031
  -1.6299999999999995E-002    -1.1933215805272508E-030
  -1.5450000000000005E-002    -1.9713762276750120E-030
  -1.4600000000000002E-002    -2.5374656088346739E-030
  -1.3749999999999998E-002    -2.5396738370497643E-030
  -1.2899999999999995E-002    -1.6009301424106640E-030
  -1.2050000000000005E-002     5.6452141351342576E-031
  -1.1200000000000002E-002     3.9954124874966069E-030
  -1.0349999999999998E-002     8.3170375363792378E-030
  -9.5000000000000084E-003     1.2611779910161834E-029
  -8.6500000000000049E-003     1.5388759414689386E-029
  -7.8000000000000014E-003     1.4718311755602970E-029
  -6.9499999999999978E-003     8.5832113127485073E-030
  -6.1000000000000082E-003    -4.5370870849494164E-030
  -5.2500000000000047E-003    -2.4891219751101527E-029
  -4.4000000000000011E-003    -5.0608197267457525E-029
  -3.5499999999999976E-003    -7.6979592005769028E-029
  -2.7000000000000079E-003    -9.6147716505199890E-029
  -1.8500000000000044E-003    -9.7516697942085979E-029
  -1.0000000000000009E-003    -6.9184730064121375E-029
  -1.4999999999999736E-004    -5.9273600198503468E-031
   6.9999999999999230E-004     1.1362370097357375E-028
   1.5499999999999958E-003     2.6891146908997159E-028
   2.3999999999999994E-003     4.4595611385886197E-028
   3.2500000000000029E-003     6.0693835492724903E-028
   4.0999999999999925E-003     6.9455414420767974E-028
   4.9499999999999961E-003     6.3574613029394509E-028
   5.7999999999999996E-003     3.5205233942073297E-028
   6.6499999999999893E-003    -2.2208798551205199E-028
   7.5000000000000067E-003    -1.1130103747388606E-027
   8.3499999999999963E-003    -2.2755317874584014E-027
   9.1999999999999860E-003    -3.5596547464470521E-027
   1.0050000000000003E-002    -4.6846818743846538E-027
   1.0899999999999993E-002    -5.2325293882380783E-027
   1.1750000000000010E-002    -4.6743380988399808E-027
   1.2600000000000000E-002    -2.4443753741886027E-027
   1.3449999999999990E-002     1.9288184259325727E-027
   1.4300000000000007E-002     8.6335063328883178E-027
   1.5149999999999997E-002     1.7343068332024931E-026
   1.5999999999999986E-002     2.6977804741402553E-026
   1.6850000000000004E-002     3.5521011547401696E-026
   1.7699999999999994E-002     3.9973158038193171E-026
   1.8549999999999983E-002     3.6542184478926723E-026
   1.9400000000000001E-002     2.1163975844774002E-026
   2.0249999999999990E-002    -9.5848712161475506E-027
   2.1100000000000008E-002    -5.7187938815698750E-026
   2.1949999999999997E-002    -1.1961619458472376E-025
   2.2799999999999987E-002    -1.8973363884522104E-025
   2.3650000000000004E-002    -2.5408715015351617E-025
   2.4499999999999994E-002    -2.9262101666833193E-025
   2.5349999999999984E-002    -2.7992652498443938E-025
   2.6200000000000001E-002    -1.8858770261471401E-025
   2.7049999999999991E-002     5.0385131519732922E-027
   2.7900000000000008E-002     3.1270128917203604E-025
   2.8749999999999998E-002     7.2453154050326813E-025
   2.9599999999999987E-002     1.1992590690780967E-024
   3.0450000000000005E-002     1.6567654920370916E-024
   3.1299999999999994E-002     1.9760730105234894E-024
   3.2149999999999984E-002     2.0021797776601966E-024
   3.3000000000000002E-002     1.5647883449643339E-024
   3.3849999999999991E-002     5.1068711604865999E-025
   3.4700000000000009E-002    -1.2508220949531420E-024
   3.5549999999999998E-002    -3.6934605247606634E-024
   3.6399999999999988E-002    -6.6186354072074340E-024
   3.7250000000000005E-002    -9.6116617653983251E-024
   3.8099999999999995E-002    -1.2025432490253734E-023
   3.8949999999999985E-002    -1.3008889549964235E-023
   3.9800000000000002E-002    -1.1595826731005806E-023
   4.0649999999999992E-002    -6.8633767867067561E-024
   4.1500000000000009E-002     1.8416470440421600E-024
   4.2349999999999999E-002     1.4626295981663186E-023
   4.3199999999999988E-002     3.0761947976991881E-023
   4.4050000000000006E-002     4.8438586729629047E-023
   4.4899999999999995E-002     6.4636208390324163E-023
   4.5749999999999985E-002     7.5194609690000403E-023
   4.6600000000000003E-002     7.5156799716086317E-023
   4.7449999999999992E-002     5.9436898554192967E-023
   4.8299999999999982E-002     2.3817543841840866E-023
   4.9149999999999999E-002    -3.3784141319694400E-023
   4.9999999999999989E-002    -1.1192463690352446E-022
   5.0850000000000006E-002    -2.0434506656628088E-022
   5.1699999999999996E-002    -2.9908969327976443E-022
   5.2549999999999986E-002    -3.7838177480484181E-022
   5.3400000000000003E-002    -4.1960022990572894E-022
   5.4249999999999993E-002    -3.9762410862555940E-022
   5.5099999999999982E-002    -2.8865209596105681E-022
   5.5950000000000000E-002    -7.5360390577066076E-023
   5.6799999999999989E-002     2.4705014918054552E-022
   5.7650000000000007E-002     6.6471341386212520E-022
   5.8499999999999996E-002     1.1399901234885955E-021
   5.9349999999999986E-002     1.6087591375747683E-021
   6.0200000000000004E-002     1.9815520177735155E-021
   6.1049999999999993E-002     2.1498123899325323E-021
   6.1899999999999983E-002     1.9981011027903627E-021
   6.2750000000000000E-002     1.4222915316203145E-021
   6.3599999999999990E-002     3.5273323807890315E-022
   6.4450000000000007E-002    -1.2199096980228990E-021
   6.5299999999999997E-002    -3.2197441328718567E-021
   6.6149999999999987E-002    -5.4663891358409408E-021
   6.7000000000000004E-002    -7.6668061039490146E-021
   6.7849999999999994E-002    -9.4236338118892781E-021
   6.8699999999999983E-002    -1.0264499488450536E-020
   6.9550000000000001E-002    -9.6947277333450552E-021
   7.0399999999999990E-002    -7.2727311381048470E-021
   7.1249999999999980E-002    -2.7032809983276645E-021
   7.2099999999999997E-002     4.0607369294970462E-021
   7.2949999999999987E-002     1.2722051731770879E-020
   7.3800000000000004E-002     2.2565910340882373E-020
   7.4649999999999994E-002     3.2429862946061931E-020
   7.5499999999999984E-002     4.0735585319006737E-020
   7.6350000000000001E-002     4.5598108250083295E-020
   7.7199999999999991E-002     4.5020304842692971E-020
   7.8049999999999981E-002     3.7169514927124033E-020
   7.8899999999999998E-002     2.0719198318169316E-020
   7.9749999999999988E-002    -4.7768833336931852E-021
   8.0600000000000005E-002    -3.8525568940129051E-020
   8.1449999999999995E-002    -7.8210091321695446E-020
   8.2299999999999984E-002    -1.1984720020709531E-019
   8.3150000000000002E-002    -1.5785049691275485E-019
   8.3999999999999991E-002    -1.8535322163987257E-019
   8.4849999999999981E-002    -1.9482044905117647E-019
   8.5699999999999998E-002    -1.7894687945490621E-019
   8.6549999999999988E-002    -1.3179290792794816E-019
   8.7400000000000005E-002    -5.0063804890806283E-020
   8.8249999999999995E-002     6.5611013479794652E-020
   8.9099999999999985E-002     2.0958159617985462E-019
   8.9950000000000002E-002     3.7047152267493247E-019
   9.0799999999999992E-002     5.3107210684981447E-019
   9.1649999999999981E-002     6.6901892618039949E-019
   9.2499999999999999E-002     7.5837314930927647E-019
   9.3349999999999989E-002     7.7213829382908043E-019
   9.4200000000000006E-002     6.8562208711594093E-019
   9.5049999999999996E-002     4.8041600203607258E-019
   9.5899999999999985E-002     1.4862198154736800E-019
   9.6750000000000003E-002    -3.0317118660544344E-019
   9.7599999999999992E-002    -8.5075238405677192E-019
   9.8449999999999982E-002    -1.4506210477027259E-018
   9.9299999999999999E-002    -2.0403796606488227E-018
  0.10014999999999999         -2.5416559658847002E-018
  0.10099999999999998         -2.8658147285405405E-018
  0.10185000000000000         -2.9224233590072625E-018
  0.10269999999999999         -2.6300858808280498E-018
  0.10355000000000000         -1.9288694703254879E-018
  0.10439999999999999         -7.9317010419618321E-019
  0.10524999999999998          7.5644923732094789E-019
  0.10610000000000000          2.6441235900309846E-018
  0.10694999999999999          4.7339805374315261E-018
  0.10779999999999998          6.8314345439922657E-018
  0.10865000000000000          8.6916964680121224E-018
  0.10949999999999999          1.0036115793881606E-017
  0.11035000000000000          1.0576201474311388E-017
  0.11119999999999999          1.0044265481416994E-017
  0.11204999999999998          8.2286297190226232E-018
  0.11290000000000000          5.0104441543995996E-018
  0.11374999999999999          3.9834415007989871E-019
  0.11459999999999998         -5.4433001069943811E-018
  0.11545000000000000         -1.2176949299981980E-017
  0.11629999999999999         -1.9289364909757343E-017
  0.11715000000000000         -2.6107254808260179E-017
  0.11799999999999999         -3.1833105891275659E-017
  0.11884999999999998         -3.5601430579592935E-017
  0.11970000000000000         -3.6553641600742061E-017
  0.12054999999999999         -3.3927542111510893E-017
  0.12139999999999998         -2.7155219829769096E-017
  0.12225000000000000         -1.5961212886602711E-017
  0.12309999999999999         -4.5137916151243253E-019
  0.12395000000000000          1.8817876533430442E-017
  0.12479999999999999          4.0800228542949133E-017
  0.12564999999999998          6.3959064833764984E-017
  0.12650000000000000          8.6313205172692185E-017
  0.12734999999999999          1.0553271382888527E-016
  0.12819999999999998          1.1908508935696104E-016
  0.12905000000000000          1.2442752967814868E-016
  0.12989999999999999          1.1923654106124883E-016
  0.13074999999999998          1.0166120545974275E-016
  0.13159999999999999          7.0582683266268043E-017
  0.13245000000000001          2.5858792740479130E-017
  0.13329999999999997         -3.1469290793432380E-017
  0.13414999999999999         -9.9031991185333315E-017
  0.13500000000000001         -1.7307059367914793E-016
  0.13584999999999997         -2.4848048129612022E-016
  0.13669999999999999         -3.1897319636169970E-016
  0.13755000000000001         -3.7736564873608356E-016
  0.13839999999999997         -4.1599648506011702E-016
  0.13924999999999998         -4.2726005504816366E-016
  0.14010000000000000         -4.0423828301596508E-016
  0.14094999999999996         -3.4140004311448160E-016
  0.14179999999999998         -2.3532718067108095E-016
  0.14265000000000000         -8.5416854338661901E-017
  0.14350000000000002          1.0549673015630375E-016
  0.14434999999999998          3.3066426519935871E-016
  0.14520000000000000          5.7915008465633722E-016
  0.14605000000000001          8.3582919998897267E-016
  0.14689999999999998          1.0817051987435576E-015
  0.14774999999999999          1.2945897768394829E-015
  0.14860000000000001          1.4501643432021993E-015
  0.14944999999999997          1.5234227272833714E-015
  0.15029999999999999          1.4904618329336024E-015
  0.15115000000000001          1.3305583298445072E-015
  0.15199999999999997          1.0284320140711862E-015
  0.15284999999999999          5.7656442123634545E-016
  0.15370000000000000         -2.2591246828746039E-017
  0.15454999999999997         -7.5469818051150979E-016
  0.15539999999999998         -1.5921267445422862E-015
  0.15625000000000000         -2.4932574838151272E-015
  0.15709999999999996         -3.4026938648330078E-015
  0.15794999999999998         -4.2525551761726219E-015
  0.15880000000000000         -4.9649700617571876E-015
  0.15965000000000001         -5.4558289866840117E-015
  0.16049999999999998         -5.6397680919657760E-015
  0.16134999999999999         -5.4362569411920716E-015
  0.16220000000000001         -4.7765652416209383E-015
  0.16304999999999997         -3.6112673291132199E-015
  0.16389999999999999         -1.9178378808686053E-015
  0.16475000000000001          2.9219210027303199E-016
  0.16559999999999997          2.9671260648809432E-015
  0.16644999999999999          6.0106753231487976E-015
  0.16730000000000000          9.2798554818749805E-015
  0.16814999999999997          1.2585794369653871E-014
  0.16899999999999998          1.5697943074426335E-014
  0.16985000000000000          1.8352036871664496E-014
  0.17069999999999996          2.0261943680454394E-014
  0.17154999999999998          2.1135311480652284E-014
  0.17240000000000000          2.0692643077698150E-014
  0.17325000000000002          1.8689122845828616E-014
  0.17409999999999998          1.4938243321929318E-014
  0.17494999999999999          9.3359652933828882E-015
  0.17580000000000001          1.8838996708398156E-015
  0.17664999999999997         -7.2901819813523554E-015
  0.17749999999999999         -1.7916358069826800E-014
  0.17835000000000001         -2.9572914604783923E-014
  0.17919999999999997         -4.1684867486215132E-014
  0.18004999999999999         -5.3532155132110192E-014
  0.18090000000000001         -6.4268780400349490E-014
  0.18174999999999997         -7.2953601402462782E-014
  0.18259999999999998         -7.8592960983294134E-014
  0.18345000000000000         -8.0194558557835615E-014
  0.18429999999999996         -7.6831274621282865E-014
  0.18514999999999998         -6.7712684885593647E-014
  0.18600000000000000         -5.2261278932415673E-014
  0.18684999999999996         -3.0189470408492784E-014
  0.18769999999999998         -1.5728397325617704E-015
  0.18855000000000000          3.3085550824216383E-014
  0.18940000000000001          7.2805299349631447E-014
  0.19024999999999997          1.1609888272713944E-013
  0.19109999999999999          1.6096729770192224E-013
  0.19195000000000001          2.0492592394698685E-013
  0.19279999999999997          2.4506452790231783E-013
  0.19364999999999999          2.7814365419007325E-013
  0.19450000000000001          3.0072842828363760E-013
  0.19534999999999997          3.0935797186472320E-013
  0.19619999999999999          3.0074733057296779E-013
  0.19705000000000000          2.7201518694449969E-013
  0.19789999999999996          2.2092893918888081E-013
  0.19874999999999998          1.4615590044862604E-013
  0.19960000000000000          4.7506919509620904E-014
  0.20044999999999996         -7.3842465628955085E-014
  0.20129999999999998         -2.1517009510148916E-013
  0.20215000000000000         -3.7208125592876249E-013
  0.20300000000000001         -5.3845551883656775E-013
  0.20384999999999998         -7.0648161881510408E-013
  0.20469999999999999         -8.6679289190441752E-013
  0.20555000000000001         -1.0087131646659384E-012
  0.20639999999999997         -1.1206176613759690E-012
  0.20724999999999999         -1.1904080551902506E-012
  0.20810000000000001         -1.2060950903843577E-012
  0.20894999999999997         -1.1564752922039003E-012
  0.20979999999999999         -1.0318799582922803E-012
  0.21065000000000000         -8.2497002842911508E-013
  0.21149999999999997         -5.3154046805048393E-013
  0.21234999999999998         -1.5129482105977545E-013
  0.21320000000000000          3.1145537086414795E-013
  0.21404999999999996          8.4721507480529800E-013
  0.21489999999999998          1.4409029305490896E-012
  0.21575000000000000          2.0716690166879856E-012
  0.21659999999999996          2.7129779016711339E-012
  0.21744999999999998          3.3329931888171471E-012
  0.21829999999999999          3.8952929196590209E-012
  0.21915000000000001          4.3599303501327869E-012
  0.21999999999999997          4.6848426374518179E-012
  0.22084999999999999          4.8275880378504678E-012
  0.22170000000000001          4.7473833954852141E-012
  0.22254999999999997          4.4073830450726667E-012
  0.22339999999999999          3.7771246844356434E-012
  0.22425000000000000          2.8350576441176490E-012
  0.22509999999999997          1.5710348557809133E-012
  0.22594999999999998         -1.1347583809252351E-014
  0.22680000000000000         -1.8927028856191087E-012
  0.22764999999999996         -4.0362326153651024E-012
  0.22849999999999998         -6.3866768884470505E-012
  0.22935000000000000         -8.8699638027126638E-012
  0.23019999999999996         -1.1393684611456761E-011
  0.23104999999999998         -1.3848486650697132E-011
  0.23190000000000000         -1.6110460239988894E-011
  0.23275000000000001         -1.8044565091602513E-011
  0.23359999999999997         -1.9509074779289325E-011
  0.23444999999999999         -2.0361013812956678E-011
  0.23530000000000001         -2.0462477895606080E-011
  0.23614999999999997         -1.9687695251488425E-011
  0.23699999999999999         -1.7930641866045084E-011
  0.23785000000000001         -1.5112953946475391E-011
  0.23869999999999997         -1.1191857642293708E-011
  0.23954999999999999         -6.1677990907158499E-012
  0.24040000000000000         -9.1415185076963093E-014
  0.24124999999999996          6.9305150331039900E-012
  0.24209999999999998          1.4730505510847131E-011
  0.24295000000000000          2.3077556681471323E-011
  0.24379999999999996          3.1676419764551481E-011
  0.24464999999999998          4.0169259050790590E-011
  0.24550000000000000          4.8139909024659877E-011
  0.24634999999999996          5.5120944476626576E-011
  0.24719999999999998          6.0603623391969880E-011
  0.24804999999999999          6.4050722515082257E-011
  0.24890000000000001          6.4912165469615005E-011
  0.24974999999999997          6.2643259815397015E-011
  0.25059999999999999          5.6725252761176143E-011
  0.25145000000000001          4.6687876393967370E-011
  0.25229999999999997          3.2133354642230350E-011
  0.25314999999999999          1.2761423674008829E-011
  0.25400000000000000         -1.1605188708737358E-011
  0.25484999999999997         -4.0995440507089961E-011
  0.25569999999999998         -7.5265304986571924E-011
  0.25655000000000000         -1.1407431610507638E-010
  0.25739999999999996         -1.5686374157021393E-010
  0.25824999999999998         -2.0283664818811904E-010
  0.25910000000000000         -2.5094011383178705E-010
  0.25994999999999996         -2.9984945344412549E-010
  0.26079999999999998         -3.4795418924702749E-010
  0.26164999999999999         -3.9334549529787186E-010
  0.26249999999999996         -4.3380392781204175E-010
  0.26334999999999997         -4.6678666338168041E-010
  0.26419999999999999         -4.8941251768782993E-010
  0.26505000000000001         -4.9844348864110337E-010
  0.26589999999999997         -4.9026012742458090E-010
  0.26674999999999999         -4.6082862694525203E-010
  0.26760000000000000         -4.0565719287613234E-010
  0.26844999999999997         -3.1973764976819302E-010
  0.26929999999999998         -1.9746992664184466E-010
  0.27015000000000000         -3.2565039391895126E-011
  0.27099999999999996          1.8207736386785237E-010
  0.27184999999999998          4.5452068518592420E-010
  0.27270000000000000          7.9397743123472145E-010
  0.27354999999999996          1.2110334854929560E-009
  0.27439999999999998          1.7179165323145773E-009
  0.27524999999999999          2.3288128696959691E-009
  0.27609999999999996          3.0602394366790636E-009
  0.27694999999999997          3.9314770368136868E-009
  0.27779999999999999          4.9650672867864002E-009
  0.27865000000000001          6.1873876591180811E-009
  0.27949999999999997          7.6293016731687427E-009
  0.28034999999999999          9.3269018422173263E-009
  0.28120000000000001          1.1322340812925316E-008
  0.28204999999999997          1.3664775148951023E-008
  0.28289999999999998          1.6411417140690086E-008
  0.28375000000000000          1.9628711814073367E-008
  0.28459999999999996          2.3393644543850193E-008
  0.28544999999999998          2.7795199258775102E-008
  0.28630000000000000          3.2935971782389006E-008
  0.28714999999999996          3.8933952428476680E-008
  0.28799999999999998          4.5924505913027204E-008
  0.28885000000000000          5.4062519932950597E-008
  0.28969999999999996          6.3524799785382468E-008
  0.29054999999999997          7.4512665092064305E-008
  0.29139999999999999          8.7254791626601734E-008
  0.29224999999999995          1.0201031122405151E-007
  0.29309999999999997          1.1907213345529723E-007
  0.29394999999999999          1.3877062120774975E-007
  0.29480000000000001          1.6147746093377212E-007
  0.29564999999999997          1.8760984135162638E-007
  0.29649999999999999          2.1763495288244018E-007
  0.29735000000000000          2.5207469983518497E-007
  0.29819999999999997          2.9151074468348920E-007
  0.29904999999999998          3.3658976849872159E-007
  0.29990000000000000          3.8802889370482969E-007
  0.30074999999999996          4.4662139942373025E-007
  0.30159999999999998          5.1324249001815042E-007
  0.30245000000000000          5.8885518323913110E-007
  0.30329999999999996          6.7451620209488058E-007
  0.30414999999999998          7.7138183781808306E-007
  0.30499999999999999          8.8071351273214371E-007
  0.30584999999999996          1.0038833431683182E-006
  0.30669999999999997          1.1423791486242044E-006
  0.30754999999999999          1.2978086702954095E-006
  0.30840000000000001          1.4719038498990562E-006
  0.30924999999999997          1.6665233045821055E-006
  0.31009999999999999          1.8836543972290851E-006
  0.31095000000000000          2.1254137323230129E-006
  0.31179999999999997          2.3940468114141720E-006
  0.31264999999999998          2.6919251315068139E-006
  0.31350000000000000          3.0215424639801520E-006
  0.31434999999999996          3.3855073762774555E-006
  0.31519999999999998          3.7865353661735671E-006
  0.31605000000000000          4.2274367499767998E-006
  0.31689999999999996          4.7111026332612811E-006
  0.31774999999999998          5.2404869840486649E-006
  0.31859999999999999          5.8185869516288790E-006
  0.31944999999999996          6.4484173945399955E-006
  0.32029999999999997          7.1329836526075942E-006
  0.32114999999999999          7.8752515875427927E-006
  0.32199999999999995          8.6781088100179626E-006
  0.32284999999999997          9.5443269263342730E-006
  0.32369999999999999          1.0476517525207733E-005
  0.32455000000000001          1.1477086255964094E-005
  0.32539999999999997          1.2548178313893520E-005
  0.32624999999999998          1.3691627928457171E-005
  0.32710000000000000          1.4908893929720964E-005
  0.32794999999999996          1.6201005809616571E-005
  0.32879999999999998          1.7568491675424501E-005
  0.32965000000000000          1.9011320341483142E-005
  0.33049999999999996          2.0528827191401927E-005
  0.33134999999999998          2.2119644969086083E-005
  0.33220000000000000          2.3781644090482292E-005
  0.33304999999999996          2.5511853124500494E-005
  0.33389999999999997          2.7306402346664611E-005
  0.33474999999999999          2.9160454257628012E-005
  0.33559999999999995          3.1068145695579822E-005
  0.33644999999999997          3.3022536428693305E-005
  0.33729999999999999          3.5015559993602544E-005
  0.33815000000000001          3.7037974952318820E-005
  0.33899999999999997          3.9079348592461018E-005
  0.33984999999999999          4.1128022177920934E-005
  0.34070000000000000          4.3171107712812137E-005
  0.34154999999999996          4.5194492621295564E-005
  0.34239999999999998          4.7182851040848900E-005
  0.34325000000000000          4.9119682396582087E-005
  0.34409999999999996          5.0987354762403866E-005
  0.34494999999999998          5.2767171020597970E-005
  0.34580000000000000          5.4439449685574895E-005
  0.34664999999999996          5.5983634325273198E-005
  0.34749999999999998          5.7378396156721216E-005