 -0.12000000000000000          0.0000000000000000     
 -0.11914999999999999          0.0000000000000000     
 -0.11830000000000000          0.0000000000000000     
 -0.11745000000000000          0.0000000000000000     
 -0.11660000000000000          0.0000000000000000     
 -0.11574999999999999          0.0000000000000000     
 -0.11490000000000000          0.0000000000000000     
 -0.11405000000000000          0.0000000000000000     
 -0.11320000000000000          0.0000000000000000     
 -0.11234999999999999          0.0000000000000000     
 -0.11150000000000000          0.0000000000000000     
 -0.11065000000000000          2.0083654123690312E-037
 -0.10979999999999999          2.0103677603626902E-036
 -0.10894999999999999          1.3610875255693166E-035
 -0.10810000000000000          7.0316493363923640E-035
 -0.10725000000000000          2.9420066145864345E-034
 -0.10639999999999999          1.0328100198916925E-033
 -0.10554999999999999          3.1105490896092224E-033
 -0.10470000000000000          8.1400617542640343E-033
 -0.10385000000000000          1.8585798796333695E-032
 -0.10299999999999999          3.6779044394068211E-032
 -0.10214999999999999          6.1433851773734759E-032
 -0.10130000000000000          7.9842678319672506E-032
 -0.10045000000000000          5.4818289942025082E-032
  -9.9599999999999994E-002    -9.0929520596518035E-032
  -9.8750000000000004E-002    -4.8256501472330334E-031
  -9.7900000000000001E-002    -1.2709274018460084E-030
  -9.7049999999999997E-002    -2.5463704929870292E-030
  -9.6199999999999994E-002    -4.1522065970864241E-030
  -9.5349999999999990E-002    -5.3841986223387032E-030
  -9.4500000000000001E-002    -4.6292902183226672E-030
  -9.3649999999999997E-002     8.8123463715569820E-031
  -9.2799999999999994E-002     1.4864424740867326E-029
  -9.1950000000000004E-002     4.0834070550476174E-029
  -9.1100000000000000E-002     7.9493244249634774E-029
  -9.0249999999999997E-002     1.2443330193003974E-028
  -8.9399999999999993E-002     1.5664622840017025E-028
  -8.8549999999999990E-002     1.3965840347102683E-028
  -8.7700000000000000E-002     1.8817779586054748E-029
  -8.6849999999999997E-002    -2.7009453575712415E-028
  -8.5999999999999993E-002    -7.7717393915249744E-028
  -8.5150000000000003E-002    -1.4957042811507828E-027
  -8.4300000000000000E-002    -2.3022286755637325E-027
  -8.3449999999999996E-002    -2.8915012078484954E-027
  -8.2600000000000007E-002    -2.7328641518890513E-027
  -8.1749999999999989E-002    -1.0898592975663184E-027
  -8.0900000000000000E-002     2.8451566692229517E-027
  -8.0049999999999996E-002     9.6542134812420965E-027
  -7.9199999999999993E-002     1.9216963698136510E-026
  -7.8350000000000003E-002     3.0098352339365863E-026
  -7.7499999999999999E-002     3.8940612987496182E-026
  -7.6649999999999996E-002     4.0115388528418600E-026
  -7.5800000000000006E-002     2.5997508950503441E-026
  -7.4949999999999989E-002    -1.1732608648241470E-026
  -7.4099999999999999E-002    -7.9427719739873478E-026
  -7.3249999999999996E-002    -1.7738485107983781E-025
  -7.2399999999999992E-002    -2.9474061195970142E-025
  -7.1550000000000002E-002    -4.0444465777397530E-025
  -7.0699999999999999E-002    -4.6018322691701005E-025
  -6.9849999999999995E-002    -3.9779716680107452E-025
  -6.9000000000000006E-002    -1.4399345193862622E-025
  -6.8149999999999988E-002     3.6537088258255442E-025
  -6.7299999999999999E-002     1.1567764795023993E-024
  -6.6449999999999995E-002     2.1825713285286795E-024
  -6.5599999999999992E-002     3.2829118272103269E-024
  -6.4750000000000002E-002     4.1572126419641269E-024
  -6.3899999999999998E-002     4.3604758445292051E-024
  -6.3049999999999995E-002     3.3420993929949109E-024
  -6.2199999999999998E-002     5.4306564086146316E-025
  -6.1350000000000002E-002    -4.4400918787638429E-024
  -6.0499999999999998E-002    -1.1630687545534462E-023
  -5.9650000000000002E-002    -2.0414238846780988E-023
  -5.8799999999999998E-002    -2.9301763336199840E-023
  -5.7950000000000002E-002    -3.5794590438823671E-023
  -5.7099999999999998E-002    -3.6450764595153288E-023
  -5.6249999999999994E-002    -2.7256349230458012E-023
  -5.5400000000000005E-002    -4.3817550309478959E-024
  -5.4550000000000001E-002     3.4655214933512345E-023
  -5.3699999999999998E-002     8.9494621347742436E-023
  -5.2849999999999994E-002     1.5531408662621927E-022
  -5.2000000000000005E-002     2.2143870783125301E-022
  -5.1150000000000001E-002     2.7067588779499013E-022
  -5.0299999999999997E-002     2.7995647202579511E-022
  -4.9449999999999994E-002     2.2284963239580489E-022
  -4.8600000000000004E-002     7.4350853093661396E-023
  -4.7750000000000001E-002    -1.8201289076762655E-022
  -4.6899999999999997E-002    -5.4527003562445763E-022
  -4.6049999999999994E-002    -9.8750966624034953E-022
  -4.5200000000000004E-002    -1.4458179152330000E-021
  -4.4350000000000001E-002    -1.8183536328773495E-021
  -4.3499999999999997E-002    -1.9676790287540893E-021
  -4.2649999999999993E-002    -1.7343115125888327E-021
  -4.1800000000000004E-002    -9.6254915991051624E-022
  -4.0950000000000000E-002     4.6121269624436614E-022
  -4.0099999999999997E-002     2.5602671136259982E-021
  -3.9249999999999993E-002     5.2156092873884630E-021
  -3.8400000000000004E-002     8.1201379543226659E-021
  -3.7550000000000000E-002     1.0752413113416730E-020
  -3.6699999999999997E-002     1.2385308644104095E-020
  -3.5850000000000007E-002     1.2144423307060536E-020
  -3.5000000000000003E-002     9.1270444879408110E-021
  -3.4150000000000000E-002     2.5843450391830324E-021
  -3.3299999999999996E-002    -7.8430630712468355E-021
  -3.2450000000000007E-002    -2.1861968669876341E-020
  -3.1600000000000003E-002    -3.8278969862363049E-020
  -3.0750000000000000E-002    -5.4827678937771771E-020
  -2.9899999999999996E-002    -6.8140382646302971E-020
  -2.9050000000000006E-002    -7.3934319757912883E-020
  -2.8200000000000003E-002    -6.7469105423622556E-020
  -2.7349999999999999E-002    -4.4300565508565503E-020
  -2.6499999999999996E-002    -1.3070023603010988E-021
  -2.5650000000000006E-002     6.2100516932056724E-020
  -2.4800000000000003E-002     1.4274629240333929E-019
  -2.3949999999999999E-002     2.3267020847202715E-019
  -2.3099999999999996E-002     3.1860740001670220E-019
  -2.2250000000000006E-002     3.8227475160272335E-019
  -2.1400000000000002E-002     4.0173837628521725E-019
  -2.0549999999999999E-002     3.5403939650952907E-019
  -1.9699999999999995E-002     2.1908548815926291E-019
  -1.8850000000000006E-002    -1.5418380482461684E-020
  -1.8000000000000002E-002    -3.4850945305968916E-019
  -1.7149999999999999E-002    -7.6077704947765824E-019
  -1.6299999999999995E-002    -1.2104953620328966E-018
  -1.5450000000000005E-002    -1.6322848779860624E-018
  -1.4600000000000002E-002    -1.9394985167346483E-018
  -1.3749999999999998E-002    -2.0312981694026535E-018
  -1.2899999999999995E-002    -1.8049101986732693E-018
  -1.2050000000000005E-002    -1.1728096437078292E-018
  -1.1200000000000002E-002    -8.3640024793478979E-020
  -1.0349999999999998E-002     1.4553846421585124E-018
  -9.5000000000000084E-003     3.3578916702575997E-018
  -8.6500000000000049E-003     5.4436945115214539E-018
  -7.8000000000000014E-003     7.4346006563194685E-018
  -6.9499999999999978E-003     8.9649953003711424E-018
  -6.1000000000000082E-003     9.6105349152858541E-018
  -5.2500000000000047E-003     8.9364201449476762E-018
  -4.4000000000000011E-003     6.5640316587766189E-018
  -3.5499999999999976E-003     2.2513887014230262E-018
  -2.7000000000000079E-003    -4.0208138690116353E-018
  -1.8500000000000044E-003    -1.1969330827306372E-017
  -1.0000000000000009E-003    -2.0949180328815344E-017
  -1.4999999999999736E-004    -2.9931021609726010E-017
   6.9999999999999230E-004    -3.7530389780297524E-017
   1.5499999999999958E-003    -4.2100825105628311E-017
   2.3999999999999994E-003    -4.1897023531355312E-017
   3.2500000000000029E-003    -3.5305488289245179E-017
   4.0999999999999925E-003    -2.1129178008669577E-017
   4.9499999999999961E-003     1.0993120773111285E-018
   5.7999999999999996E-003     3.0813556208587393E-017
   6.6499999999999893E-003     6.6165379087189465E-017
   7.5000000000000067E-003     1.0388653288144504E-016
   8.3499999999999963E-003     1.3931306417249096E-016
   9.1999999999999860E-003     1.6661769597515450E-016
   1.0050000000000003E-002     1.7927895304656446E-016
   1.0899999999999993E-002     1.7079056666112064E-016
   1.1750000000000010E-002     1.3558133985307178E-016
   1.2600000000000000E-002     7.0078012247870894E-017
   1.3449999999999990E-002    -2.6196014117546617E-017
   1.4300000000000007E-002    -1.4962782981585021E-016
   1.5149999999999997E-002    -2.9179527485750233E-016
   1.5999999999999986E-002    -4.3919609632174476E-016
   1.6850000000000004E-002    -5.7358864239541575E-016
   1.7699999999999994E-002    -6.7306787364387010E-016
   1.8549999999999983E-002    -7.1393504818547874E-016
   1.9400000000000001E-002    -6.7332715951010550E-016
   2.0249999999999990E-002    -5.3246358922227872E-016
   2.1100000000000008E-002    -2.8024519297296061E-016
   2.1949999999999997E-002     8.3171291792472422E-017
   2.2799999999999987E-002     5.4329711514797857E-016
   2.3650000000000004E-002     1.0692615163566026E-015
   2.4499999999999994E-002     1.6133169142075566E-015
   2.5349999999999984E-002     2.1123569207818259E-015
   2.6200000000000001E-002     2.4917653568015429E-015
   2.7049999999999991E-002     2.6716879300174119E-015
   2.7900000000000008E-002     2.5755403381112003E-015
   2.8749999999999998E-002     2.1402366105958527E-015
   2.9599999999999987E-002     1.3272890466556128E-015
   3.0450000000000005E-002     1.3362492228538831E-016
   3.1299999999999994E-002    -1.3992620410547869E-015
   3.2149999999999984E-002    -3.1793144663834616E-015
   3.3000000000000002E-002    -5.0625032678065170E-015
   3.3849999999999991E-002    -6.8572055617621828E-015
   3.4700000000000009E-002    -8.3351228907737952E-015
   3.5549999999999998E-002    -9.2489020073099454E-015
   3.6399999999999988E-002    -9.3558274267295587E-015
   3.7250000000000005E-002    -8.4461825289052337E-015
   3.8099999999999995E-002    -6.3739963715102589E-015
   3.8949999999999985E-002    -3.0872434946156680E-015
   3.9800000000000002E-002     1.3459804087002603E-015
   4.0649999999999992E-002     6.7189412317768540E-015
   4.1500000000000009E-002     1.2678883405767970E-014
   4.2349999999999999E-002     1.8733653223447822E-014
   4.3199999999999988E-002     2.4274199412850912E-014
   4.4050000000000006E-002     2.8613468274026901E-014
   4.4899999999999995E-002     3.1040576725382451E-014
   4.5749999999999985E-002     3.0887451389906247E-014
   4.6600000000000003E-002     2.7603377207523450E-014
   4.7449999999999992E-002     2.0831499261485819E-014
   4.8299999999999982E-002     1.0480221869004997E-014
   4.9149999999999999E-002    -3.2180464858828933E-015
   4.9999999999999989E-002    -1.9668225564009361E-014
   5.0850000000000006E-002    -3.7900567953348729E-014
   5.1699999999999996E-002    -5.6590367106358271E-014
   5.2549999999999986E-002    -7.4112410222545645E-014
   5.3400000000000003E-002    -8.8630488243871727E-014
   5.4249999999999993E-002    -9.8219567612237617E-014
   5.5099999999999982E-002    -1.0101520528892505E-013
   5.5950000000000000E-002    -9.5382090596605287E-014
   5.6799999999999989E-002    -8.0091154733853341E-014
   5.7650000000000007E-002    -5.4492896921158798E-014
   5.8499999999999996E-002    -1.8673151186928762E-014
   5.9349999999999986E-002     2.6422609784039532E-014
   6.0200000000000004E-002     7.8910161492850864E-014
   6.1049999999999993E-002     1.3594491238968350E-013
   6.1899999999999983E-002     1.9376810060101659E-013
   6.2750000000000000E-002     2.4782816447578987E-013
   6.3599999999999990E-002     2.9298117484921009E-013
   6.4450000000000007E-002     3.2376933391669515E-013
   6.5299999999999997E-002     3.3477239442553894E-013
   6.6149999999999987E-002     3.2102048797938757E-013
   6.7000000000000004E-002     2.7845163444627579E-013
   6.7849999999999994E-002     2.0439101707305093E-013
   6.8699999999999983E-002     9.8022960162634687E-014
   6.9550000000000001E-002    -3.9178233161079174E-014
   7.0399999999999990E-002    -2.0309693524416665E-013
   7.1249999999999980E-002    -3.8674538297495320E-013
   7.2099999999999997E-002    -5.8019444327232230E-013
   7.2949999999999987E-002    -7.7070443561848407E-013
   7.3800000000000004E-002    -9.4308867509836888E-013
   7.4649999999999994E-002    -1.0803314049641646E-012
   7.5499999999999984E-002    -1.1644698113155457E-012
   7.6350000000000001E-002    -1.1777284534729275E-012
   7.7199999999999991E-002    -1.1038771612186018E-012
   7.8049999999999981E-002    -9.2975709025854657E-013
   7.8899999999999998E-002    -6.4689700617206093E-013
   7.9749999999999988E-002    -2.5311661855340032E-013
   8.0600000000000005E-002     2.4600224014054029E-013
   8.1449999999999995E-002     8.3591555446624922E-013
   8.2299999999999984E-002     1.4923307533000847E-012
   8.3150000000000002E-002     2.1809735759898991E-012
   8.3999999999999991E-002     2.8580398458078629E-012
   8.4849999999999981E-002     3.4714279565040766E-012
   8.5699999999999998E-002     3.9628184772439901E-012
   8.6549999999999988E-002     4.2706169445149436E-012
   8.7400000000000005E-002     4.3337093546904987E-012
   8.8249999999999995E-002     4.0959211725514606E-012
   8.9099999999999985E-002     3.5109986776024895E-012
   8.9950000000000002E-002     2.5478570918507111E-012
   9.0799999999999992E-002     1.1957797749441757E-012
   9.1649999999999981E-002    -5.3080011154734096E-013
   9.2499999999999999E-002    -2.5883433471994663E-012
   9.3349999999999989E-002    -4.9014954298177037E-012
   9.4200000000000006E-002    -7.3620412217897564E-012
   9.5049999999999996E-002    -9.8298933844055805E-012
   9.5899999999999985E-002    -1.2136414161865062E-011
   9.6750000000000003E-002    -1.4090288951569007E-011
   9.7599999999999992E-002    -1.5486001678460545E-011
   9.8449999999999982E-002    -1.6114828815647057E-011
   9.9299999999999999E-002    -1.5778090822237477E-011
  0.10014999999999999         -1.4302199025035372E-011
  0.10099999999999998         -1.1554835052780980E-011
  0.10185000000000000         -7.4614540180529246E-012
  0.10269999999999999         -2.0210894918493552E-012
  0.10355000000000000          4.6796586401380089E-012
  0.10439999999999999          1.2455635727838517E-011
  0.10524999999999998          2.1016378266558344E-011
  0.10610000000000000          2.9964752681121373E-011
  0.10694999999999999          3.8802002611715744E-011
  0.10779999999999998          4.6940063217583746E-011
  0.10865000000000000          5.3721573478457907E-011
  0.10949999999999999          5.8447837967708415E-011
  0.11035000000000000          6.0414331972603411E-011
  0.11119999999999999          5.8952966623876582E-011
  0.11204999999999998          5.3479725212962323E-011
  0.11290000000000000          4.3545843097840712E-011
  0.11374999999999999          2.8889991830344466E-011
  0.11459999999999998          9.4886013777961053E-012
  0.11545000000000000         -1.4398968769869057E-011
  0.11629999999999999         -4.2193960501143442E-011
  0.11715000000000000         -7.2974144387912160E-011
  0.11799999999999999         -1.0546559371889407E-010
  0.11884999999999998         -1.3805349682594610E-010
  0.11970000000000000         -1.6881479683081738E-010
  0.12054999999999999         -1.9557427606466323E-010
  0.12139999999999998         -2.1598496940865471E-010
  0.12225000000000000         -2.2763244006369754E-010
  0.12309999999999999         -2.2816101338037999E-010
  0.12395000000000000         -2.1541848731435668E-010
  0.12479999999999999         -1.8761456028055214E-010
  0.12564999999999998         -1.4348606482972222E-010
  0.12650000000000000         -8.2461268922100855E-011
  0.12734999999999999         -4.8141442992993509E-012
  0.12819999999999998          8.8201723803412827E-011
  0.12905000000000000          1.9424983353823291E-010
  0.12989999999999999          3.0984905243278639E-010
  0.13074999999999998          4.3036307762768469E-010
  0.13159999999999999          5.5004986960846131E-010
  0.13245000000000001          6.6217908234979339E-010
  0.13329999999999997          7.5922098512142839E-010
  0.13414999999999999          8.3310880723321372E-010
  0.13500000000000001          8.7557342827902994E-010
  0.13584999999999997          8.7854352075224851E-010
  0.13669999999999999          8.3460184399953853E-010
  0.13755000000000001          7.3748282115899581E-010
  0.13839999999999997          5.8259300750743528E-010
  0.13924999999999998          3.6753190840450126E-010
  0.14010000000000000          9.2586186501143648E-011
  0.14094999999999996         -2.3883066986388038E-010
  0.14179999999999998         -6.1982368048205469E-010
  0.14265000000000000         -1.0397774562907490E-009
  0.14350000000000002         -1.4842638648879217E-009
  0.14434999999999998         -1.9351218164671870E-009
  0.14520000000000000         -2.3707333661729315E-009
  0.14605000000000001         -2.7665102015537565E-009
  0.14689999999999998         -3.0956049936557033E-009
  0.14774999999999999         -3.3298399505328120E-009
  0.14860000000000001         -3.4408473122960830E-009
  0.14944999999999997         -3.4013970192954694E-009
  0.15029999999999999         -3.1868779176272154E-009
  0.15115000000000001         -2.7768834254897872E-009
  0.15199999999999997         -2.1568466942466113E-009
  0.15284999999999999         -1.3196547984715013E-009
  0.15370000000000000         -2.6716181832586417E-010
  0.15454999999999997          9.8847871365641099E-010
  0.15539999999999998          2.4237512741637820E-009
  0.15625000000000000          4.0030737060090815E-009
  0.15709999999999996          5.6785287002150085E-009
  0.15794999999999998          7.3901152426822208E-009
  0.15880000000000000          9.0665686404661810E-009
  0.15965000000000001          1.0626798943066209E-008
  0.16049999999999998          1.1981974474853042E-008
  0.16134999999999999          1.3038235626610244E-008
  0.16220000000000001          1.3700020479495018E-008
  0.16304999999999997          1.3873939329635722E-008
  0.16389999999999999          1.3473095684606086E-008
  0.16475000000000001          1.2421752266461693E-008
  0.16559999999999997          1.0660174754791245E-008
  0.16644999999999999          8.1494819136755674E-009
  0.16730000000000000          4.8763070903018173E-009
  0.16814999999999997          8.5706107384237383E-010
  0.16899999999999998         -3.8584295306416817E-009
  0.16985000000000000         -9.1841290235705739E-009
  0.17069999999999996         -1.4996062403584317E-008
  0.17154999999999998         -2.1131827628599735E-008
  0.17240000000000000         -2.7391522208963476E-008
  0.17325000000000002         -3.3540244917480895E-008
  0.17409999999999998         -3.9312234080265904E-008
  0.17494999999999999         -4.4416607333673804E-008
  0.17580000000000001         -4.8544829784114100E-008
  0.17664999999999997         -5.1379707325046429E-008
  0.17749999999999999         -5.2605747552783995E-008
  0.17835000000000001         -5.1920729814231492E-008
  0.17919999999999997         -4.9048196364966697E-008
  0.18004999999999999         -4.3750520942744161E-008
  0.18090000000000001         -3.5842146782521103E-008
  0.18174999999999997         -2.5202618736182018E-008
  0.18259999999999998         -1.1788977532049859E-008
  0.18345000000000000          4.3528584856748495E-009
  0.18429999999999996          2.3078343485575736E-008
  0.18514999999999998          4.4136490513302598E-008
  0.18600000000000000          6.7164002366464185E-008
  0.18684999999999996          9.1682041958124365E-008
  0.18769999999999998          1.1709567533409520E-007
  0.18855000000000000          1.4269607150360764E-007
  0.18940000000000001          1.6766537640372478E-007
  0.19024999999999997          1.9108367082235804E-007
  0.19109999999999999          2.1193851935834079E-007
  0.19195000000000001          2.2913561251961285E-007
  0.19279999999999997          2.4151023785370705E-007
  0.19364999999999999          2.4783936638104143E-007
  0.19450000000000001          2.4685280604440467E-007
  0.19534999999999997          2.3724248624979869E-007
  0.19619999999999999          2.1766872454849904E-007
  0.19705000000000000          1.8676101698554771E-007
  0.19789999999999996          1.4311476767433145E-007
  0.19874999999999998          8.5279977161437335E-008
  0.19960000000000000          1.1742391913611473E-008
  0.20044999999999996         -7.9105799371605351E-008
  0.20129999999999998         -1.8900738264212266E-007
  0.20215000000000000         -3.1989388638306361E-007
  0.20300000000000001         -4.7395075201542162E-007
  0.20384999999999998         -6.5370200056284390E-007
  0.20469999999999999         -8.6210950979254951E-007
  0.20555000000000001         -1.1026889398221516E-006
  0.20639999999999997         -1.3796506970370864E-006
  0.20724999999999999         -1.6980535308758631E-006
  0.20810000000000001         -2.0639876678301544E-006
  0.20894999999999997         -2.4847774623606396E-006
  0.20979999999999999         -2.9692065712478746E-006
  0.21065000000000000         -3.5277799989140688E-006
  0.21149999999999997         -4.1730042830390203E-006
  0.21234999999999998         -4.9197122795142784E-006
  0.21320000000000000         -5.7854102305307447E-006
  0.21404999999999996         -6.7906682535148893E-006
  0.21489999999999998         -7.9595542070381406E-006
  0.21575000000000000         -9.3201122945793687E-006
  0.21659999999999996         -1.0904881249820854E-005
  0.21744999999999998         -1.2751482076218571E-005
  0.21829999999999999         -1.4903269362336909E-005
  0.21915000000000001         -1.7410022946544063E-005
  0.21999999999999997         -2.0328728645729703E-005
  0.22084999999999999         -2.3724438224970016E-005
  0.22170000000000001         -2.7671224914537542E-005
  0.22254999999999997         -3.2253197172958127E-005
  0.22339999999999999         -3.7565596111418078E-005
  0.22425000000000000         -4.3716042936789825E-005
  0.22509999999999997         -5.0825772283451926E-005
  0.22594999999999998         -5.9031074974080029E-005
  0.22680000000000000         -6.8484788978457603E-005
  0.22764999999999996         -7.9357850574414890E-005
  0.22849999999999998         -9.1840887435196117E-005
  0.22935000000000000         -1.0614587458075632E-004
  0.23019999999999996         -1.2250794082379929E-004
  0.23104999999999998         -1.4118702494922203E-004
  0.23190000000000000         -1.6246978816720592E-004
  0.23275000000000001         -1.8667121626311247E-004
  0.23359999999999997         -2.1413605880723813E-004
  0.23444999999999999         -2.4524039912412836E-004
  0.23530000000000001         -2.8039322251387959E-004
  0.23614999999999997         -3.2003732467455895E-004
  0.23699999999999999         -3.6464983552709097E-004
  0.23785000000000001         -4.1474290969722646E-004
  0.23869999999999997         -4.7086336716200107E-004
  0.23954999999999999         -5.3359212530047426E-004
  0.24040000000000000         -6.0354316750219419E-004
  0.24124999999999996         -6.8136148629117325E-004
  0.24209999999999998         -7.6772031428877768E-004
  0.24295000000000000         -8.6331775938744935E-004
  0.24379999999999996         -9.6887195615790941E-004
  0.24464999999999998         -1.0851158409802414E-003
  0.24550000000000000         -1.2127895454609287E-003
  0.24634999999999996         -1.3526335805340919E-003
  0.24719999999999998         -1.5053783721551920E-003
  0.24804999999999999         -1.6717343038922979E-003
  0.24890000000000001         -1.8523792613625526E-003
  0.24974999999999997         -2.0479465174347358E-003
  0.25059999999999999         -2.2590098948243667E-003
  0.25145000000000001         -2.4860657700853939E-003
  0.25229999999999997         -2.7295170936008362E-003
  0.25314999999999999         -2.9896533043614823E-003
  0.25400000000000000         -3.2666322846707126E-003
  0.25484999999999997         -3.5604584616815566E-003
  0.25569999999999998         -3.8709598771699133E-003
  0.25655000000000000         -4.1977677008475656E-003
  0.25739999999999996         -4.5402927877712593E-003
  0.25824999999999998         -4.8977038815179730E-003
  0.25910000000000000         -5.2689032056742607E-003
  0.25994999999999996         -5.6525081677195194E-003
  0.26079999999999998         -6.0468239766468396E-003
  0.26164999999999999         -6.4498290371395317E-003
  0.26249999999999996         -6.8591554118056577E-003
  0.26334999999999997         -7.2720775297194229E-003
  0.26419999999999999         -7.6854958597184914E-003
  0.26505000000000001         -8.0959267181720113E-003
  0.26589999999999997         -8.4995021059446896E-003
  0.26674999999999999         -8.8919670265159845E-003
  0.26760000000000000         -9.2686817582748049E-003
  0.26844999999999997         -9.6246387128236799E-003
  0.26929999999999998         -9.9544677894743278E-003
  0.27015000000000000         -1.0252466116561013E-002
  0.27099999999999996         -1.0512619523264780E-002
  0.27184999999999998         -1.0728647564265448E-002
  0.27270000000000000         -1.0894042515066482E-002
  0.27354999999999996         -1.1002116463444137E-002
  0.27439999999999998         -1.1046063906671427E-002
  0.27524999999999999         -1.1019021534895229E-002
  0.27609999999999996         -1.0914137794459017E-002
  0.27694999999999997         -1.0724649479879486E-002
  0.27779999999999999         -1.0443977152635592E-002
  0.27865000000000001         -1.0065811238509817E-002
  0.27949999999999997         -9.5841945952638147E-003
  0.28034999999999999         -8.9936335513427224E-003
  0.28120000000000001         -8.2892034853999930E-003
  0.28204999999999997         -7.4666386833555504E-003
  0.28289999999999998         -6.5224411805913235E-003
  0.28375000000000000         -5.4539838577831040E-003
  0.28459999999999996         -4.2596143226905983E-003
  0.28544999999999998         -2.9387496816575855E-003
  0.28630000000000000         -1.4919627311845377E-003
  0.28714999999999996          7.8939237024190298E-005
  0.28799999999999998          1.7708233075261759E-003
  0.28885000000000000          3.5791677892944226E-003
  0.28969999999999996          5.4980261104171507E-003
  0.29054999999999997          7.5199814318653371E-003
  0.29139999999999999          9.6361208515436669E-003
  0.29224999999999995          1.1836027283761250E-002
  0.29309999999999997          1.4107794014932271E-002
  0.29394999999999999          1.6438054167423832E-002
  0.29480000000000001          1.8812027509552076E-002
  0.29564999999999997          2.1213591774983886E-002
  0.29649999999999999          2.3625371415192886E-002
  0.29735000000000000          2.6028843736959267E-002
  0.29819999999999997          2.8404488225992730E-002
  0.29904999999999998          3.0731919536009483E-002
  0.29990000000000000          3.2990054169252492E-002
  0.30074999999999996          3.5157310008362808E-002
  0.30159999999999998          3.7211792562913404E-002
  0.30245000000000000          3.9131518300611956E-002
  0.30329999999999996          4.0894657252280142E-002
  0.30414999999999998          4.2479760043141468E-002
  0.30499999999999999          4.3865980535631677E-002
  0.30584999999999996          4.5033351825649270E-002
  0.30669999999999997          4.5963020593506210E-002
  0.30754999999999999          4.6637503512262701E-002
  0.30840000000000001          4.7040916009491895E-002
  0.30924999999999997          4.7159207252884583E-002
  0.31009999999999999          4.6980381193589382E-002
  0.31095000000000000          4.6494705038754636E-002
  0.31179999999999997          4.5694896607829827E-002
  0.31264999999999998          4.4576257771848649E-002
  0.31350000000000000          4.3136846042033494E-002
  0.31434999999999996          4.1377563715572163E-002
  0.31519999999999998          3.9302243321055752E-002
  0.31605000000000000          3.6917682990722178E-002
  0.31689999999999996          3.4233678035662907E-002
  0.31774999999999998          3.1262993498335445E-002
  0.31859999999999999          2.8021302445608048E-002
  0.31944999999999996          2.4527099259687574E-002
  0.32029999999999997          2.0801601535779674E-002
  0.32114999999999999          1.6868561972224277E-002
  0.32199999999999995          1.2754063563267179E-002
  0.32284999999999997          8.4863130340141341E-003
  0.32369999999999999          4.0954019918188825E-003
  0.32455000000000001         -3.8698512953318491E-004
  0.32539999999999997         -4.9278811612626441E-003
  0.32624999999999998         -9.4933386651156332E-003
  0.32710000000000000         -1.4048782891762285E-002
  0.32794999999999996         -1.8559348997718411E-002
  0.32879999999999998         -2.2990231270524852E-002
  0.32965000000000000         -2.7307054019806098E-002
  0.33049999999999996         -3.1476219502722669E-002
  0.33134999999999998         -3.5465265046008498E-002
  0.33220000000000000         -3.9243166772360838E-002
  0.33304999999999996         -4.2780693578316431E-002
  0.33389999999999997         -4.6050716150352167E-002
  0.33474999999999999         -4.9028461314166050E-002
  0.33559999999999995         -5.1691802093834172E-002
  0.33644999999999997         -5.4021456195246231E-002
  0.33729999999999999         -5.6001181665806588E-002
  0.33815000000000001         -5.7617927336135411E-002
  0.33899999999999997         -5.8861953154469626E-002
  0.33984999999999999         -5.9726911468098554E-002
  0.34070000000000000         -6.0209881380239971E-002
  0.34154999999999996         -6.0311379366302709E-002
  0.34239999999999998         -6.0035304944276280E-002