 -0.12000000000000000         -3.5100115428771585E-009
 -0.11914999999999999         -1.0284976119240826E-008
 -0.11830000000000000         -1.5729505014101239E-008
 -0.11745000000000000         -1.8321838073982470E-008
 -0.11660000000000000         -1.6992072794830900E-008
 -0.11574999999999999         -1.1348618264786943E-008
 -0.11490000000000000         -1.8044416455794907E-009
 -0.11405000000000000          1.0422363089995640E-008
 -0.11320000000000000          2.3442506396744619E-008
 -0.11234999999999999          3.4952996331348603E-008
 -0.11150000000000000          4.2587993380379738E-008
 -0.11065000000000000          4.4315950776231616E-008
 -0.10979999999999999          3.8824157451567906E-008
 -0.10894999999999999          2.5828242914857667E-008
 -0.10810000000000000          6.2495462020702451E-009
 -0.10725000000000000         -1.7782490396807974E-008
 -0.10639999999999999         -4.3122193417931985E-008
 -0.10554999999999999         -6.5984396867205974E-008
 -0.10470000000000000         -8.2465906304983366E-008
 -0.10385000000000000         -8.9143927854019931E-008
 -0.10299999999999999         -8.3662851055518048E-008
 -0.10214999999999999         -6.5215445515320437E-008
 -0.10130000000000000         -3.4827678243672369E-008
 -0.10045000000000000          4.6168102369575728E-009
  -9.9599999999999994E-002     4.8641279213940549E-008
  -9.8750000000000004E-002     9.1717065539083330E-008
  -9.7900000000000001E-002     1.2801390066746117E-007
  -9.7049999999999997E-002     1.5226062011499255E-007
  -9.6199999999999994E-002     1.6058301317364435E-007
  -9.5349999999999990E-002     1.5118529099394574E-007
  -9.4500000000000001E-002     1.2475441207377696E-007
  -9.3649999999999997E-002     8.4508168200188301E-008
  -9.2799999999999994E-002     3.5862161392897777E-008
  -9.1950000000000004E-002    -1.4244484826861983E-008
  -9.1100000000000000E-002    -5.8270905605561409E-008
  -9.0249999999999997E-002    -8.9087798910007377E-008
  -8.9399999999999993E-002    -1.0093273286255170E-007
  -8.8549999999999990E-002    -9.0142991503835561E-008
  -8.7700000000000000E-002    -5.5561267879621262E-008
  -8.6849999999999997E-002     1.4607789609663210E-009
  -8.5999999999999993E-002     7.7419752386700069E-008
  -8.5150000000000003E-002     1.6733212113139296E-007
  -8.4300000000000000E-002     2.6554334872303124E-007
  -8.3449999999999996E-002     3.6654815040141121E-007
  -8.2600000000000007E-002     4.6568221303748397E-007
  -8.1749999999999989E-002     5.5952298287338270E-007
  -8.0900000000000000E-002     6.4603370286399023E-007
  -8.0049999999999996E-002     7.2444872283741121E-007
  -7.9199999999999993E-002     7.9491142563624842E-007
  -7.8350000000000003E-002     8.5811259874721483E-007
  -7.7499999999999999E-002     9.1497807425741459E-007
  -7.6649999999999996E-002     9.6644178886037810E-007
  -7.5800000000000006E-002     1.0136146482836854E-006
  -7.4949999999999989E-002     1.0579874636468687E-006
  -7.4099999999999999E-002     1.1019221132202358E-006
  -7.3249999999999996E-002     1.1491193403469447E-006
  -7.2399999999999992E-002     1.2048303223574983E-006
  -7.1550000000000002E-002     1.2756559928963107E-006
  -7.0699999999999999E-002     1.3694157222629038E-006
  -6.9849999999999995E-002     1.4942796582484796E-006
  -6.9000000000000006E-002     1.6575067311206376E-006
  -6.8149999999999988E-002     1.8643528440279427E-006
  -6.7299999999999999E-002     2.1168865618578401E-006
  -6.6449999999999995E-002     2.4125610529339802E-006
  -6.5599999999999992E-002     2.7441449076611771E-006
  -6.4750000000000002E-002     3.0996471828363055E-006
  -6.3899999999999998E-002     3.4631148874519660E-006
  -6.3049999999999995E-002     3.8160684329818006E-006
  -6.2199999999999998E-002     4.1387717013457764E-006
  -6.1350000000000002E-002     4.4126646941066789E-006
  -6.0499999999999998E-002     4.6225587183715738E-006
  -5.9650000000000002E-002     4.7578791761403047E-006
  -5.8799999999999998E-002     4.8144188803367870E-006
  -5.7950000000000002E-002     4.7941895174718064E-006
  -5.7099999999999998E-002     4.7054684423878290E-006
  -5.6249999999999994E-002     4.5623228044468841E-006
  -5.5400000000000005E-002     4.3816759121182379E-006
  -5.4550000000000001E-002     4.1808405218315015E-006
  -5.3699999999999998E-002     3.9752630846452165E-006
  -5.2849999999999994E-002     3.7758243045100362E-006
  -5.2000000000000005E-002     3.5875662583050483E-006
  -5.1150000000000001E-002     3.4072068575209972E-006
  -5.0299999999999997E-002     3.2240516710897922E-006
  -4.9449999999999994E-002     3.0203608118734970E-006
  -4.8600000000000004E-002     2.7725145624291851E-006
  -4.7750000000000001E-002     2.4540076097445815E-006
  -4.6899999999999997E-002     2.0395342379685459E-006
  -4.6049999999999994E-002     1.5063190906361521E-006
  -4.5200000000000004E-002     8.3662186915148696E-007
  -4.4350000000000001E-002     2.0528171642154175E-008
  -4.3499999999999997E-002    -9.4498020738629715E-007
  -4.2649999999999993E-002    -2.0546695397238249E-006
  -4.1800000000000004E-002    -3.2977852232937005E-006
  -4.0950000000000000E-002    -4.6601742012531127E-006
  -4.0099999999999997E-002    -6.1256649207365801E-006
  -3.9249999999999993E-002    -7.6820367291175352E-006
  -3.8400000000000004E-002    -9.3158537040974061E-006
  -3.7550000000000000E-002    -1.1013235840540711E-005
  -3.6699999999999997E-002    -1.2761223911745070E-005
  -3.5850000000000007E-002    -1.4545440684615892E-005
  -3.5000000000000003E-002    -1.6350962703707596E-005
  -3.4150000000000000E-002    -1.8161861379565377E-005
  -3.3299999999999996E-002    -1.9952374564627309E-005
  -3.2450000000000007E-002    -2.1694530828887410E-005
  -3.1600000000000003E-002    -2.3359773606477629E-005
  -3.0750000000000000E-002    -2.4916301300754139E-005
  -2.9899999999999996E-002    -2.6334076692042727E-005
  -2.9050000000000006E-002    -2.7590627123813896E-005
  -2.8200000000000003E-002    -2.8671108639093459E-005
  -2.7349999999999999E-002    -2.9561942930849718E-005
  -2.6499999999999996E-002    -3.0252019183924124E-005
  -2.5650000000000006E-002    -3.0733686942205503E-005
  -2.4800000000000003E-002    -3.0996962051543613E-005
  -2.3949999999999999E-002    -3.1036832966617250E-005
  -2.3099999999999996E-002    -3.0849854960170262E-005
  -2.2250000000000006E-002    -3.0413211949875587E-005
  -2.1400000000000002E-002    -2.9704941460444948E-005
  -2.0549999999999999E-002    -2.8698341882561068E-005
  -1.9699999999999995E-002    -2.7362356787140590E-005
  -1.8850000000000006E-002    -2.5658758594203097E-005
  -1.8000000000000002E-002    -2.3550364156551488E-005
  -1.7149999999999999E-002    -2.1007912848831217E-005
  -1.6299999999999995E-002    -1.8001378029772436E-005
  -1.5450000000000005E-002    -1.4530697644920686E-005
  -1.4600000000000002E-002    -1.0607814991667999E-005
  -1.3749999999999998E-002    -6.2595535370866054E-006
  -1.2899999999999995E-002    -1.5170428821441578E-006
  -1.2050000000000005E-002     3.5927283704617792E-006
  -1.1200000000000002E-002     9.0176050978637949E-006
  -1.0349999999999998E-002     1.4696838186513926E-005
  -9.5000000000000084E-003     2.0563967408472258E-005
  -8.6500000000000049E-003     2.6541381873501288E-005
  -7.8000000000000014E-003     3.2570136977065969E-005
  -6.9499999999999978E-003     3.8578293196643663E-005
  -6.1000000000000082E-003     4.4509688394413823E-005
  -5.2500000000000047E-003     5.0306594844734195E-005
  -4.4000000000000011E-003     5.5915877949332723E-005
  -3.5499999999999976E-003     6.1296869555922673E-005
  -2.7000000000000079E-003     6.6382083281037695E-005
  -1.8500000000000044E-003     7.1114503929433823E-005
  -1.0000000000000009E-003     7.5449777540206024E-005
  -1.4999999999999736E-004     7.9298474931715482E-005
   6.9999999999999230E-004     8.2570211529409024E-005
   1.5499999999999958E-003     8.5215472624823423E-005
   2.3999999999999994E-003     8.7155541892179784E-005
   3.2500000000000029E-003     8.8300658642110610E-005
   4.0999999999999925E-003     8.8584163873443519E-005
   4.9499999999999961E-003     8.7961276388640389E-005
   5.7999999999999996E-003     8.6397664267859678E-005
   6.6499999999999893E-003     8.3859220539366647E-005
   7.5000000000000067E-003     8.0340784132281601E-005
   8.3499999999999963E-003     7.5870247357921056E-005
   9.1999999999999860E-003     7.0496925671952905E-005
   1.0050000000000003E-002     6.4233556619067156E-005
   1.0899999999999993E-002     5.7101965260261851E-005
   1.1750000000000010E-002     4.9130686007947157E-005
   1.2600000000000000E-002     4.0362919897524857E-005
   1.3449999999999990E-002     3.0854767094502800E-005
   1.4300000000000007E-002     2.0631106196239424E-005
   1.5149999999999997E-002     9.7608232811543377E-006
   1.5999999999999986E-002    -1.6757374186830015E-006
   1.6850000000000004E-002    -1.3555541239638341E-005
   1.7699999999999994E-002    -2.5774988027501937E-005
   1.8549999999999983E-002    -3.8160587604718979E-005
   1.9400000000000001E-002    -5.0581602088772999E-005
   2.0249999999999990E-002    -6.2902875775695550E-005
   2.1100000000000008E-002    -7.4957289304623722E-005
   2.1949999999999997E-002    -8.6611404346609582E-005
   2.2799999999999987E-002    -9.7712579767616310E-005
   2.3650000000000004E-002    -1.0807885623294626E-004
   2.4499999999999994E-002    -1.1758166958515757E-004
   2.5349999999999984E-002    -1.2609789030837253E-004
   2.6200000000000001E-002    -1.3352403397942289E-004
   2.7049999999999991E-002    -1.3973529332019299E-004
   2.7900000000000008E-002    -1.4460514303904666E-004
   2.8749999999999998E-002    -1.4804824117050329E-004
   2.9599999999999987E-002    -1.4998194324773381E-004
   3.0450000000000005E-002    -1.5031912603667881E-004
   3.1299999999999994E-002    -1.4898034931500048E-004
   3.2149999999999984E-002    -1.4594046505410005E-004
   3.3000000000000002E-002    -1.4120883356556410E-004
   3.3849999999999991E-002    -1.3476934128316739E-004
   3.4700000000000009E-002    -1.2664904099910293E-004
   3.5549999999999998E-002    -1.1691408213522362E-004
   3.6399999999999988E-002    -1.0562618083723835E-004
   3.7250000000000005E-002    -9.2890219690032645E-005
   3.8099999999999995E-002    -7.8888195206846395E-005
   3.8949999999999985E-002    -6.3750563406196267E-005
   3.9800000000000002E-002    -4.7650347944716218E-005
   4.0649999999999992E-002    -3.0789628621054332E-005
   4.1500000000000009E-002    -1.3308818777743592E-005
   4.2349999999999999E-002     4.5693925857757944E-006
   4.3199999999999988E-002     2.2597947202716503E-005
   4.4050000000000006E-002     4.0567323829829305E-005
   4.4899999999999995E-002     5.8288693648244835E-005
   4.5749999999999985E-002     7.5550818837813276E-005
   4.6600000000000003E-002     9.2172061977893044E-005
   4.7449999999999992E-002     1.0792510466374906E-004
   4.8299999999999982E-002     1.2262194208636536E-004
   4.9149999999999999E-002     1.3604203711819985E-004
   4.9999999999999989E-002     1.4797358651759841E-004
   5.0850000000000006E-002     1.5826585376088175E-004
   5.1699999999999996E-002     1.6687770530287964E-004
   5.2549999999999986E-002     1.7368277047552245E-004
   5.3400000000000003E-002     1.7850050101361498E-004
   5.4249999999999993E-002     1.8126605623206352E-004
   5.5099999999999982E-002     1.8192745143981622E-004
   5.5950000000000000E-002     1.8051804502337366E-004
   5.6799999999999989E-002     1.7703602749676852E-004
   5.7650000000000007E-002     1.7142206799479354E-004
   5.8499999999999996E-002     1.6369558093016264E-004
   5.9349999999999986E-002     1.5391947623024684E-004
   6.0200000000000004E-002     1.4219901239161375E-004
   6.1049999999999993E-002     1.2871625970007879E-004
   6.1899999999999983E-002     1.1365062148627984E-004
   6.2750000000000000E-002     9.7216160532164614E-005
   6.3599999999999990E-002     7.9661162725639355E-005
   6.4450000000000007E-002     6.1282665305118465E-005
   6.5299999999999997E-002     4.2289693293244036E-005
   6.6149999999999987E-002     2.2914876182826994E-005
   6.7000000000000004E-002     3.4415059239705469E-006
   6.7849999999999994E-002    -1.5889245615624027E-005
   6.8699999999999983E-002    -3.4901139720585304E-005
   6.9550000000000001E-002    -5.3396602771999457E-005
   7.0399999999999990E-002    -7.1187302542685248E-005
   7.1249999999999980E-002    -8.8138770382188139E-005
   7.2099999999999997E-002    -1.0411866041150960E-004
   7.2949999999999987E-002    -1.1898289331795878E-004
   7.3800000000000004E-002    -1.3259790064651996E-004
   7.4649999999999994E-002    -1.4484266215929794E-004
   7.5499999999999984E-002    -1.5558309261440393E-004
   7.6350000000000001E-002    -1.6466184884482427E-004
   7.7199999999999991E-002    -1.7194198004972551E-004
   7.8049999999999981E-002    -1.7730651973452746E-004
   7.8899999999999998E-002    -1.8067719878424272E-004
   7.9749999999999988E-002    -1.8199502991309794E-004
   8.0600000000000005E-002    -1.8126452974641426E-004
   8.1449999999999995E-002    -1.7853436468271170E-004
   8.2299999999999984E-002    -1.7389206628308160E-004
   8.3150000000000002E-002    -1.6744580758054715E-004
   8.3999999999999991E-002    -1.5932609465984593E-004
   8.4849999999999981E-002    -1.4967156328186959E-004
   8.5699999999999998E-002    -1.3863308514812812E-004
   8.6549999999999988E-002    -1.2634265232637932E-004
   8.7400000000000005E-002    -1.1290231527865844E-004
   8.8249999999999995E-002    -9.8418513156725953E-005
   8.9099999999999985E-002    -8.2996298487454266E-005
   8.9950000000000002E-002    -6.6737311022191815E-005
   9.0799999999999992E-002    -4.9756935591622814E-005
   9.1649999999999981E-002    -3.2180088191843077E-005
   9.2499999999999999E-002    -1.4162985700583944E-005
   9.3349999999999989E-002     4.1082363152406595E-006
   9.4200000000000006E-002     2.2443740269564318E-005
   9.5049999999999996E-002     4.0641451315249176E-005
   9.5899999999999985E-002     5.8484035328871045E-005
   9.6750000000000003E-002     7.5782891223843789E-005
   9.7599999999999992E-002     9.2368241751354294E-005
   9.8449999999999982E-002     1.0807368286548457E-004
   9.9299999999999999E-002     1.2275765630555608E-004
  0.10014999999999999          1.3628945561645309E-004
  0.10099999999999998          1.4855128952903860E-004
  0.10185000000000000          1.5944629055151204E-004
  0.10269999999999999          1.6888656715198204E-004
  0.10355000000000000          1.7678289564659227E-004
  0.10439999999999999          1.8304911895893950E-004
  0.10524999999999998          1.8760386913922316E-004
  0.10610000000000000          1.9037878087358704E-004
  0.10694999999999999          1.9129531184494219E-004
  0.10779999999999998          1.9028752243994469E-004
  0.10865000000000000          1.8731831810027161E-004
  0.10949999999999999          1.8236531486159755E-004
  0.11035000000000000          1.7543034359255834E-004
  0.11119999999999999          1.6655929544359080E-004
  0.11204999999999998          1.5582992202802502E-004
  0.11290000000000000          1.4335578267871666E-004
  0.11374999999999999          1.2929073623348992E-004
  0.11459999999999998          1.1381498106220105E-004
  0.11545000000000000          9.7141991182481764E-005
  0.11629999999999999          7.9498628288935340E-005
  0.11715000000000000          6.1103690395802011E-005
  0.11799999999999999          4.2179221073117729E-005
  0.11884999999999998          2.2929367524455297E-005
  0.11970000000000000          3.5407772897030985E-006
  0.12054999999999999         -1.5812577869675644E-005
  0.12139999999999998         -3.4970983446820479E-005
  0.12225000000000000         -5.3773105421925870E-005
  0.12309999999999999         -7.2063673539201359E-005
  0.12395000000000000         -8.9676207049494750E-005
  0.12479999999999999         -1.0642265777383036E-004
  0.12564999999999998         -1.2211296394220198E-004
  0.12650000000000000         -1.3656218678471845E-004
  0.12734999999999999         -1.4959512189480800E-004
  0.12819999999999998         -1.6105231740603076E-004
  0.12905000000000000         -1.7080633729758105E-004
  0.12989999999999999         -1.7876551390110499E-004
  0.13074999999999998         -1.8487501140347019E-004
  0.13159999999999999         -1.8911677387383003E-004
  0.13245000000000001         -1.9150059713522621E-004
  0.13329999999999997         -1.9205273042860680E-004
  0.13414999999999999         -1.9081199431632501E-004
  0.13500000000000001         -1.8782381260812090E-004
  0.13584999999999997         -1.8313483119596698E-004
  0.13669999999999999         -1.7680118331803326E-004
  0.13755000000000001         -1.6889240027575419E-004
  0.13839999999999997         -1.5949951068737261E-004
  0.13924999999999998         -1.4873114531295349E-004
  0.14010000000000000         -1.3671879702656362E-004
  0.14094999999999996         -1.2361437179900212E-004
  0.14179999999999998         -1.0958000879794777E-004
  0.14265000000000000         -9.4780552233532229E-005
  0.14350000000000002         -7.9374493464853509E-005
  0.14434999999999998         -6.3508899553229624E-005
  0.14520000000000000         -4.7311938794810074E-005
  0.14605000000000001         -3.0894739793372686E-005
  0.14689999999999998         -1.4357517667889659E-005
  0.14774999999999999          2.2029872486996579E-006
  0.14860000000000001          1.8686181515612339E-005
  0.14944999999999997          3.4983772252074219E-005
  0.15029999999999999          5.0977144693060454E-005
  0.15115000000000001          6.6539507067217256E-005
  0.15199999999999997          8.1541087708930312E-005
  0.15284999999999999          9.5853152609395748E-005
  0.15370000000000000          1.0935583673720760E-004
  0.15454999999999997          1.2194224756641002E-004
  0.15539999999999998          1.3351782444709381E-004
  0.15625000000000000          1.4400156675043434E-004
  0.15709999999999996          1.5332424877283896E-004
  0.15794999999999998          1.6142109339222074E-004
  0.15880000000000000          1.6822985276908342E-004
  0.15965000000000001          1.7369177246575471E-004
  0.16049999999999998          1.7775064018141505E-004
  0.16134999999999999          1.8035530791695982E-004
  0.16220000000000001          1.8146060485554758E-004
  0.16304999999999997          1.8103485050447910E-004
  0.16389999999999999          1.7905984028282343E-004
  0.16475000000000001          1.7552957890929968E-004
  0.16559999999999997          1.7045189452678160E-004
  0.16644999999999999          1.6384660989257860E-004
  0.16730000000000000          1.5574329446312792E-004
  0.16814999999999997          1.4618058934852876E-004
  0.16899999999999998          1.3520869839066940E-004
  0.16985000000000000          1.2289407590727108E-004
  0.17069999999999996          1.0932460197360219E-004
  0.17154999999999998          9.4613653880393336E-005
  0.17240000000000000          7.8903755569084756E-005
  0.17325000000000002          6.2363852893688494E-005
  0.17409999999999998          4.5187026305380684E-005
  0.17494999999999999          2.7581533997989537E-005
  0.17580000000000001          9.7573992485709525E-006
  0.17664999999999997         -8.0809814022522408E-006
  0.17749999999999999         -2.5744623807970990E-005
  0.17835000000000001         -4.3065826449903896E-005
  0.17919999999999997         -5.9896983244488802E-005
  0.18004999999999999         -7.6108445598086828E-005
  0.18090000000000001         -9.1579025194226695E-005
  0.18174999999999997         -1.0618602416831705E-004
  0.18259999999999998         -1.1980227171789069E-004
  0.18345000000000000         -1.3229242939549654E-004
  0.18429999999999996         -1.4351534106223717E-004
  0.18514999999999998         -1.5333164738066306E-004
  0.18600000000000000         -1.6161334119089063E-004
  0.18684999999999996         -1.6825722898865752E-004
  0.18769999999999998         -1.7319321418987762E-004
  0.18855000000000000         -1.7638970773120122E-004
  0.18940000000000001         -1.7785669660585316E-004
  0.19024999999999997         -1.7763925876412880E-004
  0.19109999999999999         -1.7580916701446269E-004
  0.19195000000000001         -1.7245653138109232E-004
  0.19279999999999997         -1.6767792264573965E-004
  0.19364999999999999         -1.6156860447787231E-004
  0.19450000000000001         -1.5421847415619938E-004
  0.19534999999999997         -1.4571194002421773E-004
  0.19619999999999999         -1.3612997707605884E-004
  0.19705000000000000         -1.2555408951410812E-004
  0.19789999999999996         -1.1407231553251799E-004
  0.19874999999999998         -1.0178003277263650E-004
  0.19960000000000000         -8.8779872598634718E-005
  0.20044999999999996         -7.5180829088619680E-005
  0.20129999999999998         -6.1095849715133091E-005
  0.20215000000000000         -4.6637616696990425E-005
  0.20300000000000001         -3.1916197679787237E-005
  0.20384999999999998         -1.7040447549055077E-005
  0.20469999999999999         -2.1169637296456909E-006
  0.20555000000000001          1.2747105791068307E-005
  0.20639999999999997          2.7441285943050620E-005
  0.20724999999999999          4.1851814634280730E-005
  0.20810000000000001          5.5862582044708981E-005
  0.20894999999999997          6.9358506487314419E-005
  0.20979999999999999          8.2231182682014067E-005
  0.21065000000000000          9.4383758046297290E-005
  0.21149999999999997          1.0573529210885500E-004
  0.21234999999999998          1.1622190000092295E-004
  0.21320000000000000          1.2579423893652243E-004
  0.21404999999999996          1.3441250522804323E-004
  0.21489999999999998          1.4203971896587241E-004
  0.21575000000000000          1.4863548138168504E-004
  0.21659999999999996          1.5414952950748172E-004
  0.21744999999999998          1.5851977215627957E-004
  0.21829999999999999          1.6167529216878375E-004
  0.21915000000000001          1.6354190314990408E-004
  0.21999999999999997          1.6405151565200156E-004
  0.22084999999999999          1.6315127315199519E-004
  0.22170000000000001          1.6081106664889608E-004
  0.22254999999999997          1.5702892089059200E-004
  0.22339999999999999          1.5183176499482322E-004
  0.22425000000000000          1.4527192833529816E-004
  0.22509999999999997          1.3742013923528129E-004
  0.22594999999999998          1.2835874979123633E-004
  0.22680000000000000          1.1817494882257620E-004
  0.22764999999999996          1.0695658975498214E-004
  0.22849999999999998          9.4791725192558586E-005
  0.22935000000000000          8.1770599945712465E-005
  0.23019999999999996          6.7990128649014298E-005
  0.23104999999999998          5.3559400605658828E-005
  0.23190000000000000          3.8602675169490087E-005
  0.23275000000000001          2.3259562626817232E-005
  0.23359999999999997          7.6831891106694534E-006
  0.23444999999999999         -7.9644972734175596E-006
  0.23530000000000001         -2.3520187005764998E-005
  0.23614999999999997         -3.8825188303878588E-005
  0.23699999999999999         -5.3729874056061659E-005
  0.23785000000000001         -6.8096653654088044E-005
  0.23869999999999997         -8.1798871141054873E-005
  0.23954999999999999         -9.4717833251506389E-005
  0.24040000000000000         -1.0673997929857894E-004
  0.24124999999999996         -1.1775526797551572E-004
  0.24209999999999998         -1.2765618076571007E-004
  0.24295000000000000         -1.3634038548248966E-004
  0.24379999999999996         -1.4371618167772712E-004
  0.24464999999999998         -1.4970869627612193E-004
  0.24550000000000000         -1.5426653468685525E-004
  0.24634999999999996         -1.5736573534097010E-004
  0.24719999999999998         -1.5901081267069529E-004
  0.24804999999999999         -1.5923283342072841E-004
  0.24890000000000001         -1.5808308528271323E-004
  0.24974999999999997         -1.5562493861512737E-004
  0.25059999999999999         -1.5192584179351810E-004
  0.25145000000000001         -1.4705154175214557E-004
  0.25229999999999997         -1.4106211132881955E-004
  0.25314999999999999         -1.3401124891072104E-004
  0.25400000000000000         -1.2595023006488422E-004
  0.25484999999999997         -1.1693305298645635E-004
  0.25569999999999998         -1.0702191342571761E-004
  0.25655000000000000         -9.6291738447121109E-005
  0.25739999999999996         -8.4832161370575936E-005
  0.25824999999999998         -7.2746682080602256E-005
  0.25910000000000000         -6.0149303864720423E-005
  0.25994999999999996         -4.7159680814215808E-005
  0.26079999999999998         -3.3898051033418695E-005
  0.26164999999999999         -2.0480334007395124E-005
  0.26249999999999996         -7.0150951744873493E-006
  0.26334999999999997          6.3968063891094092E-006
  0.26419999999999999          1.9661657406918349E-005
  0.26505000000000001          3.2691198593641616E-005
  0.26589999999999997          4.5401038234629148E-005
  0.26674999999999999          5.7709404054649601E-005
  0.26760000000000000          6.9537447621803117E-005
  0.26844999999999997          8.0810391062450360E-005
  0.26929999999999998          9.1458333680962585E-005
  0.27015000000000000          1.0141672311837486E-004
  0.27099999999999996          1.1062540225441185E-004
  0.27184999999999998          1.1902665928191504E-004
  0.27270000000000000          1.2656212239978035E-004
  0.27354999999999996          1.3316955520736002E-004
  0.27439999999999998          1.3878108228155994E-004
  0.27524999999999999          1.4332343258985293E-004
  0.27609999999999996          1.4672080164613416E-004
  0.27694999999999997          1.4890089699643025E-004
  0.27779999999999999          1.4980259063364102E-004
  0.27865000000000001          1.4938390911179813E-004
  0.27949999999999997          1.4762890182908110E-004
  0.28034999999999999          1.4455084273663302E-004
  0.28120000000000001          1.4019166421472544E-004
  0.28204999999999997          1.3461682283187612E-004
  0.28289999999999998          1.2790691539465217E-004
  0.28375000000000000          1.2014844275964309E-004
  0.28459999999999996          1.1142524204934751E-004
  0.28544999999999998          1.0181222689695941E-004
  0.28630000000000000          9.1373531433211694E-005
  0.28714999999999996          8.0165550542314823E-005
  0.28799999999999998          6.8243804424391943E-005
  0.28885000000000000          5.5671704898422553E-005
  0.28969999999999996          4.2529836124898592E-005
  0.29054999999999997          2.8922268924580608E-005
  0.29139999999999999          1.4978779295614340E-005
  0.29224999999999995          8.5287048675982943E-007
  0.29309999999999997         -1.3285753079197976E-005
  0.29394999999999999         -2.7261305506360134E-005
  0.29480000000000001         -4.0903001173996153E-005
  0.29564999999999997         -5.4054802860387562E-005
  0.29649999999999999         -6.6582552012066639E-005
  0.29735000000000000         -7.8377619353694076E-005
  0.29819999999999997         -8.9355901358344517E-005
  0.29904999999999998         -9.9453467852201328E-005
  0.29990000000000000         -1.0862034079818207E-004
  0.30074999999999996         -1.1681434906538221E-004
  0.30159999999999998         -1.2399603136110937E-004
  0.30245000000000000         -1.3012542635069680E-004
  0.30329999999999996         -1.3516145247561176E-004
  0.30414999999999998         -1.3906413697580586E-004
  0.30499999999999999         -1.4179787110450153E-004
  0.30584999999999996         -1.4333508634108838E-004
  0.30669999999999997         -1.4366018091680179E-004
  0.30754999999999999         -1.4277171652535972E-004
  0.30840000000000001         -1.4068376950803090E-004
  0.30924999999999997         -1.3742574584215661E-004
  0.31009999999999999         -1.3304119608446106E-004
  0.31095000000000000         -1.2758649892878114E-004
  0.31179999999999997         -1.2112875245271915E-004
  0.31264999999999998         -1.1374346477160786E-004
  0.31350000000000000         -1.0551199862937044E-004
  0.31434999999999996         -9.6518890341963485E-005
  0.31519999999999998         -8.6849448410721879E-005
  0.31605000000000000         -7.6587009123665992E-005
  0.31689999999999996         -6.5810829755315125E-005
  0.31774999999999998         -5.4595169698085839E-005
  0.31859999999999999         -4.3009460423349391E-005
  0.31944999999999996         -3.1120134473806073E-005
  0.32029999999999997         -1.8993906894772491E-005
  0.32114999999999999         -6.7015585230519806E-006
  0.32199999999999995          5.6782272380504214E-006
  0.32284999999999997          1.8056093906367882E-005
  0.32369999999999999          3.0331533042040681E-005
  0.32455000000000001          4.2394538314450749E-005
  0.32539999999999997          5.4129515448938255E-005
  0.32624999999999998          6.5420953325272694E-005
  0.32710000000000000          7.6159694914647663E-005
  0.32794999999999996          8.6248619444894621E-005
  0.32879999999999998          9.5605990201339940E-005
  0.32965000000000000          1.0416585735939662E-004
  0.33049999999999996          1.1187605196701374E-004
  0.33134999999999998          1.1869341262283303E-004
  0.33220000000000000          1.2457831710685304E-004
  0.33304999999999996          1.2948951005929945E-004
  0.33389999999999997          1.3338090067487358E-004
  0.33474999999999999          1.3620169994925843E-004
  0.33559999999999995          1.3789935168944634E-004
  0.33644999999999997          1.3842565691550882E-004
  0.33729999999999999          1.3774416808714913E-004
  0.33815000000000001          1.3583741005936692E-004
  0.33899999999999997          1.3271209329174520E-004
  0.33984999999999999          1.2840111381385861E-004
  0.34070000000000000          1.2296208109035723E-004
  0.34154999999999996          1.1647190086763372E-004
  0.34239999999999998          1.0901929130969289E-004