 -0.12000000000000000          0.0000000000000000     
 -0.11914999999999999          0.0000000000000000     
 -0.11830000000000000          0.0000000000000000     
 -0.11745000000000000          0.0000000000000000     
 -0.11660000000000000          0.0000000000000000     
 -0.11574999999999999          0.0000000000000000     
 -0.11490000000000000          0.0000000000000000     
 -0.11405000000000000          0.0000000000000000     
 -0.11320000000000000          0.0000000000000000     
 -0.11234999999999999          0.0000000000000000     
 -0.11150000000000000          1.6134797274322929E-034
 -0.11065000000000000          2.4452934607953287E-033
 -0.10979999999999999          1.7700039650777416E-032
 -0.10894999999999999          8.5050272554753038E-032
 -0.10810000000000000          2.8685127336341684E-031
 -0.10725000000000000          6.8062733303498734E-031
 -0.10639999999999999          9.5336257225327415E-031
 -0.10554999999999999         -3.7219264700445303E-031
 -0.10470000000000000         -6.8013694200538151E-030
 -0.10385000000000000         -2.2938783575228255E-029
 -0.10299999999999999         -4.7965680831696452E-029
 -0.10214999999999999         -5.9918354187124816E-029
 -0.10130000000000000          5.4656978670830659E-030
 -0.10045000000000000          2.5867771832571151E-028
  -9.9599999999999994E-002     7.9472252712346199E-028
  -9.8750000000000004E-002     1.5089947755016665E-027
  -9.7900000000000001E-002     1.7896741508245614E-027
  -9.7049999999999997E-002     2.5169826379617510E-028
  -9.6199999999999994E-002    -5.0595327680337165E-027
  -9.5349999999999990E-002    -1.5359803695840788E-026
  -9.4500000000000001E-002    -2.8265564548891509E-026
  -9.3649999999999997E-002    -3.3934927322660159E-026
  -9.2799999999999994E-002    -1.2755773963930715E-026
  -9.1950000000000004E-002     6.0486203011991587E-026
  -9.1100000000000000E-002     2.0007234958494686E-025
  -9.0249999999999997E-002     3.7796619422086951E-025
  -8.9399999999999993E-002     4.8558052261456905E-025
  -8.8549999999999990E-002     3.1402896339054185E-025
  -8.7700000000000000E-002    -4.0410238975655419E-025
  -8.6849999999999997E-002    -1.8451268141919761E-024
  -8.5999999999999993E-002    -3.8216382727987029E-024
  -8.5150000000000003E-002    -5.4529972771451756E-024
  -8.4300000000000000E-002    -4.9698775687447527E-024
  -8.3449999999999996E-002     3.4469695565911742E-026
  -8.2600000000000007E-002     1.1569813974457242E-023
  -8.1749999999999989E-002     2.9291134682203948E-023
  -8.0900000000000000E-002     4.7983918632651525E-023
  -8.0049999999999996E-002     5.5641991335329278E-023
  -7.9199999999999993E-002     3.4089266364737282E-023
  -7.8350000000000003E-002    -3.5595575295040636E-023
  -7.7499999999999999E-002    -1.6146212798535328E-022
  -7.6649999999999996E-002    -3.2407263823369758E-022
  -7.5800000000000006E-002    -4.6038228813595425E-022
  -7.4949999999999989E-002    -4.5849551668505275E-022
  -7.4099999999999999E-002    -1.7678815870743605E-022
  -7.3249999999999996E-002     5.0118733459551881E-022
  -7.2399999999999992E-002     1.5751018678930401E-021
  -7.1550000000000002E-002     2.8186582489309134E-021
  -7.0699999999999999E-002     3.6981955511620530E-021
  -6.9849999999999995E-002     3.3876856345252665E-021
  -6.9000000000000006E-002     9.5399770896075361E-022
  -6.8149999999999988E-002    -4.2431088893498549E-021
  -6.7299999999999999E-002    -1.1967539463962986E-020
  -6.6449999999999995E-002    -2.0489071726569583E-020
  -6.5599999999999992E-002    -2.6213621169572491E-020
  -6.4750000000000002E-002    -2.3936690170972314E-020
  -6.3899999999999998E-002    -8.0755715352128524E-021
  -6.3049999999999995E-002     2.4968099856328035E-020
  -6.2199999999999998E-002     7.3582647576938766E-020
  -6.1350000000000002E-002     1.2771250588217607E-019
  -6.0499999999999998E-002     1.6707604793332973E-019
  -5.9650000000000002E-002     1.6265388570041818E-019
  -5.8799999999999998E-002     8.3073210799205238E-020
  -5.7950000000000002E-002    -9.3517425424270815E-020
  -5.7099999999999998E-002    -3.6342518687624161E-019
  -5.6249999999999994E-002    -6.8118703945300990E-019
  -5.5400000000000005E-002    -9.4968968501091232E-019
  -5.4550000000000001E-002    -1.0247217116732971E-018
  -5.3699999999999998E-002    -7.4129465482268130E-019
  -5.2849999999999994E-002     3.5016936270675854E-020
  -5.2000000000000005E-002     1.3361741549738937E-018
  -5.1150000000000001E-002     3.0141091688041861E-018
  -5.0299999999999997E-002     4.6832330666837519E-018
  -4.9449999999999994E-002     5.7159911801257165E-018
  -4.8600000000000004E-002     5.3239317379677775E-018
  -4.7750000000000001E-002     2.7441771970712076E-018
  -4.6899999999999997E-002    -2.4749719600348530E-018
  -4.6049999999999994E-002    -1.0133065458745938E-017
  -4.5200000000000004E-002    -1.9067427074411953E-017
  -4.4350000000000001E-002    -2.6994853965481026E-017
  -4.3499999999999997E-002    -3.0638890583306593E-017
  -4.2649999999999993E-002    -2.6252073445598703E-017
  -4.1800000000000004E-002    -1.0571641551249228E-017
  -4.0950000000000000E-002     1.7869621842876658E-017
  -4.0099999999999997E-002     5.7304751976774812E-017
  -3.9249999999999993E-002     1.0154299034377697E-016
  -3.8400000000000004E-002     1.3951375433759176E-016
  -3.7550000000000000E-002     1.5604394436140837E-016
  -3.6699999999999997E-002     1.3424675787373684E-016
  -3.5850000000000007E-002     5.9616540519672465E-017
  -3.5000000000000003E-002    -7.4513905981942908E-017
  -3.4150000000000000E-002    -2.6103674971128918E-016
  -3.3299999999999996E-002    -4.7407660900041268E-016
  -3.2450000000000007E-002    -6.6676739569142205E-016
  -3.1600000000000003E-002    -7.7371827380483431E-016
  -3.0750000000000000E-002    -7.1972783831544163E-016
  -2.9899999999999996E-002    -4.3537910842445471E-016
  -2.9050000000000006E-002     1.2134951904019765E-016
  -2.8200000000000003E-002     9.4028727530728996E-016
  -2.7349999999999999E-002     1.9360058280592740E-015
  -2.6499999999999996E-002     2.9332667080152645E-015
  -2.5650000000000006E-002     3.6686846252126140E-015
  -2.4800000000000003E-002     3.8158208696068873E-015
  -2.3949999999999999E-002     3.0383268164783076E-015
  -2.3099999999999996E-002     1.0709339588267375E-015
  -2.2250000000000006E-002    -2.1789883358410687E-015
  -2.1400000000000002E-002    -6.5250374603763810E-015
  -2.0549999999999999E-002    -1.1414667978962594E-014
  -1.9699999999999995E-002    -1.5891830518839467E-014
  -1.8850000000000006E-002    -1.8641511851813365E-014
  -1.8000000000000002E-002    -1.8142855386449508E-014
  -1.7149999999999999E-002    -1.2943143574181742E-014
  -1.6299999999999995E-002    -2.0409434342616023E-015
  -1.5450000000000005E-002     1.4664542934922699E-014
  -1.4600000000000002E-002     3.5936224157070922E-014
  -1.3749999999999998E-002     5.8883236401822605E-014
  -1.2899999999999995E-002     7.8894297511993265E-014
  -1.2050000000000005E-002     8.9943990114561581E-014
  -1.1200000000000002E-002     8.5360828776847656E-014
  -1.0349999999999998E-002     5.9075015188864667E-014
  -9.5000000000000084E-003     7.2608795044605365E-015
  -8.6500000000000049E-003    -6.9835830162526452E-014
  -7.8000000000000014E-003    -1.6622229732028930E-013
  -6.9499999999999978E-003    -2.6907109558392218E-013
  -6.1000000000000082E-003    -3.5869389636462339E-013
  -5.2500000000000047E-003    -4.1000267225123939E-013
  -4.4000000000000011E-003    -3.9571559004474561E-013
  -3.5499999999999976E-003    -2.9128762925050499E-013
  -2.7000000000000079E-003    -8.1170700175572666E-014
  -1.8500000000000044E-003     2.3442249654937574E-013
  -1.0000000000000009E-003     6.3346859859084383E-013
  -1.4999999999999736E-004     1.0683053446927254E-012
   6.9999999999999230E-004     1.4655924558374520E-012
   1.5499999999999958E-003     1.7314054181617835E-012
   2.3999999999999994E-003     1.7622248292006660E-012
   3.2500000000000029E-003     1.4616907003060702E-012
   4.0999999999999925E-003     7.6178783088144811E-013
   4.9499999999999961E-003    -3.5410666136598393E-013
   5.7999999999999996E-003    -1.8301033143591530E-012
   6.6499999999999893E-003    -3.5231732496934174E-012
   7.5000000000000067E-003    -5.1998400303663934E-012
   8.3499999999999963E-003    -6.5483375848956515E-012
   9.1999999999999860E-003    -7.2088796203553022E-012
   1.0050000000000003E-002    -6.8221724844647896E-012
   1.0899999999999993E-002    -5.0931114012889266E-012
   1.1750000000000010E-002    -1.8630547184435852E-012
   1.2600000000000000E-002     2.8193835474586646E-012
   1.3449999999999990E-002     8.6415704993446377E-012
   1.4300000000000007E-002     1.4997914108600007E-011
   1.5149999999999997E-002     2.1001565371727197E-011
   1.5999999999999986E-002     2.5546396243962752E-011
   1.6850000000000004E-002     2.7422921548532196E-011
   1.7699999999999994E-002     2.5484321052471723E-011
   1.8549999999999983E-002     1.8849108168559615E-011
   1.9400000000000001E-002     7.1177866646048534E-012
   2.0249999999999990E-002    -9.4272478879854967E-012
   2.1100000000000008E-002    -2.9674712375831649E-011
   2.1949999999999997E-002    -5.1626584159627388E-011
   2.2799999999999987E-002    -7.2461689330765953E-011
   2.3650000000000004E-002    -8.8740785915019454E-011
   2.4499999999999994E-002    -9.6757027040706831E-011
   2.5349999999999984E-002    -9.3014015286691128E-011
   2.6200000000000001E-002    -7.4790452849802914E-011
   2.7049999999999991E-002    -4.0728207606731528E-011
   2.7900000000000008E-002     8.6373173411857050E-012
   2.8749999999999998E-002     7.0493055516797909E-011
   2.9599999999999987E-002     1.3959831387757777E-010
   3.0450000000000005E-002     2.0843839266294885E-010
   3.1299999999999994E-002     2.6772470572156625E-010
   3.2149999999999984E-002     3.0723962972213336E-010
   3.3000000000000002E-002     3.1698170783507901E-010
   3.3849999999999991E-002     2.8851343483933202E-010
   3.4700000000000009E-002     2.1636810611607885E-010
   3.5549999999999998E-002     9.9351502038097612E-011
   3.6399999999999988E-002    -5.8455900982448730E-011
   3.7250000000000005E-002    -2.4716153986085999E-010
   3.8099999999999995E-002    -4.5113536736978352E-010
   3.8949999999999985E-002    -6.4977724182415112E-010
   3.9800000000000002E-002    -8.1899065095557112E-010
   4.0649999999999992E-002    -9.3328637831322011E-010
   4.1500000000000009E-002    -9.6837752918639929E-010
   4.2349999999999999E-002    -9.0402659372748464E-010
   4.3199999999999988E-002    -7.2688287096720806E-010
   4.4050000000000006E-002    -4.3301229147822242E-010
   4.4899999999999995E-002    -2.9815997949697011E-011
   4.5749999999999985E-002     4.6289924353321994E-010
   4.6600000000000003E-002     1.0129084961804239E-009
   4.7449999999999992E-002     1.5767225119304503E-009
   4.8299999999999982E-002     2.1019099565941385E-009
   4.9149999999999999E-002     2.5305324414661905E-009
   4.9999999999999989E-002     2.8034845651045249E-009
   5.0850000000000006E-002     2.8655200124404298E-009
   5.1699999999999996E-002     2.6705998083873109E-009
   5.2549999999999986E-002     2.1872352369547055E-009
   5.3400000000000003E-002     1.4034079960495353E-009
   5.4249999999999993E-002     3.3066336550864077E-010
   5.5099999999999982E-002    -9.9299665802805580E-010
   5.5950000000000000E-002    -2.5017832054650498E-009
   5.6799999999999989E-002    -4.1026588358250443E-009
   5.7650000000000007E-002    -5.6779762957609652E-009
   5.8499999999999996E-002    -7.0904047953284579E-009
   5.9349999999999986E-002    -8.1900619610730218E-009
   6.0200000000000004E-002    -8.8239190164086982E-009
   6.1049999999999993E-002    -8.8470095078648972E-009
   6.1899999999999983E-002    -8.1351721079217251E-009
   6.2750000000000000E-002    -6.5985511610099064E-009
   6.3599999999999990E-002    -4.1950813977019748E-009
   6.4450000000000007E-002    -9.4293561448663316E-010
   6.5299999999999997E-002     3.0691990802095961E-009
   6.6149999999999987E-002     7.6753304128652430E-009
   6.7000000000000004E-002     1.2630013161986967E-008
   6.7849999999999994E-002     1.7611896533593907E-008
   6.8699999999999983E-002     2.2234047309961170E-008
   6.9550000000000001E-002     2.6061324521753470E-008
   7.0399999999999990E-002     2.8634757250503784E-008
   7.1249999999999980E-002     2.9502732858731501E-008
   7.2099999999999997E-002     2.8257163613757763E-008
   7.2949999999999987E-002     2.4572955853929228E-008
   7.3800000000000004E-002     1.8248202599333151E-008
   7.4649999999999994E-002     9.2421068785247803E-009
   7.5499999999999984E-002    -2.2932046622758294E-009
   7.6350000000000001E-002    -1.5989561771767037E-008
   7.7199999999999991E-002    -3.1252115139785484E-008
   7.8049999999999981E-002    -4.7263579953493190E-008
   7.8899999999999998E-002    -6.3004977431756142E-008
   7.9749999999999988E-002    -7.7294303899522419E-008
   8.0600000000000005E-002    -8.8841919681546644E-008
   8.1449999999999995E-002    -9.6322058175079559E-008
   8.2299999999999984E-002    -9.8456701147676588E-008
   8.3150000000000002E-002    -9.4110186459205664E-008
   8.3999999999999991E-002    -8.2386886365372233E-008
   8.4849999999999981E-002    -6.2729329880156814E-008
   8.5699999999999998E-002    -3.5009309361364421E-008
   8.6549999999999988E-002     3.9358927834323352E-010
   8.7400000000000005E-002     4.2533267704414665E-008
   8.8249999999999995E-002     8.9863271376253563E-008
   8.9099999999999985E-002     1.4023510635570013E-007
   8.9950000000000002E-002     1.9093176072230889E-007
   9.0799999999999992E-002     2.3874428045471306E-007
   9.1649999999999981E-002     2.8008846533567752E-007
   9.2499999999999999E-002     3.1116641129286493E-007
   9.3349999999999989E-002     3.2816630175785524E-007
   9.4200000000000006E-002     3.2749776746420496E-007
   9.5049999999999996E-002     3.0605206567832790E-007
   9.5899999999999985E-002     2.6147500678436042E-007
   9.6750000000000003E-002     1.9243544103505157E-007
   9.7599999999999992E-002     9.8872560971782140E-008
   9.8449999999999982E-002    -1.7792953172821979E-008
   9.9299999999999999E-002    -1.5451691880137345E-007
  0.10014999999999999         -3.0655934515204556E-007
  0.10099999999999998         -4.6750884758709345E-007
  0.10185000000000000         -6.2941801816597144E-007
  0.10269999999999999         -7.8303650675697432E-007
  0.10355000000000000         -9.1817166400234000E-007
  0.10439999999999999         -1.0241291173900298E-006
  0.10524999999999998         -1.0902622730680424E-006
  0.10610000000000000         -1.1065661491332411E-006
  0.10694999999999999         -1.0643237447107837E-006
  0.10779999999999998         -9.5674639139494216E-007
  0.10865000000000000         -7.7958746435590426E-007
  0.10949999999999999         -5.3169977458745859E-007
  0.11035000000000000         -2.1546204181771273E-007
  0.11119999999999999          1.6288882937878550E-007
  0.11204999999999998          5.9312287653842778E-007
  0.11290000000000000          1.0610543822110423E-006
  0.11374999999999999          1.5487457929416789E-006
  0.11459999999999998          2.0349857533772057E-006
  0.11545000000000000          2.4958692271707944E-006
  0.11629999999999999          2.9056537435835074E-006
  0.11715000000000000          3.2377196647376290E-006
  0.11799999999999999          3.4656552884091594E-006
  0.11884999999999998          3.5645475429772103E-006
  0.11970000000000000          3.5120777814898281E-006
  0.12054999999999999          3.2900002075749205E-006
  0.12139999999999998          2.8851501678414926E-006
  0.12225000000000000          2.2906771403033365E-006
  0.12309999999999999          1.5071322098667245E-006
  0.12395000000000000          5.4293269913277798E-007
  0.12479999999999999         -5.8459787378914131E-007
  0.12564999999999998         -1.8493136058724892E-006
  0.12650000000000000         -3.2161168607207973E-006
  0.12734999999999999         -4.6414536274318385E-006
  0.12819999999999998         -6.0731549542357077E-006
  0.12905000000000000         -7.4525925649310791E-006
  0.12989999999999999         -8.7144514622834694E-006
  0.13074999999999998         -9.7898994559989876E-006
  0.13159999999999999         -1.0606526737355982E-005
  0.13245000000000001         -1.1091655099852287E-005
  0.13329999999999997         -1.1173067849397639E-005
  0.13414999999999999         -1.0782418482442648E-005
  0.13500000000000001         -9.8555014218485880E-006
  0.13584999999999997         -8.3357194503609848E-006
  0.13669999999999999         -6.1736035840042461E-006
  0.13755000000000001         -3.3301798621841779E-006
  0.13839999999999997          2.2450876118566967E-007
  0.13924999999999998          4.5107458319002061E-006
  0.14010000000000000          9.5373965119629664E-006
  0.14094999999999996          1.5308240831781461E-005
  0.14179999999999998          2.1819676083649584E-005
  0.14265000000000000          2.9067004473777941E-005
  0.14350000000000002          3.7049611591312489E-005
  0.14434999999999998          4.5770548559884343E-005
  0.14520000000000000          5.5248575039593711E-005
  0.14605000000000001          6.5524574814667373E-005
  0.14689999999999998          7.6662232326948714E-005
  0.14774999999999999          8.8773887384971980E-005
  0.14860000000000001          1.0201116943787139E-004
  0.14944999999999997          1.1658067306835406E-004
  0.15029999999999999          1.3275173838331512E-004
  0.15115000000000001          1.5088611771603812E-004
  0.15199999999999997          1.7140468694347460E-004
  0.15284999999999999          1.9484270457834638E-004
  0.15370000000000000          2.2185113156375773E-004
  0.15454999999999997          2.5316894335013326E-004
  0.15539999999999998          2.8967131662014701E-004
  0.15625000000000000          3.3236103577405764E-004
  0.15709999999999996          3.8239882782337045E-004
  0.15794999999999998          4.4109437881097700E-004
  0.15880000000000000          5.0992018075844843E-004
  0.15965000000000001          5.9050764916179777E-004
  0.16049999999999998          6.8467179575832380E-004
  0.16134999999999999          7.9446688498876323E-004
  0.16220000000000001          9.2213355277460550E-004
  0.16304999999999997          1.0701724214840095E-003
  0.16389999999999999          1.2413314453841688E-003
  0.16475000000000001          1.4385838003380057E-003
  0.16559999999999997          1.6653272697771319E-003
  0.16644999999999999          1.9251625474557316E-003
  0.16730000000000000          2.2220681871516828E-003
  0.16814999999999997          2.5604807670885528E-003
  0.16899999999999998          2.9453711736340538E-003
  0.16985000000000000          3.3818056480750727E-003
  0.17069999999999996          3.8756932036610493E-003
  0.17154999999999998          4.4332642467160288E-003
  0.17240000000000000          5.0613004632125511E-003
  0.17325000000000002          5.7671920108499294E-003
  0.17409999999999998          6.5588039691898917E-003
  0.17494999999999999          7.4448036077047145E-003
  0.17580000000000001          8.4342041492292876E-003
  0.17664999999999997          9.5366672897705482E-003
  0.17749999999999999          1.0762134322188865E-002
  0.17835000000000001          1.2121533476886243E-002
  0.17919999999999997          1.3625499575477061E-002
  0.18004999999999999          1.5285302120523151E-002
  0.18090000000000001          1.7112903867761896E-002
  0.18174999999999997          1.9119170337901122E-002
  0.18259999999999998          2.1315726275563468E-002
  0.18345000000000000          2.3714123925144409E-002
  0.18429999999999996          2.6324327213038408E-002
  0.18514999999999998          2.9157377005249632E-002
  0.18600000000000000          3.2221707915676044E-002
  0.18684999999999996          3.5524508771928767E-002
  0.18769999999999998          3.9072101479719359E-002
  0.18855000000000000          4.2867956755678949E-002
  0.18940000000000001          4.6913773683487425E-002
  0.19024999999999997          5.1206836153222968E-002
  0.19109999999999999          5.5743028563447788E-002
  0.19195000000000001          6.0515534420051198E-002
  0.19279999999999997          6.5509232173769971E-002
  0.19364999999999999          7.0709261822680516E-002
  0.19450000000000001          7.6093452687695864E-002
  0.19534999999999997          8.1633438952183363E-002
  0.19619999999999999          8.7295244536623740E-002
  0.19705000000000000          9.3038830384130702E-002
  0.19789999999999996          9.8812561807295043E-002
  0.19874999999999998         0.10456778221663483     
  0.19960000000000000         0.11023725910199220     
  0.20044999999999996         0.11575206442306345     
  0.20129999999999998         0.12103760249681461     
  0.20215000000000000         0.12600399444052302     
  0.20300000000000001         0.13056154313612331     
  0.20384999999999998         0.13461110957744285     
  0.20469999999999999         0.13803631067133959     
  0.20555000000000001         0.14072753574541330     
  0.20639999999999997         0.14256353937899613     
  0.20724999999999999         0.14340864897754271     
  0.20810000000000001         0.14313653161398762     
  0.20894999999999997         0.14160658944194895     
  0.20979999999999999         0.13869535838599151     
  0.21065000000000000         0.13426212571358415     
  0.21149999999999997         0.12816692954221165     
  0.21234999999999998         0.12027699697499222     
  0.21320000000000000         0.11046736100504129     
  0.21404999999999996          9.8637821545237647E-002
  0.21489999999999998          8.4672111273299294E-002
  0.21575000000000000          6.8476675550829008E-002
  0.21659999999999996          4.9956710568766827E-002
  0.21744999999999998          2.9056423687532945E-002
  0.21829999999999999          5.7230914747389700E-003
  0.21915000000000001         -2.0043274190630039E-002
  0.21999999999999997         -4.8245147578984016E-002
  0.22084999999999999         -7.8840413689931527E-002
  0.22170000000000001        -0.11175508132333287     
  0.22254999999999997        -0.14688773498905855     
  0.22339999999999999        -0.18409574397570178     
  0.22425000000000000        -0.22323073484465666     
  0.22509999999999997        -0.26405998774094036     
  0.22594999999999998        -0.30631832651572183     
  0.22680000000000000        -0.34977821538361820     
  0.22764999999999996        -0.39407314203542110     
  0.22849999999999998        -0.43890527838909776     
  0.22935000000000000        -0.48387239696632023     
  0.23019999999999996        -0.52853227217597998     
  0.23104999999999998        -0.57243779651904103     
  0.23190000000000000        -0.61509191837549260     
  0.23275000000000001        -0.65601560638561107     
  0.23359999999999997        -0.69467344552105503     
  0.23444999999999999        -0.73049039029638951     
  0.23530000000000001        -0.76294295697190173     
  0.23614999999999997        -0.79148466882812452     
  0.23699999999999999        -0.81557204129150151     
  0.23785000000000001        -0.83465841416390418     
  0.23869999999999997        -0.84824051935156830     
  0.23954999999999999        -0.85589722730264650     
  0.24040000000000000        -0.85716860422003682     
  0.24124999999999996        -0.85163529514754299     
  0.24209999999999998        -0.83896998029304060     
  0.24295000000000000        -0.81880632003941445     
  0.24379999999999996        -0.79092945231305878     
  0.24464999999999998        -0.75520859233652660     
  0.24550000000000000        -0.71146623376312035     
  0.24634999999999996        -0.65981588815530412     
  0.24719999999999998        -0.60033752965094234     
  0.24804999999999999        -0.53315785448276809     
  0.24890000000000001        -0.45855190407261470     
  0.24974999999999997        -0.37687467711407568     
  0.25059999999999999        -0.28860392950660135     
  0.25145000000000001        -0.19419870390915950     
  0.25229999999999997         -9.4298096635002993E-002
  0.25314999999999999          1.0408432946119262E-002
  0.25400000000000000         0.11907981202005902     
  0.25484999999999997         0.23087963250588772     
  0.25569999999999998         0.34487014641425295     
  0.25655000000000000         0.46009994732073467     
  0.25739999999999996         0.57550812967054010     
  0.25824999999999998         0.69001450090866689     
  0.25910000000000000         0.80258346035799422     
  0.25994999999999996         0.91212827290764187     
  0.26079999999999998          1.0174570751849497     
  0.26164999999999999          1.1176047296529694     
  0.26249999999999996          1.2115098518947507     
  0.26334999999999997          1.2981040810161835     
  0.26419999999999999          1.3764666303764543     
  0.26505000000000001          1.4457181518411026     
  0.26589999999999997          1.5050082168684729     
  0.26674999999999999          1.5536340898760586     
  0.26760000000000000          1.5909407298028153     
  0.26844999999999997          1.6164361746746190     
  0.26929999999999998          1.6297252619770277     
  0.27015000000000000          1.6305154963062605     
  0.27099999999999996          1.6186591214204242     
  0.27184999999999998          1.5942029655006849     
  0.27270000000000000          1.5571757682619298     
  0.27354999999999996          1.5078470257099992     
  0.27439999999999998          1.4466252533930044     
  0.27524999999999999          1.3739801296115588     
  0.27609999999999996          1.2905076336206764     
  0.27694999999999997          1.1970160654686539     
  0.27779999999999999          1.0942887122786453     
  0.27865000000000001         0.98330001819864021     
  0.27949999999999997         0.86508510637659541     
  0.28034999999999999         0.74072841836294478     
  0.28120000000000001         0.61133773208925923     
  0.28204999999999997         0.47822363749981389     
  0.28289999999999998         0.34257864400051563     
  0.28375000000000000         0.20563799858966614     
  0.28459999999999996          6.8556320814036398E-002
  0.28544999999999998         -6.7313100084733790E-002
  0.28630000000000000        -0.20077210964391590     
  0.28714999999999996        -0.33065379824158658     
  0.28799999999999998        -0.45592074668017879     
  0.28885000000000000        -0.57534202893352526     
  0.28969999999999996        -0.68808932602768091     
  0.29054999999999997        -0.79319237477834914     
  0.29139999999999999        -0.88990914885930072     
  0.29224999999999995        -0.97755458659226502     
  0.29309999999999997         -1.0554507802190358     
  0.29394999999999999         -1.1232287995126633     
  0.29480000000000001         -1.1805437549265927     
  0.29564999999999997         -1.2271360647946907     
  0.29649999999999999         -1.2629286959227066     
  0.29735000000000000         -1.2879129036004231     
  0.29819999999999997         -1.3022604964821802     
  0.29904999999999998         -1.3060891917726114     
  0.29990000000000000         -1.2997478621414242     
  0.30074999999999996         -1.2836335030754911     
  0.30159999999999998         -1.2582579255053379     
  0.30245000000000000         -1.2241926716476572     
  0.30329999999999996         -1.1820665547093299     
  0.30414999999999998         -1.1326120749980373     
  0.30499999999999999         -1.0765500801037116     
  0.30584999999999996         -1.0147245720710227     
  0.30669999999999997        -0.94794352571710361     
  0.30754999999999999        -0.87698745321877125     
  0.30840000000000001        -0.80274373582370706     
  0.30924999999999997        -0.72591834867836935     
  0.31009999999999999        -0.64739539872326246     
  0.31095000000000000        -0.56795681164897083     
  0.31179999999999997        -0.48832620908152058     
  0.31264999999999998        -0.40925695165939435     
  0.31350000000000000        -0.33138153731707870     
  0.31434999999999996        -0.25535567117915237     
  0.31519999999999998        -0.18175250970190718     
  0.31605000000000000        -0.11106690974733119     
  0.31689999999999996         -4.3750351436261797E-002
  0.31774999999999998          1.9820314934748978E-002
  0.31859999999999999          7.9337178250845075E-002
  0.31944999999999996         0.13455753040055884     
  0.32029999999999997         0.18530391142677705     
  0.32114999999999999         0.23144539076627546     
  0.32199999999999995         0.27291616531265178     
  0.32284999999999997         0.30969008892972127     
  0.32369999999999999         0.34178987593666682     
  0.32455000000000001         0.36927035866081442     
  0.32539999999999997         0.39223438289706170     
  0.32624999999999998         0.41084284212264094     
  0.32710000000000000         0.42524738694498104     
  0.32794999999999996         0.43567687625783980     
  0.32879999999999998         0.44237089143695829     
  0.32965000000000000         0.44559708197131986     
  0.33049999999999996         0.44562463702018046     
  0.33134999999999998         0.44272568627158448     
  0.33220000000000000         0.43717558180057092     
  0.33304999999999996         0.42923624720037135     
  0.33389999999999997         0.41913642208278507     
  0.33474999999999999         0.40710756835941991     
  0.33559999999999995         0.39339916410849735     
  0.33644999999999997         0.37819952209259827     
  0.33729999999999999         0.36169304523587287     
  0.33815000000000001         0.34405778225942074     
  0.33899999999999997         0.32545890477215367     
  0.33984999999999999         0.30608712242992442     
  0.34070000000000000         0.28609230786944034     
  0.34154999999999996         0.26560472787692291     
  0.34239999999999998         0.24471590118479936     