 -0.12000000000000000          0.0000000000000000     
 -0.11914999999999999          0.0000000000000000     
 -0.11830000000000000          0.0000000000000000     
 -0.11745000000000000          0.0000000000000000     
 -0.11660000000000000          0.0000000000000000     
 -0.11574999999999999          0.0000000000000000     
 -0.11490000000000000          0.0000000000000000     
 -0.11405000000000000          0.0000000000000000     
 -0.11320000000000000          0.0000000000000000     
 -0.11234999999999999          0.0000000000000000     
 -0.11150000000000000          0.0000000000000000     
 -0.11065000000000000          0.0000000000000000     
 -0.10979999999999999          0.0000000000000000     
 -0.10894999999999999          6.4568851980375794E-031
 -0.10810000000000000          4.7398721748598031E-030
 -0.10725000000000000          2.4915752904918717E-029
 -0.10639999999999999          1.0449211887863403E-028
 -0.10554999999999999          3.7096178614505544E-028
 -0.10470000000000000          1.1325017991695226E-027
 -0.10385000000000000          3.0145840267605486E-027
 -0.10299999999999999          7.0297010995344884E-027
 -0.10214999999999999          1.4295647616891732E-026
 -0.10130000000000000          2.4828206750807957E-026
 -0.10045000000000000          3.4600044587601162E-026
  -9.9599999999999994E-002     3.0216009902321712E-026
  -9.8750000000000004E-002    -1.8271874059029827E-026
  -9.7900000000000001E-002    -1.6299093934872059E-025
  -9.7049999999999997E-002    -4.7395882865840092E-025
  -9.6199999999999994E-002    -1.0105035765334686E-024
  -9.5349999999999990E-002    -1.7502537744596123E-024
  -9.4500000000000001E-002    -2.4625030188902134E-024
  -9.3649999999999997E-002    -2.5353399904259861E-024
  -9.2799999999999994E-002    -8.1425476097360411E-025
  -9.1950000000000004E-002     4.4150713982353421E-024
  -9.1100000000000000E-002     1.5082116754099566E-023
  -9.0249999999999997E-002     3.2354768897295057E-023
  -8.9399999999999993E-002     5.4813795836680562E-023
  -8.8549999999999990E-002     7.5814104939663205E-023
  -8.7700000000000000E-002     8.0598294246884726E-023
  -8.6849999999999997E-002     4.4539971206596311E-023
  -8.5999999999999993E-002    -6.5156413508607451E-023
  -8.5150000000000003E-002    -2.8126131861618957E-022
  -8.4300000000000000E-002    -6.1893870330029448E-022
  -8.3449999999999996E-002    -1.0476713130278035E-021
  -8.2600000000000007E-002    -1.4557333857808282E-021
  -8.1749999999999989E-002    -1.6169869623676811E-021
  -8.0900000000000000E-002    -1.1782973805539205E-021
  -8.0049999999999996E-002     3.0613677130710626E-022
  -7.9199999999999993E-002     3.2639663392933633E-021
  -7.8350000000000003E-002     7.8946042802188226E-021
  -7.7499999999999999E-002     1.3859995738183204E-020
  -7.6649999999999996E-002     1.9918700070182299E-020
  -7.5800000000000006E-002     2.3606092505051511E-020
  -7.4949999999999989E-002     2.1131866732370022E-020
  -7.4099999999999999E-002     7.7211063922813731E-021
  -7.3249999999999996E-002    -2.1364445163551112E-020
  -7.2399999999999992E-002    -6.8959694170149820E-020
  -7.1550000000000002E-002    -1.3330870458254350E-019
  -7.0699999999999999E-002    -2.0490214252696473E-019
  -6.9849999999999995E-002    -2.6362020719383002E-019
  -6.9000000000000006E-002    -2.7743423299142934E-019
  -6.8149999999999988E-002    -2.0429756944914455E-019
  -6.7299999999999999E-002     1.0650010707458684E-021
  -6.6449999999999995E-002     3.7419008412841990E-019
  -6.5599999999999992E-002     9.2160947859862326E-019
  -6.4750000000000002E-002     1.5971252331373649E-018
  -6.3899999999999998E-002     2.2781616569601907E-018
  -6.3049999999999995E-002     2.7497540729873876E-018
  -6.2199999999999998E-002     2.7063746096980983E-018
  -6.1350000000000002E-002     1.7830646347143536E-018
  -6.0499999999999998E-002    -3.7416878425899512E-019
  -5.9650000000000002E-002    -3.9939057694970315E-018
  -5.8799999999999998E-002    -9.0261198917349740E-018
  -5.7950000000000002E-002    -1.4970041226026916E-017
  -5.7099999999999998E-002    -2.0720677658171230E-017
  -5.6249999999999994E-002    -2.4489450335244295E-017
  -5.5400000000000005E-002    -2.3867614236712897E-017
  -5.4550000000000001E-002    -1.6102522770809953E-017
  -5.3699999999999998E-002     1.3587743025606757E-018
  -5.2849999999999994E-002     3.0045643617202790E-017
  -5.2000000000000005E-002     6.9413663474857799E-017
  -5.1150000000000001E-002     1.1571381548344045E-016
  -5.0299999999999997E-002     1.6103316526351070E-016
  -4.9449999999999994E-002     1.9285721183742631E-016
  -4.8600000000000004E-002     1.9456865914548927E-016
  -4.7750000000000001E-002     1.4728872148110558E-016
  -4.6899999999999997E-002     3.3354147636777715E-017
  -4.6049999999999994E-002    -1.5853230181404113E-016
  -4.5200000000000004E-002    -4.2683002529679932E-016
  -4.4350000000000001E-002    -7.5024321386867954E-016
  -4.3499999999999997E-002    -1.0818075730395865E-015
  -4.2649999999999993E-002    -1.3459569530382781E-015
  -4.1800000000000004E-002    -1.4408655861536358E-015
  -4.0950000000000000E-002    -1.2482939793037660E-015
  -4.0099999999999997E-002    -6.5254875720028310E-016
  -3.9249999999999993E-002     4.3115999365773038E-016
  -3.8400000000000004E-002     2.0207095095564272E-015
  -3.7550000000000000E-002     4.0277713563519728E-015
  -3.6699999999999997E-002     6.2225278022860907E-015
  -3.5850000000000007E-002     8.2123657551874946E-015
  -3.5000000000000003E-002     9.4461735346706367E-015
  -3.4150000000000000E-002     9.2558778749400888E-015
  -3.3299999999999996E-002     6.9440447657985227E-015
  -3.2450000000000007E-002     1.9207512321734807E-015
  -3.1600000000000003E-002    -6.1166584419948026E-015
  -3.0750000000000000E-002    -1.6978856452758650E-014
  -2.9899999999999996E-002    -2.9786890124495463E-014
  -2.9050000000000006E-002    -4.2826404230025425E-014
  -2.8200000000000003E-002    -5.3507750313359588E-014
  -2.7349999999999999E-002    -5.8488451612908137E-014
  -2.6499999999999996E-002    -5.4005782030733570E-014
  -2.5650000000000006E-002    -3.6445306577205092E-014
  -2.4800000000000003E-002    -3.1348177275812992E-015
  -2.3949999999999999E-002     4.6696673531457989E-014
  -2.3099999999999996E-002     1.1091392976453602E-013
  -2.2250000000000006E-002     1.8360199778691269E-013
  -2.1400000000000002E-002     2.5455109084389437E-013
  -2.0549999999999999E-002     3.0934971778115151E-013
  -1.9699999999999995E-002     3.3032124432098874E-013
  -1.8850000000000006E-002     2.9847406990085235E-013
  -1.8000000000000002E-002     1.9650974377244292E-013
  -1.7149999999999999E-002     1.2756822072465462E-014
  -1.6299999999999995E-002    -2.5433173268474334E-013
  -1.5450000000000005E-002    -5.9171855863190010E-013
  -1.4600000000000002E-002    -9.6818617812366820E-013
  -1.3749999999999998E-002    -1.3325934076067719E-012
  -1.2899999999999995E-002    -1.6150035654096893E-012
  -1.2050000000000005E-002    -1.7315864307118330E-012
  -1.1200000000000002E-002    -1.5938455252758150E-012
  -1.0349999999999998E-002    -1.1221904912205275E-012
  -9.5000000000000084E-003    -2.6311096333209829E-013
  -8.6500000000000049E-003     9.9165876709894965E-013
  -7.8000000000000014E-003     2.5865252648638443E-012
  -6.9499999999999978E-003     4.3872807720138121E-012
  -6.1000000000000082E-003     6.1740684203611211E-012
  -5.2500000000000047E-003     7.6459561715215085E-012
  -4.4000000000000011E-003     8.4404356484176647E-012
  -3.5499999999999976E-003     8.1699334053827773E-012
  -2.7000000000000079E-003     6.4752513752349155E-012
  -1.8500000000000044E-003     3.0933083877603468E-012
  -1.0000000000000009E-003    -2.0667925186456985E-012
  -1.4999999999999736E-004    -8.8484088289891839E-012
   6.9999999999999230E-004    -1.6784827596215055E-011
   1.5499999999999958E-003    -2.5063451269457520E-011
   2.3999999999999994E-003    -3.2531111451929861E-011
   3.2500000000000029E-003    -3.7753242478001564E-011
   4.0999999999999925E-003    -3.9135595292526430E-011
   4.9499999999999961E-003    -3.5110340283465036E-011
   5.7999999999999996E-003    -2.4379913821816054E-011
   6.6499999999999893E-003    -6.2003285674466601E-012
   7.5000000000000067E-003     1.9324733327324111E-011
   8.3499999999999963E-003     5.0979231902652097E-011
   9.1999999999999860E-003     8.6247111708200277E-011
   1.0050000000000003E-002     1.2125305971120556E-010
   1.0899999999999993E-002     1.5088013165805620E-010
   1.1750000000000010E-002     1.6910212176893928E-010
   1.2600000000000000E-002     1.6954888795678232E-010
   1.3449999999999990E-002     1.4629600142335426E-010
   1.4300000000000007E-002     9.4835024717461491E-011
   1.5149999999999997E-002     1.3142844314294905E-011
   1.5999999999999986E-002    -9.7268266358127366E-011
   1.6850000000000004E-002    -2.3047207963131598E-010
   1.7699999999999994E-002    -3.7559150859386353E-010
   1.8549999999999983E-002    -5.1677577260983540E-010
   1.9400000000000001E-002    -6.3384378697854836E-010
   2.0249999999999990E-002    -7.0369693749040638E-010
   2.1100000000000008E-002    -7.0253088040647350E-010
   2.1949999999999997E-002    -6.0877418086214075E-010
   2.2799999999999987E-002    -4.0656876355719596E-010
   2.3650000000000004E-002    -8.9483102458722552E-011
   2.4499999999999994E-002     3.3596513489407722E-010
   2.5349999999999984E-002     8.4748385621132780E-010
   2.6200000000000001E-002     1.4054351204740384E-009
   2.7049999999999991E-002     1.9530455443440945E-009
   2.7900000000000008E-002     2.4188422025505115E-009
   2.8749999999999998E-002     2.7215842504985353E-009
   2.9599999999999987E-002     2.7777093806894456E-009
   3.0450000000000005E-002     2.5110024209844232E-009
   3.1299999999999994E-002     1.8638419859179667E-009
   3.2149999999999984E-002     8.0905360448294309E-010
   3.3000000000000002E-002    -6.3895973263532678E-010
   3.3849999999999991E-002    -2.4153049140778861E-009
   3.4700000000000009E-002    -4.3995034593537330E-009
   3.5549999999999998E-002    -6.4157149103384072E-009
   3.6399999999999988E-002    -8.2394865442997071E-009
   3.7250000000000005E-002    -9.6117242035908259E-009
   3.8099999999999995E-002    -1.0259876270850512E-008
   3.8949999999999985E-002    -9.9255020476324469E-009
   3.9800000000000002E-002    -8.3965367215493737E-009
   4.0649999999999992E-002    -5.5415322207537009E-009
   4.1500000000000009E-002    -1.3426631885009216E-009
   4.2349999999999999E-002     4.0765389152582837E-009
   4.3199999999999988E-002     1.0432689285662227E-008
   4.4050000000000006E-002     1.7277103522914883E-008
   4.4899999999999995E-002     2.4006635709743131E-008
   4.5749999999999985E-002     2.9892729634838844E-008
   4.6600000000000003E-002     3.4129192197049810E-008
   4.7449999999999992E-002     3.5897452291555430E-008
   4.8299999999999982E-002     3.4445810778739846E-008
   4.9149999999999999E-002     2.9177750699477523E-008
   4.9999999999999989E-002     1.9742091294648648E-008
   5.0850000000000006E-002     6.1169074518877574E-009
   5.1699999999999996E-002    -1.1321769446538309E-008
   5.2549999999999986E-002    -3.1755439222108092E-008
   5.3400000000000003E-002    -5.3911006358261724E-008
   5.4249999999999993E-002    -7.6087503641420235E-008
   5.5099999999999982E-002    -9.6225918210401420E-008
   5.5950000000000000E-002    -1.1202320188025182E-007
   5.6799999999999989E-002    -1.2108816512059996E-007
   5.7650000000000007E-002    -1.2113332405904769E-007
   5.8499999999999996E-002    -1.1019260709035638E-007
   5.9349999999999986E-002    -8.6851604898363099E-008
   6.0200000000000004E-002    -5.0474543584176565E-008
   6.1049999999999993E-002    -1.4089539540585755E-009
   6.1899999999999983E-002     5.8851230175198008E-008
   6.2750000000000000E-002     1.2756401036236339E-007
   6.3599999999999990E-002     2.0071705172480393E-007
   6.4450000000000007E-002     2.7310113218497702E-007
   6.5299999999999997E-002     3.3848982372587913E-007
   6.6149999999999987E-002     3.8993243682106439E-007
   6.7000000000000004E-002     4.2015778512536330E-007
   6.7849999999999994E-002     4.2208199836477926E-007
   6.8699999999999983E-002     3.8939990556724442E-007
   6.9550000000000001E-002     3.1723478316946014E-007
   7.0399999999999990E-002     2.0280921698812404E-007
   7.1249999999999980E-002     4.6092113280264938E-008
   7.2099999999999997E-002    -1.4963057207458110E-007
   7.2949999999999987E-002    -3.7731968769643062E-007
   7.3800000000000004E-002    -6.2593942068816903E-007
   7.4649999999999994E-002    -8.8046619380265854E-007
   7.5499999999999984E-002    -1.1221977845063144E-006
   7.6350000000000001E-002    -1.3294066229287691E-006
   7.7199999999999991E-002    -1.4783529777696227E-006
   7.8049999999999981E-002    -1.5446652647306506E-006
   7.8899999999999998E-002    -1.5050506304263482E-006
   7.9749999999999988E-002    -1.3392856712500918E-006
   8.0600000000000005E-002    -1.0323846841670158E-006
   8.1449999999999995E-002    -5.7683667914677630E-007
   8.2299999999999984E-002     2.5260632505478365E-008
   8.3150000000000002E-002     7.6033749800987770E-007
   8.3999999999999991E-002     1.6019506348634395E-006
   8.4849999999999981E-002     2.5100486374688944E-006
   8.5699999999999998E-002     3.4310918214247565E-006
   8.6549999999999988E-002     4.2991741870362690E-006
   8.7400000000000005E-002     5.0382921174400614E-006
   8.8249999999999995E-002     5.5657940764218845E-006
   8.9099999999999985E-002     5.7970123174252904E-006
   8.9950000000000002E-002     5.6509783884699675E-006
   9.0799999999999992E-002     5.0570057091507112E-006
   9.1649999999999981E-002     3.9618895727633232E-006
   9.2499999999999999E-002     2.3372443458888303E-006
   9.3349999999999989E-002     1.8660381908383808E-007
   9.4200000000000006E-002    -2.4483469599254433E-006
   9.5049999999999996E-002    -5.4829883567658952E-006
   9.5899999999999985E-002    -8.7870003222173597E-006
   9.6750000000000003E-002    -1.2184237651683493E-005
   9.7599999999999992E-002    -1.5455744086544055E-005
   9.8449999999999982E-002    -1.8346271187923195E-005
   9.9299999999999999E-002    -2.0574556108008204E-005
  0.10014999999999999         -2.1847309732763874E-005
  0.10099999999999998         -2.1876772468239810E-005
  0.10185000000000000         -2.0401214086286672E-005
  0.10269999999999999         -1.7207642244395645E-005
  0.10355000000000000         -1.2155615045288470E-005
  0.10439999999999999         -5.2007741865071360E-006
  0.10524999999999998          3.5834685440251830E-006
  0.10610000000000000          1.3987790010698366E-005
  0.10694999999999999          2.5654261466124260E-005
  0.10779999999999998          3.8070831713606264E-005
  0.10865000000000000          5.0574690103592334E-005
  0.10949999999999999          6.2365735269345724E-005
  0.11035000000000000          7.2531538997045158E-005
  0.11119999999999999          8.0083644566607444E-005
  0.11204999999999998          8.4005830924498539E-005
  0.11290000000000000          8.3312521194192071E-005
  0.11374999999999999          7.7116412359576293E-005
  0.11459999999999998          6.4702403479669412E-005
  0.11545000000000000          4.5604394834183827E-005
  0.11629999999999999          1.9680992173592906E-005
  0.11715000000000000         -1.2814569911549705E-005
  0.11799999999999999         -5.1175878192693354E-005
  0.11884999999999998         -9.4201334659813995E-005
  0.11970000000000000         -1.4017394775205235E-004
  0.12054999999999999         -1.8686849982082554E-004
  0.12139999999999998         -2.3158966178280361E-004
  0.12225000000000000         -2.7124502685915578E-004
  0.12309999999999999         -3.0245424859416800E-004
  0.12395000000000000         -3.2169415099792377E-004
  0.12479999999999999         -3.2547840668724131E-004
  0.12564999999999998         -3.1056657023410426E-004
  0.12650000000000000         -2.7419608108005238E-004
  0.12734999999999999         -2.1432819817137944E-004
  0.12819999999999998         -1.2989538340239934E-004
  0.12905000000000000         -2.1039158749863013E-005
  0.12989999999999999          1.1068074557700881E-004
  0.13074999999999998          2.6211696189544910E-004
  0.13159999999999999          4.2842548298759010E-004
  0.13245000000000001          6.0303043890797079E-004
  0.13329999999999997          7.7767680561723236E-004
  0.13414999999999999          9.4258517811169132E-004
  0.13500000000000001          1.0867140713963757E-003
  0.13584999999999997          1.1981366512166022E-003
  0.13669999999999999          1.2645277064747638E-003
  0.13755000000000001          1.2737564234127086E-003
  0.13839999999999997          1.2145681670988982E-003
  0.13924999999999998          1.0773377299367233E-003
  0.14010000000000000          8.5486309268253177E-004
  0.14094999999999996          5.4316791623869320E-004
  0.14179999999999998          1.4227104815528447E-004
  0.14265000000000000         -3.4312093613488612E-004
  0.14350000000000002         -9.0304110726059043E-004
  0.14434999999999998         -1.5218702775053206E-003
  0.14520000000000000         -2.1781571620198489E-003
  0.14605000000000001         -2.8447135390212465E-003
  0.14689999999999998         -3.4889972736408155E-003
  0.14774999999999999         -4.0738406610302605E-003
  0.14860000000000001         -4.5585131782358776E-003
  0.14944999999999997         -4.9001450234725033E-003
  0.15029999999999999         -5.0554721236474170E-003
  0.15115000000000001         -4.9828933881055221E-003
  0.15199999999999997         -4.6447684631714045E-003
  0.15284999999999999         -4.0098961838038807E-003
  0.15370000000000000         -3.0560734815118611E-003
  0.15454999999999997         -1.7726367361736196E-003
  0.15539999999999998         -1.6284305623077804E-004
  0.15625000000000000          1.7540152699863990E-003
  0.15709999999999996          3.9409290981566071E-003
  0.15794999999999998          6.3420497158225911E-003
  0.15880000000000000          8.8822599716406603E-003
  0.15965000000000001          1.1467571360589540E-002
  0.16049999999999998          1.3986427337407042E-002
  0.16134999999999999          1.6312019428818908E-002
  0.16220000000000001          1.8305590850092285E-002
  0.16304999999999997          1.9820817957222431E-002
  0.16389999999999999          2.0709134825481840E-002
  0.16475000000000001          2.0825936331483552E-002
  0.16559999999999997          2.0037534773577143E-002
  0.16644999999999999          1.8228654010583850E-002
  0.16730000000000000          1.5310142936506038E-002
  0.16814999999999997          1.1226777649216063E-002
  0.16899999999999998          5.9646641830025868E-003
  0.16985000000000000         -4.4204817481739624E-004
  0.17069999999999996         -7.9054743904486274E-003
  0.17154999999999998         -1.6279738139080749E-002
  0.17240000000000000         -2.5358535228590801E-002
  0.17325000000000002         -3.4874796243032025E-002
  0.17409999999999998         -4.4502719101276456E-002
  0.17494999999999999         -5.3862409703491321E-002
  0.17580000000000001         -6.2527453069105621E-002
  0.17664999999999997         -7.0034962074171148E-002
  0.17749999999999999         -7.5898853907123809E-002
  0.17835000000000001         -7.9625360180752391E-002
  0.17919999999999997         -8.0731250287275458E-002
  0.18004999999999999         -7.8763797348750719E-002
  0.18090000000000001         -7.3322589899583512E-002
  0.18174999999999997         -6.4082055389156345E-002
  0.18259999999999998         -5.0814663101176827E-002
  0.18345000000000000         -3.3413524266730166E-002
  0.18429999999999996         -1.1914322127843102E-002
  0.18514999999999998          1.3484862013626912E-002
  0.18600000000000000          4.2406040126867994E-002
  0.18684999999999996          7.4276629626203183E-002
  0.18769999999999998         0.10831859250305154     
  0.18855000000000000         0.14354162903797607     
  0.18940000000000001         0.17874026710418356     
  0.19024999999999997         0.21249558794324730     
  0.19109999999999999         0.24318061836451554     
  0.19195000000000001         0.26896964833501791     
  0.19279999999999997         0.28785044021862793     
  0.19364999999999999         0.29763790001198398     
  0.19450000000000001         0.29598922004159167     
  0.19534999999999997         0.28041753914290046     
  0.19619999999999999         0.24830341858121985     
  0.19705000000000000         0.19690232601952418     
  0.19789999999999996         0.12334344632442917     
  0.19874999999999998          2.4622456282770544E-002
  0.19960000000000000        -0.10242083982828720     
  0.20044999999999996        -0.26113628716070103     
  0.20129999999999998        -0.45511357346487369     
  0.20215000000000000        -0.68825446137942592     
  0.20300000000000001        -0.96486845579182212     
  0.20384999999999998         -1.2897808565576732     
  0.20469999999999999         -1.6684898632536793     
  0.20555000000000001         -2.1073270646430657     
  0.20639999999999997         -2.6136779971882760     
  0.20724999999999999         -3.1962094329142587     
  0.20810000000000001         -3.8651490291077408     
  0.20894999999999997         -4.6326062748409100     
  0.20979999999999999         -5.5129135912687062     
  0.21065000000000000         -6.5230502411514735     
  0.21149999999999997         -7.6830578930115507     
  0.21234999999999998         -9.0165454624981436     
  0.21320000000000000         -10.551245005749394     
  0.21404999999999996         -12.319599179989666     
  0.21489999999999998         -14.359413614208052     
  0.21575000000000000         -16.714619880446747     
  0.21659999999999996         -19.435979198114808     
  0.21744999999999998         -22.582042681747566     
  0.21829999999999999         -26.220076243290862     
  0.21915000000000001         -30.426957905107685     
  0.21999999999999997         -35.290572765000377     
  0.22084999999999999         -40.910722531111389     
  0.22170000000000001         -47.400700066110460     
  0.22254999999999997         -54.888533091325030     
  0.22339999999999999         -63.518719698241966     
  0.22425000000000000         -73.453806064474406     
  0.22509999999999997         -84.876176193330366     
  0.22594999999999998         -97.990010275520831     
  0.22680000000000000         -113.02319676695083     
  0.22764999999999996         -130.22983771467329     
  0.22849999999999998         -149.89202679137361     
  0.22935000000000000         -172.32232354145526     
  0.23019999999999996         -197.86656203805046     
  0.23104999999999998         -226.90549909482434     
  0.23190000000000000         -259.85824021673579     
  0.23275000000000001         -297.18322833561888     
  0.23359999999999997         -339.38218799271635     
  0.23444999999999999         -387.00064612916094     
  0.23530000000000001         -440.62989715607500     
  0.23614999999999997         -500.91067831521514     
  0.23699999999999999         -568.53210825365750     
  0.23785000000000001         -644.23245819522162     
  0.23869999999999997         -728.80085502525617     
  0.23954999999999999         -823.07485208659818     
  0.24040000000000000         -927.93832650238619     
  0.24124999999999996         -1044.3221466527020     
  0.24209999999999998         -1173.1987105903445     
  0.24295000000000000         -1315.5753090245762     
  0.24379999999999996         -1472.4909012941571     
  0.24464999999999998         -1645.0061094756365     
  0.24550000000000000         -1834.1939273711196     
  0.24634999999999996         -2041.1347018595970     
  0.24719999999999998         -2266.8923010669860     
  0.24804999999999999         -2512.5054183837092     
  0.24890000000000001         -2778.9736522900894     
  0.24974999999999997         -3067.2325216057834     
  0.25059999999999999         -3378.1353358729648     
  0.25145000000000001         -3712.4291769469382     
  0.25229999999999997         -4070.7310214323152     
  0.25314999999999999         -4453.5022656842630     
  0.25400000000000000         -4861.0088305171084     
  0.25484999999999997         -5293.3100607361339     
  0.25569999999999998         -5750.2087279198386     
  0.25655000000000000         -6231.2298208180800     
  0.25739999999999996         -6735.5645726168877     
  0.25824999999999998         -7262.0852231091412     
  0.25910000000000000         -7809.2448928267477     
  0.25994999999999996         -8375.1012728942878     
  0.26079999999999998         -8957.2573667933611     
  0.26164999999999999         -9552.8145535473304     
  0.26249999999999996         -10158.387982796907     
  0.26334999999999997         -10770.051283152730     
  0.26419999999999999         -11383.324354857759     
  0.26505000000000001         -11993.130775465295     
  0.26589999999999997         -12593.860894250814     
  0.26674999999999999         -13179.260613062201     
  0.26760000000000000         -13742.524613399655     
  0.26844999999999997         -14276.282783146249     
  0.26929999999999998         -14772.576379492297     
  0.27015000000000000         -15222.943196539170     
  0.27099999999999996         -15618.442740633327     
  0.27184999999999998         -15949.672765724201     
  0.27270000000000000         -16206.882013409326     
  0.27354999999999996         -16379.985155645336     
  0.27439999999999998         -16458.644337809965     
  0.27524999999999999         -16432.451706469787     
  0.27609999999999996         -16290.950757756436     
  0.27694999999999997         -16023.751088513367     
  0.27779999999999999         -15620.707117206533     
  0.27865000000000001         -15071.991885210620     
  0.27949999999999997         -14368.261236273873     
  0.28034999999999999         -13500.853046294695     
  0.28120000000000001         -12461.881583614348     
  0.28204999999999997         -11244.386721685732     
  0.28289999999999998         -9842.6150569032907     
  0.28375000000000000         -8251.9397437648149     
  0.28459999999999996         -6469.3131332745834     
  0.28544999999999998         -4493.1761567954236     
  0.28630000000000000         -2323.8429755709149     
  0.28714999999999996          36.603619869047861     
  0.28799999999999998          2584.0967571488200     
  0.28885000000000000          5312.4135285522862     
  0.28969999999999996          8213.0548017794572     
  0.29054999999999997          11275.367046969870     
  0.29139999999999999          14486.376340369665     
  0.29224999999999995          17830.684872314770     
  0.29309999999999997          21290.524830924754     
  0.29394999999999999          24845.948398496141     
  0.29480000000000001          28474.705918213294     
  0.29564999999999997          32152.258478615200     
  0.29649999999999999          35852.114447745786     
  0.29735000000000000          39546.101952028403     
  0.29819999999999997          43204.141817138938     
  0.29904999999999998          46794.642675541283     
  0.29990000000000000          50285.049676700844     
  0.30074999999999996          53641.687633215333     
  0.30159999999999998          56830.478487541841     
  0.30245000000000000          59816.843590760313     
  0.30329999999999996          62566.552748232440     
  0.30414999999999998          65045.547399211442     
  0.30499999999999999          67220.932851925376     
  0.30584999999999996          69060.781466954737     
  0.30669999999999997          70534.930834570085     
  0.30754999999999999          71615.261449488346     
  0.30840000000000001          72275.980332967127     
  0.30924999999999997          72494.215246974374     
  0.31009999999999999          72250.349952896941     
  0.31095000000000000          71528.066444657976     
  0.31179999999999997          70314.833265706431     
  0.31264999999999998          68602.488056579954     
  0.31350000000000000          66387.009753534803     
  0.31434999999999996          63668.936271052109     
  0.31519999999999998          60453.423226891318     
  0.31605000000000000          56750.490553237149     
  0.31689999999999996          52574.726213438844     
  0.31774999999999998          47945.794887620490     
  0.31859999999999999          42887.870504691615     
  0.31944999999999996          37429.789335514070     
  0.32029999999999997          31604.733625128283     
  0.32114999999999999          25450.065514959046     
  0.32199999999999995          19007.014962729270     
  0.32284999999999997          12320.194170128219     
  0.32369999999999999          5437.4717909138271     
  0.32455000000000001         -1590.7921576751119     
  0.32539999999999997         -8711.9779296253473     
  0.32624999999999998         -15871.924227097596     
  0.32710000000000000         -23015.203171053989     
  0.32794999999999996         -30086.033731166419     
  0.32879999999999998         -37028.723024425388     
  0.32965000000000000         -43788.013536050508     
  0.33049999999999996         -50310.019580247812     
  0.33134999999999998         -56542.579303634178     
  0.33220000000000000         -62436.155947284715     
  0.33304999999999996         -67943.636365994229     
  0.33389999999999997         -73021.692558457959     
  0.33474999999999999         -77630.819485488581     
  0.33559999999999995         -81735.711345650489     
  0.33644999999999997         -85305.557225449244     
  0.33729999999999999         -88314.882784322486     
  0.33815000000000001         -90743.213384367060     
  0.33899999999999997         -92575.589724118123     
  0.33984999999999999         -93802.511844061199     
  0.34070000000000000         -94420.186979432940     
  0.34154999999999996         -94430.143849547254     
  0.34239999999999998         -93840.028102229233     