 -0.12000000000000000          0.0000000000000000
 -0.11914999999999999          0.0000000000000000
 -0.11830000000000000          0.0000000000000000
 -0.11745000000000000          0.0000000000000000
 -0.11660000000000000          0.0000000000000000
 -0.11574999999999999          0.0000000000000000
 -0.11490000000000000          1.1974427249939054E-026
 -0.11405000000000000          1.2649129590455425E-025
 -0.11320000000000000          6.8807161605319596E-025
 -0.11234999999999999          2.5337733380772108E-024
 -0.11150000000000000          6.9697567382528630E-024
 -0.11065000000000000          1.4804813783784443E-023
 -0.10979999999999999          2.3717926462360536E-023
 -0.10894999999999999          2.4088758246542117E-023
 -0.10810000000000000         -4.4680768238400684E-024
 -0.10725000000000000         -9.0709252563683704E-023
 -0.10639999999999999         -2.5637147321816682E-022
 -0.10554999999999999         -4.8241740869322218E-022
 -0.10470000000000000         -6.5980158391228315E-022
 -0.10385000000000000         -5.4293196420657830E-022
 -0.10299999999999999          2.5739026059235848E-022
 -0.10214999999999999          2.1917985341434853E-021
 -0.10130000000000000          5.5565041557855631E-021
 -0.10045000000000000          1.0134550436327487E-020
  -9.9599999999999994E-002     1.4754207537945371E-020
  -9.8750000000000004E-002     1.6917341317535677E-020
  -9.7900000000000001E-002     1.2739018352522321E-020
  -9.7049999999999997E-002    -2.5187031611006213E-021
  -9.6199999999999994E-002    -3.3086973221713819E-020
  -9.5349999999999990E-002    -8.0449609785628748E-020
  -9.4500000000000001E-002    -1.4047206710026267E-019
  -9.3649999999999997E-002    -2.0054167459210624E-019
  -9.2799999999999994E-002    -2.3774992250098854E-019
  -9.1950000000000004E-002    -2.1941138094998429E-019
  -9.1100000000000000E-002    -1.0721520558777798E-019
  -9.0249999999999997E-002     1.3407108363225853E-019
  -8.9399999999999993E-002     5.2325178217166421E-019
  -8.8549999999999990E-002     1.0458752151481760E-018
  -8.7700000000000000E-002     1.6366981948350130E-018
  -8.6849999999999997E-002     2.1659280911284495E-018
  -8.5999999999999993E-002     2.4352285928331959E-018
  -8.5150000000000003E-002     2.1902744835875423E-018
  -8.4300000000000000E-002     1.1561783908808626E-018
  -8.3449999999999996E-002    -9.0025795003151343E-019
  -8.2600000000000007E-002    -4.0822926366673315E-018
  -8.1749999999999989E-002    -8.2572115140195890E-018
  -8.0900000000000000E-002    -1.2950261866698631E-017
  -8.0049999999999996E-002    -1.7266588389801953E-017
  -7.9199999999999993E-002    -1.9877827714956408E-017
  -7.8350000000000003E-002    -1.9113267197240569E-017
  -7.7499999999999999E-002    -1.3189725226771966E-017
  -7.6649999999999996E-002    -5.9579008983274392E-019
  -7.5800000000000006E-002     1.9386461999877502E-017
  -7.4949999999999989E-002     4.6083919348117400E-017
  -7.4099999999999999E-002     7.6871498190318527E-017
  -7.3249999999999996E-002     1.0680541314974077E-016
  -7.2399999999999992E-002     1.2863408732747379E-016
  -7.1550000000000002E-002     1.3335947270414942E-016
  -7.0699999999999999E-002     1.1146370842434519E-016
  -6.9849999999999995E-002     5.4804580542132953E-017
  -6.9000000000000006E-002    -4.0973517602285041E-017
  -6.8149999999999988E-002    -1.7384737536383996E-016
  -6.7299999999999999E-002    -3.3314513323808778E-016
  -6.6449999999999995E-002    -4.9821709889059224E-016
  -6.5599999999999992E-002    -6.3867951470045003E-016
  -6.4750000000000002E-002    -7.1674306492204548E-016
  -6.3899999999999998E-002    -6.9187042404495229E-016
  -6.3049999999999995E-002    -5.2760605697631432E-016
  -6.2199999999999998E-002    -1.9993764954324604E-016
  -6.1350000000000002E-002     2.9393302482401595E-016
  -6.0499999999999998E-002     9.2792926505521258E-016
  -5.9650000000000002E-002     1.6422663947744254E-015
  -5.8799999999999998E-002     2.3430985758283446E-015
  -5.7950000000000002E-002     2.9079166875375040E-015
  -5.7099999999999998E-002     3.1972818214304811E-015
  -5.6249999999999994E-002     3.0725749427417725E-015
  -5.5400000000000005E-002     2.4183846308170343E-015
  -5.4550000000000001E-002     1.1671411604560147E-015
  -5.3699999999999998E-002    -6.7723589737953777E-016
  -5.2849999999999994E-002    -3.0204353229871452E-015
  -5.2000000000000005E-002    -5.6674230184446356E-015
  -5.1150000000000001E-002    -8.3240944600730492E-015
  -5.0299999999999997E-002    -1.0613353137829795E-014
  -4.9449999999999994E-002    -1.2106624413842116E-014
  -4.8600000000000004E-002    -1.2369970953262950E-014
  -4.7750000000000001E-002    -1.1021897753621650E-014
  -4.6899999999999997E-002    -7.7977640095467623E-015
  -4.6049999999999994E-002    -2.6137584353042624E-015
  -4.5200000000000004E-002     4.3781053828808550E-015
  -4.4350000000000001E-002     1.2753230990395110E-014
  -4.3499999999999997E-002     2.1804849612065852E-014
  -4.2649999999999993E-002     3.0568809621988080E-014
  -4.1800000000000004E-002     3.7886946696643909E-014
  -4.0950000000000000E-002     4.2508832483192863E-014
  -4.0099999999999997E-002     4.3226451877419129E-014
  -3.9249999999999993E-002     3.9030663643672115E-014
  -3.8400000000000004E-002     2.9273308378084335E-014
  -3.7550000000000000E-002     1.3815097771184279E-014
  -3.6699999999999997E-002    -6.8618375465881016E-015
  -3.5850000000000007E-002    -3.1596325874536221E-014
  -3.5000000000000003E-002    -5.8560310139943167E-014
  -3.4150000000000000E-002    -8.5348328327545179E-014
  -3.3299999999999996E-002    -1.0914263069502038E-013
  -3.2450000000000007E-002    -1.2694236709105148E-013
  -3.1600000000000003E-002    -1.3583746256780158E-013
  -3.0750000000000000E-002    -1.3330079504386638E-013
  -2.9899999999999996E-002    -1.1747101436428631E-013
  -2.9050000000000006E-002    -8.7398881398791419E-014
  -2.8200000000000003E-002    -4.3235372174776123E-014
  -2.7349999999999999E-002     1.3653392005812157E-014
  -2.6499999999999996E-002     8.0651556891137340E-014
  -2.5650000000000006E-002     1.5394052596978604E-013
  -2.4800000000000003E-002     2.2862374812443666E-013
  -2.3949999999999999E-002     2.9892563805179331E-013
  -2.3099999999999996E-002     3.5845997595224322E-013
  -2.2250000000000006E-002     4.0056736196434019E-013
  -2.1400000000000002E-002     4.1871940697271010E-013
  -2.0549999999999999E-002     4.0698799375888216E-013
  -1.9699999999999995E-002     3.6056731180071296E-013
  -1.8850000000000006E-002     2.7633021479287041E-013
  -1.8000000000000002E-002     1.5338109392724879E-013
  -1.7149999999999999E-002    -6.4413005007003348E-015
  -1.6299999999999995E-002    -1.9817512526648649E-013
  -1.5450000000000005E-002    -4.1352184195001040E-013
  -1.4600000000000002E-002    -6.4086958985257874E-013
  -1.3749999999999998E-002    -8.6559711438765364E-013
  -1.2899999999999995E-002    -1.0706748908502460E-012
  -1.2050000000000005E-002    -1.2375524242111867E-012
  -1.1200000000000002E-002    -1.3472905903809593E-012
  -1.0349999999999998E-002    -1.3818634624375823E-012
  -9.5000000000000084E-003    -1.3255450502816983E-012
  -8.6500000000000049E-003    -1.1662856689722616E-012
  -7.8000000000000014E-003    -8.9698635419084657E-013
  -6.9499999999999978E-003    -5.1659128120163715E-013
  -6.1000000000000082E-003    -3.0947502376047165E-014
  -5.2500000000000047E-003     5.4662363675838384E-013
  -4.4000000000000011E-003     1.1950754464200215E-012
  -3.5499999999999976E-003     1.8857259477032728E-012
  -2.7000000000000079E-003     2.5827499956905648E-012
  -1.8500000000000044E-003     3.2440927805605376E-012
  -1.0000000000000009E-003     3.8228583303473559E-012
  -1.4999999999999736E-004     4.2692063374313816E-012
   6.9999999999999230E-004     4.5327537976415023E-012
   1.5499999999999958E-003     4.5654311626499367E-012
   2.3999999999999994E-003     4.3246977950984446E-012
   3.2500000000000029E-003     3.7769368337970372E-012
   4.0999999999999925E-003     2.9007978514894161E-012
   4.9499999999999961E-003     1.6902269572929332E-012
   5.7999999999999996E-003     1.5691003143716534E-013
   6.6499999999999893E-003    -1.6680960710534588E-012
   7.5000000000000067E-003    -3.7337346286204754E-012
   8.3499999999999963E-003    -5.9693533609366118E-012
   9.1999999999999860E-003    -8.2861489163878983E-012
   1.0050000000000003E-002    -1.0579494025576049E-011
   1.0899999999999993E-002    -1.2731984268287822E-011
   1.1750000000000010E-002    -1.4617002719725135E-011
   1.2600000000000000E-002    -1.6102613908263510E-011
   1.3449999999999990E-002    -1.7055676704215218E-011
   1.4300000000000007E-002    -1.7346185654652930E-011
   1.5149999999999997E-002    -1.6851873346040583E-011
   1.5999999999999986E-002    -1.5463214967333089E-011
   1.6850000000000004E-002    -1.3089012211819571E-011
   1.7699999999999994E-002    -9.6626061836299107E-012
   1.8549999999999983E-002    -5.1487288267575021E-012
   1.9400000000000001E-002     4.4919129819620496E-013
   2.0249999999999990E-002     7.0815321180536293E-012
   2.1100000000000008E-002     1.4645430115963201E-011
   2.1949999999999997E-002     2.2978790813687669E-011
   2.2799999999999987E-002     3.1856128347167607E-011
   2.3650000000000004E-002     4.0987074237762116E-011
   2.4499999999999994E-002     5.0018243670666039E-011
   2.5349999999999984E-002     5.8539246860860929E-011
   2.6200000000000001E-002     6.6093028275328920E-011
   2.7049999999999991E-002     7.2191112637993725E-011
   2.7900000000000008E-002     7.6333791112893514E-011
   2.8749999999999998E-002     7.8034803872700583E-011
   2.9599999999999987E-002     7.6850297185514932E-011
   3.0450000000000005E-002     7.2411528471563675E-011
   3.1299999999999994E-002     6.4460142315196520E-011
   3.2149999999999984E-002     5.2885261646226681E-011
   3.3000000000000002E-002     3.7761132260914538E-011
   3.3849999999999991E-002     1.9383656511147166E-011
   3.4700000000000009E-002    -1.6953623677154561E-012
   3.5549999999999998E-002    -2.4637973893244431E-011
   3.6399999999999988E-002    -4.8295066726015712E-011
   3.7250000000000005E-002    -7.1187857456359382E-011
   3.8099999999999995E-002    -9.1496574473699047E-011
   3.8949999999999985E-002    -1.0705714760569003E-010
   3.9800000000000002E-002    -1.1536456050327545E-010
   4.0649999999999992E-002    -1.1358337260808074E-010
   4.1500000000000009E-002    -9.8562258737061900E-011
   4.2349999999999999E-002    -6.6850689349716826E-011
   4.3199999999999988E-002    -1.4714120020998691E-011
   4.4050000000000006E-002     6.1856832237191042E-011
   4.4899999999999995E-002     1.6714813326246789E-010
   4.5749999999999985E-002     3.0573578509232490E-010
   4.6600000000000003E-002     4.8252360193730416E-010
   4.7449999999999992E-002     7.0280233199876277E-010
   4.8299999999999982E-002     9.7233970781681613E-010
   4.9149999999999999E-002     1.2975005267118890E-009
   4.9999999999999989E-002     1.6854077872085563E-009
   5.0850000000000006E-002     2.1441337727042629E-009
   5.1699999999999996E-002     2.6829361358043398E-009
   5.2549999999999986E-002     3.3125370625343569E-009
   5.3400000000000003E-002     4.0454257351251850E-009
   5.4249999999999993E-002     4.8962216520109505E-009
   5.5099999999999982E-002     5.8820620836779639E-009
   5.5950000000000000E-002     7.0230435709113212E-009
   5.6799999999999989E-002     8.3427042067559884E-009
   5.7650000000000007E-002     9.8685438108842550E-009
   5.8499999999999996E-002     1.1632604100593420E-008
   5.9349999999999986E-002     1.3672115452459173E-008
   6.0200000000000004E-002     1.6030187996410237E-008
   6.1049999999999993E-002     1.8756571691319138E-008
   6.1899999999999983E-002     2.1908543705561949E-008
   6.2750000000000000E-002     2.5551818922417190E-008
   6.3599999999999990E-002     2.9761582369830312E-008
   6.4450000000000007E-002     3.4623672691306503E-008
   6.5299999999999997E-002     4.0235833966722151E-008
   6.6149999999999987E-002     4.6709092220189869E-008
   6.7000000000000004E-002     5.4169271492433639E-008
   6.7849999999999994E-002     6.2758846372464048E-008
   6.8699999999999983E-002     7.2638568402902141E-008
   6.9550000000000001E-002     8.3989699987231147E-008
   7.0399999999999990E-002     9.7016001375820939E-008
   7.1249999999999980E-002     1.1194634516361479E-007
   7.2099999999999997E-002     1.2903720513397205E-007
   7.2949999999999987E-002     1.4857538346615170E-007
   7.3800000000000004E-002     1.7088121440355534E-007
   7.4649999999999994E-002     1.9631106433026308E-007
   7.5499999999999984E-002     2.2526120831939022E-007
   7.6350000000000001E-002     2.5817076481990778E-007
   7.7199999999999991E-002     2.9552523882387373E-007
   7.8049999999999981E-002     3.3785975171542772E-007
   7.8899999999999998E-002     3.8576364535185243E-007
   7.9749999999999988E-002     4.3988229342041162E-007
   8.0600000000000005E-002     5.0092217691020511E-007
   8.1449999999999995E-002     5.6965251237645334E-007
   8.2299999999999984E-002     6.4691076652665458E-007
   8.3150000000000002E-002     7.3360435528989022E-007
   8.3999999999999991E-002     8.3071395427785227E-007
   8.4849999999999981E-002     9.3929484621822638E-007
   8.5699999999999998E-002     1.0604799797565446E-006
   8.6549999999999988E-002     1.1954809022555854E-006
   8.7400000000000005E-002     1.3455884964656096E-006
   8.8249999999999995E-002     1.5121721267574419E-006
   8.9099999999999985E-002     1.6966784889274929E-006
   8.9950000000000002E-002     1.9006314255700748E-006
   9.0799999999999992E-002     2.1256248923956640E-006
   9.1649999999999981E-002     2.3733218202663226E-006
   9.2499999999999999E-002     2.6454437316761017E-006
   9.3349999999999989E-002     2.9437662976012813E-006
   9.4200000000000006E-002     3.2701019558190307E-006
   9.5049999999999996E-002     3.6262990927858767E-006
   9.5899999999999985E-002     4.0142197817456542E-006
   9.6750000000000003E-002     4.4357219937082646E-006
   9.7599999999999992E-002     4.8926419052093766E-006
   9.8449999999999982E-002     5.3867748429393441E-006
   9.9299999999999999E-002     5.9198469659065392E-006
  0.10014999999999999          6.4934793867836488E-006
  0.10099999999999998          7.1091867285272879E-006
  0.10185000000000000          7.7683151045550797E-006
  0.10269999999999999          8.4720234143551931E-006
  0.10355000000000000          9.2212414315104550E-006
  0.10439999999999999          1.0016600787971732E-005
  0.10524999999999998          1.0858449790737488E-005
  0.10610000000000000          1.1746797599896330E-005
  0.10694999999999999          1.2681231865860802E-005
  0.10779999999999998          1.3660910542484744E-005
  0.10865000000000000          1.4684506293138036E-005
  0.10949999999999999          1.5750148188095235E-005
  0.11035000000000000          1.6855420544690530E-005
  0.11119999999999999          1.7997273202406391E-005
  0.11204999999999998          1.9171991541000934E-005
  0.11290000000000000          2.0375228983812499E-005
  0.11374999999999999          2.1601849861564588E-005
  0.11459999999999998          2.2846043726691567E-005
  0.11545000000000000          2.4101134679423923E-005
  0.11629999999999999          2.5359733741021120E-005
  0.11715000000000000          2.6613689641546819E-005
  0.11799999999999999          2.7853977452094862E-005
  0.11884999999999998          2.9070825590762470E-005
  0.11970000000000000          3.0253714433130470E-005
  0.12054999999999999          3.1391394890198481E-005
  0.12139999999999998          3.2471889821304769E-005
  0.12225000000000000          3.3482576188083643E-005
  0.12309999999999999          3.4410318497642903E-005
  0.12395000000000000          3.5241337471070969E-005
  0.12479999999999999          3.5961584771969302E-005
  0.12564999999999998          3.6556550400362128E-005
  0.12650000000000000          3.7011686943933020E-005
  0.12734999999999999          3.7312244048072967E-005
  0.12819999999999998          3.7443625015811073E-005
  0.12905000000000000          3.7391325353908415E-005
  0.12989999999999999          3.7141224587806125E-005
  0.13074999999999998          3.6679787995539424E-005
  0.13159999999999999          3.5994223599002230E-005
  0.13245000000000001          3.5072453012966290E-005
  0.13329999999999997          3.3903687902396061E-005
  0.13414999999999999          3.2478113085148921E-005
  0.13500000000000001          3.0787496323150508E-005
  0.13584999999999997          2.8825251923418266E-005
  0.13669999999999999          2.6586473882111709E-005
  0.13755000000000001          2.4068077446708708E-005
  0.13839999999999997          2.1269213694501418E-005
  0.13924999999999998          1.8191196727655073E-005
  0.14010000000000000          1.4837676344880652E-005
  0.14094999999999996          1.1214769115542516E-005
  0.14179999999999998          7.3309376480888628E-006
  0.14265000000000000          3.1974478678824010E-006
  0.14350000000000002         -1.1718896114862857E-006
  0.14434999999999998         -5.7605603009409180E-006
  0.14520000000000000         -1.0549612098587612E-005
  0.14605000000000001         -1.5517452763204557E-005
  0.14689999999999998         -2.0640042550396487E-005
  0.14774999999999999         -2.5890832546785718E-005
  0.14860000000000001         -3.1241192990826771E-005
  0.14944999999999997         -3.6660524326529024E-005
  0.15029999999999999         -4.2116368788573445E-005
  0.15115000000000001         -4.7574520211875877E-005
  0.15199999999999997         -5.2999398917813074E-005
  0.15284999999999999         -5.8354561801277575E-005
  0.15370000000000000         -6.3602572529107123E-005
  0.15454999999999997         -6.8705726233264349E-005
  0.15539999999999998         -7.3625984463660400E-005
  0.15625000000000000         -7.8325648830765651E-005
  0.15709999999999996         -8.2767548278160871E-005
  0.15794999999999998         -8.6915613074665840E-005
  0.15880000000000000         -9.0735035720854624E-005
  0.15965000000000001         -9.4192578177950634E-005
  0.16049999999999998         -9.7257136842192302E-005
  0.16134999999999999         -9.9899978587268551E-005
  0.16220000000000001         -1.0209505557169696E-004
  0.16304999999999997         -1.0381931447629603E-004
  0.16389999999999999         -1.0505299615267876E-004
  0.16475000000000001         -1.0577980391143381E-004
  0.16559999999999997         -1.0598731552824305E-004
  0.16644999999999999         -1.0566681652291639E-004
  0.16730000000000000         -1.0481373811299568E-004
  0.16814999999999997         -1.0342764613889350E-004
  0.16899999999999998         -1.0151215766613445E-004
  0.16985000000000000         -9.9075299262011110E-005
  0.17069999999999996         -9.6129072458992772E-005
  0.17154999999999998         -9.2689446838239512E-005
  0.17240000000000000         -8.8776549521535133E-005
  0.17325000000000002         -8.4414230434371625E-005
  0.17409999999999998         -7.9629865700304932E-005
  0.17494999999999999         -7.4454357638399814E-005
  0.17580000000000001         -6.8921092655808644E-005
  0.17664999999999997         -6.3066698777263574E-005
  0.17749999999999999         -5.6929887483360744E-005
  0.17835000000000001         -5.0551265839984599E-005
  0.17919999999999997         -4.3973399631956061E-005
  0.18004999999999999         -3.7240342004035304E-005
  0.18090000000000001         -3.0396053354780946E-005
  0.18174999999999997         -2.3485571937637919E-005
  0.18259999999999998         -1.6553865625627502E-005
  0.18345000000000000         -9.6450459135724774E-006
  0.18429999999999996         -2.8030780578037189E-006
  0.18514999999999998          3.9299672628192728E-006
  0.18600000000000000          1.0513000327216452E-005
  0.18684999999999996          1.6907481563434992E-005
  0.18769999999999998          2.3076529387703197E-005
  0.18855000000000000          2.8986435043365122E-005
  0.18940000000000001          3.4605710548468037E-005
  0.19024999999999997          3.9906262771466431E-005
  0.19109999999999999          4.4863073688981221E-005
  0.19195000000000001          4.9454086035652294E-005
  0.19279999999999997          5.3661297929265893E-005
  0.19364999999999999          5.7469565346925200E-005
  0.19450000000000001          6.0868088872420457E-005
  0.19534999999999997          6.3848950332438519E-005
  0.19619999999999999          6.6407850008907163E-005
  0.19705000000000000          6.8544080362704501E-005
  0.19789999999999996          7.0260009338325748E-005
  0.19874999999999998          7.1561323294633524E-005
  0.19960000000000000          7.2456354871115633E-005
  0.20044999999999996          7.2956685028127834E-005
  0.20129999999999998          7.3076193654493404E-005
  0.20215000000000000          7.2831193700651758E-005
  0.20300000000000001          7.2240064393693055E-005
  0.20384999999999998          7.1322897378936153E-005
  0.20469999999999999          7.0101509874368555E-005
  0.20555000000000001          6.8598850015560363E-005
  0.20639999999999997          6.6838778815085989E-005
  0.20724999999999999          6.4846162676451474E-005
  0.20810000000000001          6.2646082832390642E-005
  0.20894999999999997          6.0263962164661335E-005
  0.20979999999999999          5.7725133135984978E-005
  0.21065000000000000          5.5054703052207819E-005
  0.21149999999999997          5.2277457977278843E-005
  0.21234999999999998          4.9417372930078357E-005
  0.21320000000000000          4.6497734419548477E-005
  0.21404999999999996          4.3540716943720137E-005
  0.21489999999999998          4.0567433120670737E-005
  0.21575000000000000          3.7597743421083848E-005
  0.21659999999999996          3.4650189908296759E-005
  0.21744999999999998          3.1741820314520914E-005
  0.21829999999999999          2.8888180472662624E-005
  0.21915000000000001          2.6103397685872457E-005
  0.21999999999999997          2.3399917771883214E-005
  0.22084999999999999          2.0788592386445464E-005
  0.22170000000000001          1.8278824952242450E-005
  0.22254999999999997          1.5878512206404487E-005
  0.22339999999999999          1.3593977917888152E-005
  0.22425000000000000          1.1430230151714424E-005
  0.22509999999999997          9.3909303197971068E-006
  0.22594999999999998          7.4784149646254194E-006
  0.22680000000000000          5.6939166235727862E-006
  0.22764999999999996          4.0375352048750597E-006
  0.22849999999999998          2.5084016082406373E-006
  0.22935000000000000          1.1046460359122373E-006
  0.23019999999999996         -1.7634916982218806E-007
  0.23104999999999998         -1.3380461254112998E-006
  0.23190000000000000         -2.3844394305965938E-006
  0.23275000000000001         -3.3201137130851114E-006
  0.23359999999999997         -4.1501163266041899E-006
  0.23444999999999999         -4.8797778232065888E-006
  0.23530000000000001         -5.5146553505099078E-006
  0.23614999999999997         -6.0606025479950393E-006
  0.23699999999999999         -6.5234525689836452E-006
  0.23785000000000001         -6.9091425263389376E-006
  0.23869999999999997         -7.2235626549186623E-006
  0.23954999999999999         -7.4724938810269722E-006
  0.24040000000000000         -7.6616614121390015E-006
  0.24124999999999996         -7.7965650978862260E-006
  0.24209999999999998         -7.8825447709201149E-006
  0.24295000000000000         -7.9247013028754056E-006
  0.24379999999999996         -7.9279537738739162E-006
  0.24464999999999998         -7.8968810239273868E-006
  0.24550000000000000         -7.8358177789094452E-006
  0.24634999999999996         -7.7487871859898722E-006
  0.24719999999999998         -7.6394472140991634E-006
  0.24804999999999999         -7.5112189785752152E-006
  0.24890000000000001         -7.3671780572761529E-006
  0.24974999999999997         -7.2100318660822052E-006
  0.25059999999999999         -7.0422962960197346E-006
  0.25145000000000001         -6.8661540614564268E-006
  0.25229999999999997         -6.6835326794836602E-006
  0.25314999999999999         -6.4961653662696187E-006
  0.25400000000000000         -6.3055065004878117E-006
  0.25484999999999997         -6.1128074295129741E-006
  0.25569999999999998         -5.9192046799770573E-006
  0.25655000000000000         -5.7255410782473317E-006
  0.25739999999999996         -5.5326122197521591E-006
  0.25824999999999998         -5.3410187360513577E-006
  0.25910000000000000         -5.1511629366519385E-006
  0.25994999999999996         -4.9634016806681827E-006
  0.26079999999999998         -4.7780038823886578E-006
  0.26164999999999999         -4.5950795223640508E-006
  0.26249999999999996         -4.4147123149958014E-006
  0.26334999999999997         -4.2369347792594488E-006
  0.26419999999999999         -4.0617813828552503E-006
  0.26505000000000001         -3.8892303457987421E-006
  0.26589999999999997         -3.7193359001330196E-006
  0.26674999999999999         -3.5521401930155446E-006
  0.26760000000000000         -3.3876969258703470E-006
  0.26844999999999997         -3.2261229856234177E-006
  0.26929999999999998         -3.0675364433836577E-006
  0.27015000000000000         -2.9120837834962798E-006
  0.27099999999999996         -2.7599207080786586E-006
  0.27184999999999998         -2.6112095865624311E-006
  0.27270000000000000         -2.4661112832423136E-006
  0.27354999999999996         -2.3247902236254783E-006
  0.27439999999999998         -2.1874214349494511E-006
  0.27524999999999999         -2.0541567314397232E-006
  0.27609999999999996         -1.9251770704936608E-006
  0.27694999999999997         -1.8006670001206297E-006
  0.27779999999999999         -1.6808510043774150E-006
  0.27865000000000001         -1.5659724586866089E-006
  0.27949999999999997         -1.4563035952654669E-006
  0.28034999999999999         -1.3521663678474169E-006
  0.28120000000000001         -1.2538576377926040E-006
  0.28204999999999997         -1.1616929241129832E-006
  0.28289999999999998         -1.0759679162151333E-006
  0.28375000000000000         -9.9694749877987072E-007
  0.28459999999999996         -9.2482413949506114E-007
  0.28544999999999998         -8.5974357085809496E-007
  0.28630000000000000         -8.0177717718618017E-007
  0.28714999999999996         -7.5094062022492986E-007
  0.28799999999999998         -7.0718126627325664E-007
  0.28885000000000000         -6.7039278885972082E-007
  0.28969999999999996         -6.4043427573405206E-007
  0.29054999999999997         -6.1714625360162691E-007
  0.29139999999999999         -6.0033044511514259E-007
  0.29224999999999995         -5.8974772189830326E-007
  0.29309999999999997         -5.8515263013251167E-007
  0.29394999999999999         -5.8625110095517456E-007
  0.29480000000000001         -5.9268914926262392E-007
  0.29564999999999997         -6.0406976060149298E-007
  0.29649999999999999         -6.1991784494545725E-007
  0.29735000000000000         -6.3970015450580733E-007
  0.29819999999999997         -6.6282560058530648E-007
  0.29904999999999998         -6.8864459742649184E-007
  0.29990000000000000         -7.1647818474075392E-007
  0.30074999999999996         -7.4562349401335263E-007
  0.30159999999999998         -7.7536776432617987E-007
  0.30245000000000000         -8.0501105836859169E-007
  0.30329999999999996         -8.3389425405231073E-007
  0.30414999999999998         -8.6136672734873006E-007
  0.30499999999999999         -8.8683669171187998E-007
  0.30584999999999996         -9.0974160185528070E-007
  0.30669999999999997         -9.2957785164976594E-007
  0.30754999999999999         -9.4587243987246934E-007
  0.30840000000000001         -9.5819323376119051E-007
  0.30924999999999997         -9.6615405482322618E-007
  0.31009999999999999         -9.6941605064375729E-007
  0.31095000000000000         -9.6768358564132859E-007
  0.31179999999999997         -9.6070852270025798E-007
  0.31264999999999998         -9.4830460458038312E-007
  0.31350000000000000         -9.3034878904772307E-007
  0.31434999999999996         -9.0678928306741835E-007
  0.31519999999999998         -8.7765765419150864E-007
  0.31605000000000000         -8.4307355130853843E-007
  0.31689999999999996         -8.0325415396037382E-007
  0.31774999999999998         -7.5850383531033779E-007
  0.31859999999999999         -7.0923401437820705E-007
  0.31944999999999996         -6.5593909700995432E-007
  0.32029999999999997         -5.9918082593090310E-007
  0.32114999999999999         -5.3958840758322165E-007
  0.32199999999999995         -4.7782826870319823E-007
  0.32284999999999997         -4.1458630360581903E-007
  0.32369999999999999         -3.5055671500143369E-007
  0.32455000000000001         -2.8641844981859348E-007
  0.32539999999999997         -2.2283747270900828E-007
  0.32624999999999998         -1.6045438999586600E-007
  0.32710000000000000         -9.9880427577003296E-008
  0.32794999999999996         -4.1707231550281342E-008
  0.32879999999999998          1.3502205829793497E-008
  0.32965000000000000          6.5209843462370496E-008
  0.33049999999999996          1.1290855990397825E-007
  0.33134999999999998          1.5613310952418103E-007
  0.33220000000000000          1.9445933242069902E-007
  0.33304999999999996          2.2752840878697333E-007
  0.33389999999999997          2.5503863893936941E-007
  0.33474999999999999          2.7676802260364680E-007
  0.33559999999999995          2.9257429374938094E-007
  0.33644999999999997          3.0239808416718429E-007
  0.33729999999999999          3.0624589492618793E-007
  0.33815000000000001          3.0420819466793107E-007
  0.33899999999999997          2.9642861986189232E-007
  0.33984999999999999          2.8310101633540199E-007
  0.34070000000000000          2.6447026420378193E-007
  0.34154999999999996          2.4081671062438069E-007
  0.34239999999999998          2.1244668720545020E-007
  0.34325000000000000          1.7970272145959751E-007