 -0.12000000000000000          0.0000000000000000
 -0.11914999999999999          0.0000000000000000
 -0.11830000000000000          0.0000000000000000
 -0.11745000000000000          0.0000000000000000
 -0.11660000000000000          0.0000000000000000
 -0.11574999999999999          0.0000000000000000
 -0.11490000000000000          0.0000000000000000
 -0.11405000000000000          0.0000000000000000
 -0.11320000000000000          0.0000000000000000
 -0.11234999999999999          7.7586263424533850E-036
 -0.11150000000000000          1.0891158272010299E-034
 -0.11065000000000000          7.6213125836414581E-034
 -0.10979999999999999          3.4843889558182421E-033
 -0.10894999999999999          1.1378555479409677E-032
 -0.10810000000000000          2.6696144573101125E-032
 -0.10725000000000000          3.9332062523280473E-032
 -0.10639999999999999          5.6189054228467948E-034
 -0.10554999999999999         -2.0909486220628101E-031
 -0.10470000000000000         -7.7004737705468221E-031
 -0.10385000000000000         -1.7691451414818589E-030
 -0.10299999999999999         -2.7803508481728859E-030
 -0.10214999999999999         -2.1877745335031468E-030
 -0.10130000000000000          3.3563042445567947E-030
 -0.10045000000000000          1.8320649557844008E-029
  -9.9599999999999994E-002     4.4995082075194632E-029
  -9.8750000000000004E-002     7.6343771028133839E-029
  -9.7900000000000001E-002     8.6168485543137589E-029
  -9.7049999999999997E-002     2.2541578269988880E-029
  -9.6199999999999994E-002    -1.8339383604223193E-028
  -9.5349999999999990E-002    -5.7771398180834888E-028
  -9.4500000000000001E-002    -1.1036965620268043E-027
  -9.3649999999999997E-002    -1.4950463956313203E-027
  -9.2799999999999994E-002    -1.1974815144709586E-027
  -9.1950000000000004E-002     5.7735316449615959E-028
  -9.1100000000000000E-002     4.5357983391298603E-027
  -9.0249999999999997E-002     1.0637703565678176E-026
  -8.9399999999999993E-002     1.7156141282591750E-026
  -8.8549999999999990E-002     1.9818801160698183E-026
  -8.7700000000000000E-002     1.1733770550607180E-026
  -8.6849999999999997E-002    -1.4964713844236482E-026
  -8.5999999999999993E-002    -6.4961378642270844E-026
  -8.5150000000000003E-002    -1.3311006514501093E-025
  -8.4300000000000000E-002    -1.9688849671320914E-025
  -8.3449999999999996E-002    -2.1168659798115386E-025
  -8.2600000000000007E-002    -1.1456317251838498E-025
  -8.1749999999999989E-002     1.5751742036333242E-025
  -8.0900000000000000E-002     6.3164691642414956E-025
  -8.0049999999999996E-002     1.2486929430502608E-024
  -7.9199999999999993E-002     1.8131841624838292E-024
  -7.8350000000000003E-002     1.9701029259364844E-024
  -7.7499999999999999E-002     1.2439920679800852E-024
  -7.6649999999999996E-002    -8.2643922821163932E-025
  -7.5800000000000006E-002    -4.4453362776435845E-024
  -7.4949999999999989E-002    -9.2376713115502676E-024
  -7.4099999999999999E-002    -1.3937750903852297E-023
  -7.3249999999999996E-002    -1.6241448210526186E-023
  -7.2399999999999992E-002    -1.3016041022864397E-023
  -7.1550000000000002E-002    -1.0455133546127748E-024
  -7.0699999999999999E-002     2.1615162544153039E-023
  -6.9849999999999995E-002     5.3810505227022737E-023
  -6.9000000000000006E-002     8.9405590504512952E-023
  -6.8149999999999988E-002     1.1609602931172359E-022
  -6.7299999999999999E-002     1.1586792028407321E-022
  -6.6449999999999995E-002     6.8058366358256533E-023
  -6.5599999999999992E-002    -4.4413395029360294E-023
  -6.4750000000000002E-002    -2.2590645967297215E-022
  -6.3899999999999998E-002    -4.5751730142210811E-022
  -6.3049999999999995E-002    -6.8809794428461246E-022
  -6.2199999999999998E-002    -8.3106340737334410E-022
  -6.1350000000000002E-002    -7.7176388243347243E-022
  -6.0499999999999998E-002    -3.8943357173456624E-022
  -5.9650000000000002E-002     4.0481830768587272E-022
  -5.8799999999999998E-002     1.6169744601014133E-021
  -5.7950000000000002E-002     3.1150298380530735E-021
  -5.7099999999999998E-002     4.5853246980128882E-021
  -5.6249999999999994E-002     5.5209448259387396E-021
  -5.5400000000000005E-002     5.2645228737174765E-021
  -5.4550000000000001E-002     3.1236171631280263E-021
  -5.3699999999999998E-002    -1.4349598910542410E-021
  -5.2849999999999994E-002    -8.5254060748477446E-021
  -5.2000000000000005E-002    -1.7557970391678405E-020
  -5.1150000000000001E-002    -2.6998038389814252E-020
  -5.0299999999999997E-002    -3.4263395468121152E-020
  -4.9449999999999994E-002    -3.5865322253149249E-020
  -4.8600000000000004E-002    -2.7887445978130652E-020
  -4.7750000000000001E-002    -6.8527577323390527E-021
  -4.6899999999999997E-002     2.9050457510286869E-020
  -4.6049999999999994E-002     7.8525842105790361E-020
  -4.5200000000000004E-002     1.3578417248966353E-019
  -4.4350000000000001E-002     1.8961838145972611E-019
  -4.3499999999999997E-002     2.2342688438059585E-019
  -4.2649999999999993E-002     2.1667494710253068E-019
  -4.1800000000000004E-002     1.4816021632888345E-019
  -4.0950000000000000E-002     1.1676587076510483E-021
  -4.0099999999999997E-002    -2.2984133274080802E-019
  -3.9249999999999993E-002    -5.3192625507590780E-019
  -3.8400000000000004E-002    -8.6727979610035421E-019
  -3.7550000000000000E-002    -1.1698006179904191E-018
  -3.6699999999999997E-002    -1.3469268359555185E-018
  -3.5850000000000007E-002    -1.2888398437941931E-018
  -3.5000000000000003E-002    -8.8635387258728235E-019
  -3.4150000000000000E-002    -5.7331573122790718E-020
  -3.3299999999999996E-002     1.2206367504858702E-018
  -3.2450000000000007E-002     2.8760543995447370E-018
  -3.1600000000000003E-002     4.7151018894617179E-018
  -3.0750000000000000E-002     6.4081049419724461E-018
  -2.9899999999999996E-002     7.5006213227373042E-018
  -2.9050000000000006E-002     7.4574749331844093E-018
  -2.8200000000000003E-002     5.7442757258088241E-018
  -2.7349999999999999E-002     1.9445468885035222E-018
  -2.6499999999999996E-002    -4.0979414329358431E-018
  -2.5650000000000006E-002    -1.2131699716327447E-017
  -2.4800000000000003E-002    -2.1374083391070825E-017
  -2.3949999999999999E-002    -3.0447518999663177E-017
  -2.3099999999999996E-002    -3.7412387283813626E-017
  -2.2250000000000006E-002    -3.9927811270110902E-017
  -2.1400000000000002E-002    -3.5557451257620996E-017
  -2.0549999999999999E-002    -2.2214533217958326E-017
  -1.9699999999999995E-002     1.2892794839333698E-018
  -1.8850000000000006E-002     3.4659556243886820E-017
  -1.8000000000000002E-002     7.5598979632224908E-017
  -1.7149999999999999E-002     1.1947328460068142E-016
  -1.6299999999999995E-002     1.5929234486489901E-016
  -1.5450000000000005E-002     1.8611991688061876E-016
  -1.4600000000000002E-002     1.8998535140444923E-016
  -1.3749999999999998E-002     1.6130230135082861E-016
  -1.2899999999999995E-002     9.2711328156845269E-017
  -1.2050000000000005E-002    -1.8839992175691322E-017
  -1.1200000000000002E-002    -1.7006489905757679E-016
  -1.0349999999999998E-002    -3.4972016910591714E-016
  -9.5000000000000084E-003    -5.3781076197098417E-016
  -8.6500000000000049E-003    -7.0600788715269688E-016
  -7.8000000000000014E-003    -8.1958352418850436E-016
  -6.9499999999999978E-003    -8.4100260562789599E-016
  -6.1000000000000082E-003    -7.3508314962256628E-016
  -5.2500000000000047E-003    -4.7535207724431080E-016
  -4.4000000000000011E-003    -5.0933475567878273E-017
  -3.5499999999999976E-003     5.2696948523012794E-016
  -2.7000000000000079E-003     1.2201167743110264E-015
  -1.8500000000000044E-003     1.9609885072178523E-015
  -1.0000000000000009E-003     2.6543309207594763E-015
  -1.4999999999999736E-004     3.1832703523490070E-015
   6.9999999999999230E-004     3.4202822187091230E-015
   1.5499999999999958E-003     3.2426478386206956E-015
   2.3999999999999994E-003     2.5512850327766675E-015
   3.2500000000000029E-003     1.2910847052221330E-015
   4.0999999999999925E-003    -5.2976539050715628E-016
   4.9499999999999961E-003    -2.8244138218582121E-015
   5.7999999999999996E-003    -5.4189671979735334E-015
   6.6499999999999893E-003    -8.0538207429151876E-015
   7.5000000000000067E-003    -1.0396661865256890E-014
   8.3499999999999963E-003    -1.2067925907564870E-014
   9.1999999999999860E-003    -1.2677998664068588E-014
   1.0050000000000003E-002    -1.1873780311475370E-014
   1.0899999999999993E-002    -9.3905788483108151E-015
   1.1750000000000010E-002    -5.1039314402147412E-015
   1.2600000000000000E-002     9.2498318501465202E-016
   1.3449999999999990E-002     8.4169484730537822E-015
   1.4300000000000007E-002     1.6861351537071903E-014
   1.5149999999999997E-002     2.5526707151318698E-014
   1.5999999999999986E-002     3.3497639609230952E-014
   1.6850000000000004E-002     3.9738549291025775E-014
   1.7699999999999994E-002     4.3181095391889144E-014
   1.8549999999999983E-002     4.2829776057257981E-014
   1.9400000000000001E-002     3.7877434288383351E-014
   2.0249999999999990E-002     2.7820437050670125E-014
   2.1100000000000008E-002     1.2562435110131491E-014
   2.1949999999999997E-002    -7.5046736187510508E-015
   2.2799999999999987E-002    -3.1452614031183820E-014
   2.3650000000000004E-002    -5.7809812619481656E-014
   2.4499999999999994E-002    -8.4601087530894428E-014
   2.5349999999999984E-002    -1.0943605487986224E-013
   2.6200000000000001E-002    -1.2964487000166419E-013
   2.7049999999999991E-002    -1.4245628528702303E-013
   2.7900000000000008E-002    -1.4520968263247065E-013
   2.8749999999999998E-002    -1.3558964367364059E-013
   2.9599999999999987E-002    -1.1186965840239046E-013
   3.0450000000000005E-002    -7.3149107747205502E-014
   3.1299999999999994E-002    -1.9567359461132619E-014
   3.2149999999999984E-002     4.7522989128930562E-014
   3.3000000000000002E-002     1.2544030868199006E-013
   3.3849999999999991E-002     2.1013235122702758E-013
   3.4700000000000009E-002     2.9622356116919176E-013
   3.5549999999999998E-002     3.7716377820274891E-013
   3.6399999999999988E-002     4.4548643242344679E-013
   3.7250000000000005E-002     4.9318001595171376E-013
   3.8099999999999995E-002     5.1216857534368659E-013
   3.8949999999999985E-002     4.9489146032013348E-013
   3.9800000000000002E-002     4.3495936710024450E-013
   4.0649999999999992E-002     3.2785760879848188E-013
   4.1500000000000009E-002     1.7165501438585648E-013
   4.2349999999999999E-002    -3.2332915580115952E-014
   4.3199999999999988E-002    -2.7898429392664193E-013
   4.4050000000000006E-002    -5.5897612599761243E-013
   4.4899999999999995E-002    -8.5861862376540945E-013
   4.5749999999999985E-002    -1.1599751697365897E-012
   4.6600000000000003E-002    -1.4413150029966047E-012
   4.7449999999999992E-002    -1.6779271370111430E-012
   4.8299999999999982E-002    -1.8433026836406075E-012
   4.9149999999999999E-002    -1.9106674725784947E-012
   4.9999999999999989E-002    -1.8548133933388795E-012
   5.0850000000000006E-002    -1.6541509891013576E-012
   5.1699999999999996E-002    -1.2928761311673557E-012
   5.2549999999999986E-002    -7.6311825452000515E-013
   5.3400000000000003E-002    -6.6923946955958624E-014
   5.4249999999999993E-002     7.8208176704622266E-013
   5.5099999999999982E-002     1.7575147853946389E-012
   5.5950000000000000E-002     2.8196732275718896E-012
   5.6799999999999989E-002     3.9157316325140724E-012
   5.7650000000000007E-002     4.9807795886231932E-012
   5.8499999999999996E-002     5.9397638991192097E-012
   5.9349999999999986E-002     6.7103567696380281E-012
   6.0200000000000004E-002     7.2067016801184888E-012
   6.1049999999999993E-002     7.3439711827162474E-012
   6.1899999999999983E-002     7.0435806715050308E-012
   6.2750000000000000E-002     6.2388753772290994E-012
   6.3599999999999990E-002     4.8810463039252127E-012
   6.4450000000000007E-002     2.9449746326166354E-012
   6.5299999999999997E-002     4.3469278981758239E-013
   6.6149999999999987E-002    -2.6119372797359066E-012
   6.7000000000000004E-002    -6.1196641884885012E-012
   6.7849999999999994E-002    -9.9738340962387537E-012
   6.8699999999999983E-002    -1.4020228195959982E-011
   6.9550000000000001E-002    -1.8067111380202384E-011
   7.0399999999999990E-002    -2.1889693737632694E-011
   7.1249999999999980E-002    -2.5237138880159796E-011
   7.2099999999999997E-002    -2.7842168450620141E-011
   7.2949999999999987E-002    -2.9433057885251634E-011
   7.3800000000000004E-002    -2.9747848754789131E-011
   7.4649999999999994E-002    -2.8550209263946657E-011
   7.5499999999999984E-002    -2.5646452305444823E-011
   7.6350000000000001E-002    -2.0902927367524515E-011
   7.7199999999999991E-002    -1.4262972722452174E-011
   7.8049999999999981E-002    -5.7625260550344521E-012
   7.8899999999999998E-002     4.4565239541929575E-012
   7.9749999999999988E-002     1.6136195428277062E-011
   8.0600000000000005E-002     2.8896314302000724E-011
   8.1449999999999995E-002     4.2233094067185414E-011
   8.2299999999999984E-002     5.5523187209192456E-011
   8.3150000000000002E-002     6.8033388509051965E-011
   8.3999999999999991E-002     7.8936322895089553E-011
   8.4849999999999981E-002     8.7331925822062475E-011
   8.5699999999999998E-002     9.2274736252580119E-011
   8.6549999999999988E-002     9.2806180578991512E-011
   8.7400000000000005E-002     8.7991469055255471E-011
   8.8249999999999995E-002     7.6959945108740245E-011
   8.9099999999999985E-002     5.8948236877965370E-011
   8.9950000000000002E-002     3.3344982932012758E-011
   9.0799999999999992E-002    -2.6435664898462649E-013
   9.1649999999999981E-002    -4.2053118969237732E-011
   9.2499999999999999E-002    -9.1911000035593677E-011
   9.3349999999999989E-002    -1.4940468676812749E-010
   9.4200000000000006E-002    -2.1374200836623137E-010
   9.5049999999999996E-002    -2.8374066346531357E-010
   9.5899999999999985E-002    -3.5780145272366018E-010
   9.6750000000000003E-002    -4.3388705282574020E-010
   9.7599999999999992E-002    -5.0950445515406223E-010
   9.8449999999999982E-002    -5.8169180792870447E-010
   9.9299999999999999E-002    -6.4700778588805550E-010
  0.10014999999999999         -7.0152182777640788E-010
  0.10099999999999998         -7.4080301481791641E-010
  0.10185000000000000         -7.5990460951198163E-010
  0.10269999999999999         -7.5334071565256474E-010
  0.10355000000000000         -7.1505197393207781E-010
  0.10439999999999999         -6.3835403720809015E-010
  0.10524999999999998         -5.1586334618783656E-010
  0.10610000000000000         -3.3939757335029491E-010
  0.10694999999999999         -9.9841064224015071E-011
  0.10779999999999998          2.1303531565152823E-010
  0.10865000000000000          6.1079374027618426E-010
  0.10949999999999999          1.1066134643975972E-009
  0.11035000000000000          1.7156363684768965E-009
  0.11119999999999999          2.4553786514915996E-009
  0.11204999999999998          3.3462337966925571E-009
  0.11290000000000000          4.4120598475111774E-009
  0.11374999999999999          5.6808703116996225E-009
  0.11459999999999998          7.1856208152557289E-009
  0.11545000000000000          8.9651241256606673E-009
  0.11629999999999999          1.1065089863248464E-008
  0.11715000000000000          1.3539283112679520E-008
  0.11799999999999999          1.6450860738396410E-008
  0.11884999999999998          1.9873837011707958E-008
  0.11970000000000000          2.3894733835269351E-008
  0.12054999999999999          2.8614397923049887E-008
  0.12139999999999998          3.4150019705236814E-008
  0.12225000000000000          4.0637367017539766E-008
  0.12309999999999999          4.8233191418180600E-008
  0.12395000000000000          5.7117979558431172E-008
  0.12479999999999999          6.7498823320221806E-008
  0.12564999999999998          7.9612721797679229E-008
  0.12650000000000000          9.3729994245098709E-008
  0.12734999999999999          1.1015827050109078E-007
  0.12819999999999998          1.2924649935957541E-007
  0.12905000000000000          1.5138948556973770E-007
  0.12989999999999999          1.7703272314743402E-007
  0.13074999999999998          2.0667768291546445E-007
  0.13159999999999999          2.4088755849013939E-007
  0.13245000000000001          2.8029283486180185E-007
  0.13329999999999997          3.2559819971814903E-007
  0.13414999999999999          3.7758879079005393E-007
  0.13500000000000001          4.3713740795385865E-007
  0.13584999999999997          5.0521226506765990E-007
  0.13669999999999999          5.8288383852456813E-007
  0.13755000000000001          6.7133347143311591E-007
  0.13839999999999997          7.7186053484473829E-007
  0.13924999999999998          8.8589133194041765E-007
  0.14010000000000000          1.0149858169677724E-006
  0.14094999999999996          1.1608462077930469E-006
  0.14179999999999998          1.3253227616877388E-006
  0.14265000000000000          1.5104225981733502E-006
  0.14350000000000002          1.7183150237226751E-006
  0.14434999999999998          1.9513348458636474E-006
  0.14520000000000000          2.2119889654037576E-006
  0.14605000000000001          2.5029580356159665E-006
  0.14689999999999998          2.8270971732673217E-006
  0.14774999999999999          3.1874345067494715E-006
  0.14860000000000001          3.5871669443672079E-006
  0.14944999999999997          4.0296595437527904E-006
  0.15029999999999999          4.5184299338058238E-006
  0.15115000000000001          5.0571408952280942E-006
  0.15199999999999997          5.6495860858374982E-006
  0.15284999999999999          6.2996664375486827E-006
  0.15370000000000000          7.0113703343870039E-006
  0.15454999999999997          7.7887464219802350E-006
  0.15539999999999998          8.6358657471135500E-006
  0.15625000000000000          9.5567960667751178E-006
  0.15709999999999996          1.0555549202320003E-005
  0.15794999999999998          1.1636036577990597E-005
  0.15880000000000000          1.2802020603939777E-005
  0.15965000000000001          1.4057049212238044E-005
  0.16049999999999998          1.5404403998339685E-005
  0.16134999999999999          1.6847003857456296E-005
  0.16220000000000001          1.8387366795319509E-005
  0.16304999999999997          2.0027508945423023E-005
  0.16389999999999999          2.1768856773284269E-005
  0.16475000000000001          2.3612183847803850E-005
  0.16559999999999997          2.5557500560609468E-005
  0.16644999999999999          2.7603967814128084E-005
  0.16730000000000000          2.9749801117441034E-005
  0.16814999999999997          3.1992179697370416E-005
  0.16899999999999998          3.4327146369180765E-005
  0.16985000000000000          3.6749517878756070E-005
  0.17069999999999996          3.9252791028123039E-005
  0.17154999999999998          4.1829060061883149E-005
  0.17240000000000000          4.4468957263257359E-005
  0.17325000000000002          4.7161567143417879E-005
  0.17409999999999998          4.9894365147497851E-005
  0.17494999999999999          5.2653146770836348E-005
  0.17580000000000001          5.5422101793085922E-005
  0.17664999999999997          5.8183626343656541E-005
  0.17749999999999999          6.0918472852497678E-005
  0.17835000000000001          6.3605596863370060E-005
  0.17919999999999997          6.6222398414298423E-005
  0.18004999999999999          6.8744657782393256E-005
  0.18090000000000001          7.1146645957027803E-005
  0.18174999999999997          7.3401205840945130E-005
  0.18259999999999998          7.5479961623030730E-005
  0.18345000000000000          7.7353288705354304E-005
  0.18429999999999996          7.8990714632480566E-005
  0.18514999999999998          8.0361099225362680E-005
  0.18600000000000000          8.1432810322705341E-005
  0.18684999999999996          8.2173811799501428E-005
  0.18769999999999998          8.2552380747055159E-005
  0.18855000000000000          8.2537010517822506E-005
  0.18940000000000001          8.2096954557276845E-005
  0.19024999999999997          8.1202453809127524E-005
  0.19109999999999999          7.9825253345931353E-005
  0.19195000000000001          7.7938766336132896E-005
  0.19279999999999997          7.5518636377139628E-005
  0.19364999999999999          7.2542986491326531E-005
  0.19450000000000001          6.8992855259111951E-005
  0.19534999999999997          6.4852785577669940E-005
  0.19619999999999999          6.0110662574963433E-005
  0.19705000000000000          5.4758724553185461E-005
  0.19789999999999996          4.8793366050497644E-005
  0.19874999999999998          4.2215709431357099E-005
  0.19960000000000000          3.5031882477856981E-005
  0.20044999999999996          2.7252998246598307E-005
  0.20129999999999998          1.8895657912753487E-005
  0.20215000000000000          9.9820145923817619E-006
  0.20300000000000001          5.3986620875905919E-007
  0.20384999999999998         -9.3974865982256277E-006
  0.20469999999999999         -1.9790932926212782E-005
  0.20555000000000001         -3.0595792609358458E-005
  0.20639999999999997         -4.1762074533009611E-005
  0.20724999999999999         -5.3234454825319624E-005
  0.20810000000000001         -6.4952705323108374E-005
  0.20894999999999997         -7.6851902144168315E-005
  0.20979999999999999         -8.8862999241560471E-005
  0.21065000000000000         -1.0091313152152472E-004
  0.21149999999999997         -1.1292621034282471E-004
  0.21234999999999998         -1.2482346793744358E-004
  0.21320000000000000         -1.3652402672205709E-004
  0.21404999999999996         -1.4794577344024286E-004
  0.21489999999999998         -1.5900581528627912E-004
  0.21575000000000000         -1.6962124081173821E-004
  0.21659999999999996         -1.7971031995738705E-004
  0.21744999999999998         -1.8919262110686757E-004
  0.21829999999999999         -1.9799030977347770E-004
  0.21915000000000001         -2.0602866258003145E-004
  0.21999999999999997         -2.1323699530004315E-004
  0.22084999999999999         -2.1954923497541736E-004
  0.22170000000000001         -2.2490479390399105E-004
  0.22254999999999997         -2.2924922011351807E-004
  0.22339999999999999         -2.3253473055775603E-004
  0.22425000000000000         -2.3472096633266000E-004
  0.22509999999999997         -2.3577533108071135E-004
  0.22594999999999998         -2.3567346833708590E-004
  0.22680000000000000         -2.3439969996114310E-004
  0.22764999999999996         -2.3194716221233171E-004
  0.22849999999999998         -2.2831802259774600E-004
  0.22935000000000000         -2.2352370468252218E-004
  0.23019999999999996         -2.1758466526951861E-004
  0.23104999999999998         -2.1053054912831788E-004
  0.23190000000000000         -2.0239967543730797E-004
  0.23275000000000001         -1.9323907245415988E-004
  0.23359999999999997         -1.8310385391488707E-004
  0.23444999999999999         -1.7205679025497167E-004
  0.23530000000000001         -1.6016777148229749E-004
  0.23614999999999997         -1.4751323367047950E-004
  0.23699999999999999         -1.3417547486664887E-004
  0.23785000000000001         -1.2024181643401235E-004
  0.23869999999999997         -1.0580375309167019E-004
  0.23954999999999999         -9.0956222180739289E-005
  0.24040000000000000         -7.5796689471274280E-005
  0.24124999999999996         -6.0424239301622080E-005
  0.24209999999999998         -4.4938446133816409E-005
  0.24295000000000000         -2.9439007238968357E-005
  0.24379999999999996         -1.4024074194891131E-005
  0.24464999999999998          1.2098183708709915E-006
  0.24550000000000000          1.6169240298869494E-005
  0.24634999999999996          3.0764417329304895E-005
  0.24719999999999998          4.4909829854948180E-005
  0.24804999999999999          5.8525390084317237E-005
  0.24890000000000001          7.1536374410819379E-005
  0.24974999999999997          8.3874722857668651E-005
  0.25059999999999999          9.5479243962327674E-005
  0.25145000000000001          1.0629551388082957E-004
  0.25229999999999997          1.1627690564189910E-004
  0.25314999999999999          1.2538446349937899E-004
  0.25400000000000000          1.3358705101025828E-004
  0.25484999999999997          1.4086162515761897E-004
  0.25569999999999998          1.4719295866457276E-004
  0.25655000000000000          1.5257362658915161E-004
  0.25739999999999996          1.5700383241458489E-004
  0.25824999999999998          1.6049118707021009E-004
  0.25910000000000000          1.6305003951585324E-004
  0.25994999999999996          1.6470156505870686E-004
  0.26079999999999998          1.6547295403105400E-004
  0.26164999999999999          1.6539726134216353E-004
  0.26249999999999996          1.6451251731532609E-004
  0.26334999999999997          1.6286135024444308E-004
  0.26419999999999999          1.6049043057667626E-004
  0.26505000000000001          1.5744983290551478E-004
  0.26589999999999997          1.5379216514783742E-004
  0.26674999999999999          1.4957234541311220E-004
  0.26760000000000000          1.4484676092460451E-004
  0.26844999999999997          1.3967268932485685E-004
  0.26929999999999998          1.3410760191688922E-004
  0.27015000000000000          1.2820895907743421E-004
  0.27099999999999996          1.2203339166653147E-004
  0.27184999999999998          1.1563636765535805E-004
  0.27270000000000000          1.0907167437646995E-004
  0.27354999999999996          1.0239107664867531E-004
  0.27439999999999998          9.5643995089049144E-005
  0.27524999999999999          8.8877129077649322E-005
  0.27609999999999996          8.2134279478824493E-005
  0.27694999999999997          7.5456059413935418E-005
  0.27779999999999999          6.8879796091416464E-005
  0.27865000000000001          6.2439333924310894E-005
  0.27949999999999997          5.6165059808170157E-005
  0.28034999999999999          5.0083842436237734E-005
  0.28120000000000001          4.4219043632510119E-005
  0.28204999999999997          3.8590565447017478E-005
  0.28289999999999998          3.3214909275633707E-005
  0.28375000000000000          2.8105384922897572E-005
  0.28459999999999996          2.3272178507995200E-005
  0.28544999999999998          1.8722541969231732E-005
  0.28630000000000000          1.4460928200661904E-005
  0.28714999999999996          1.0489325781185353E-005
  0.28799999999999998          6.8073114943808807E-006
  0.28885000000000000          3.4122650447529252E-006
  0.28969999999999996          2.9967492026125634E-007
  0.29054999999999997         -2.5366196445750359E-006
  0.29139999999999999         -5.1044106079295126E-006
  0.29224999999999995         -7.4126578634478394E-006
  0.29309999999999997         -9.4714323183118167E-006
  0.29394999999999999         -1.1291751328189189E-005
  0.29480000000000001         -1.2885275458773666E-005
  0.29564999999999997         -1.4264153257818282E-005
  0.29649999999999999         -1.5440996477801303E-005
  0.29735000000000000         -1.6428532766839870E-005
  0.29819999999999997         -1.7239568072460761E-005
  0.29904999999999998         -1.7886936438074197E-005
  0.29990000000000000         -1.8383306387120359E-005
  0.30074999999999996         -1.8741107348569865E-005
  0.30159999999999998         -1.8972431750916808E-005
  0.30245000000000000         -1.9088996578855278E-005
  0.30329999999999996         -1.9102128085673887E-005
  0.30414999999999998         -1.9022652642028293E-005
  0.30499999999999999         -1.8860904165359105E-005
  0.30584999999999996         -1.8626710794700907E-005
  0.30669999999999997         -1.8329302248330104E-005
  0.30754999999999999         -1.7977336416172569E-005
  0.30840000000000001         -1.7578967087405799E-005
  0.30924999999999997         -1.7141730522088060E-005
  0.31009999999999999         -1.6672641969353587E-005
  0.31095000000000000         -1.6178130808686850E-005
  0.31179999999999997         -1.5664114756976424E-005
  0.31264999999999998         -1.5135968686932979E-005
  0.31350000000000000         -1.4598606469856576E-005
  0.31434999999999996         -1.4056398482160179E-005
  0.31519999999999998         -1.3513305321049450E-005
  0.31605000000000000         -1.2972821517179456E-005
  0.31689999999999996         -1.2438038691413487E-005
  0.31774999999999998         -1.1911622359114780E-005
  0.31859999999999999         -1.1395874823978732E-005
  0.31944999999999996         -1.0892748897558367E-005
  0.32029999999999997         -1.0403848052185368E-005
  0.32114999999999999         -9.9304752965221799E-006
  0.32199999999999995         -9.4736172400652801E-006
  0.32284999999999997         -9.0340161434009490E-006
  0.32369999999999999         -8.6121455143896206E-006
  0.32455000000000001         -8.2082678154933913E-006
  0.32539999999999997         -7.8224577240651618E-006
  0.32624999999999998         -7.4545966273342539E-006
  0.32710000000000000         -7.1044212407310107E-006
  0.32794999999999996         -6.7715508129192175E-006
  0.32879999999999998         -6.4554968713849761E-006
  0.32965000000000000         -6.1557089812913570E-006
  0.33049999999999996         -5.8715509593173946E-006
  0.33134999999999998         -5.6023370331893082E-006
  0.33220000000000000         -5.3473397440678641E-006
  0.33304999999999996         -5.1058061535405028E-006
  0.33389999999999997         -4.8769721303993197E-006
  0.33474999999999999         -4.6600642488278913E-006
  0.33559999999999995         -4.4543114904508280E-006
  0.33644999999999997         -4.2589516947106146E-006
  0.33729999999999999         -4.0732340205696182E-006
  0.33815000000000001         -3.8964538929851924E-006
  0.33899999999999997         -3.7279316674972906E-006
  0.33984999999999999         -3.5670129996616163E-006
  0.34070000000000000         -3.4130846665090046E-006
  0.34154999999999996         -3.2655569909268723E-006
  0.34239999999999998         -3.1238751658140036E-006
  0.34325000000000000         -2.9875013657686904E-006