 -0.12000000000000000          0.0000000000000000     
 -0.11914999999999999          0.0000000000000000     
 -0.11830000000000000          0.0000000000000000     
 -0.11745000000000000         -1.0894665378182599E-009
 -0.11660000000000000         -5.1801832419838924E-009
 -0.11574999999999999         -1.1332350285469296E-008
 -0.11490000000000000         -1.0842865484162363E-008
 -0.11405000000000000          1.1955529280509823E-008
 -0.11320000000000000          6.6377790028213271E-008
 -0.11234999999999999          1.3123405704095753E-007
 -0.11150000000000000          1.3570427412696915E-007
 -0.11065000000000000         -2.8470559187728129E-008
 -0.10979999999999999         -4.4254380401196627E-007
 -0.10894999999999999         -1.0508143775687279E-006
 -0.10810000000000000         -1.5554572395676698E-006
 -0.10725000000000000         -1.4039514860945615E-006
 -0.10639999999999999          4.1966947147019761E-008
 -0.10554999999999999          3.1258002215243986E-006
 -0.10470000000000000          7.3920824025068131E-006
 -0.10385000000000000          1.1185957308363896E-005
 -0.10299999999999999          1.1675503772676602E-005
 -0.10214999999999999          5.5804613383924239E-006
 -0.10130000000000000         -9.3209710175967690E-006
 -0.10045000000000000         -3.2207080260327408E-005
  -9.9599999999999994E-002    -5.7471309129367726E-005
  -9.8750000000000004E-002    -7.4240380619817532E-005
  -9.7900000000000001E-002    -6.8126456221450949E-005
  -9.7049999999999997E-002    -2.5674509944010892E-005
  -9.6199999999999994E-002     5.9005470852636159E-005
  -9.5349999999999990E-002     1.7714317833903920E-004
  -9.4500000000000001E-002     3.0051312518700928E-004
  -9.3649999999999997E-002     3.8206549237930276E-004
  -9.2799999999999994E-002     3.6437694996541739E-004
  -9.1950000000000004E-002     1.9633431851254923E-004
  -9.1100000000000000E-002    -1.4448723318280884E-004
  -9.0249999999999997E-002    -6.2945390172076444E-004
  -8.9399999999999993E-002    -1.1645393132165510E-003
  -8.8549999999999990E-002    -1.5923748309529995E-003
  -8.7700000000000000E-002    -1.7165862002926791E-003
  -8.6849999999999997E-002    -1.3490269679527051E-003
  -8.5999999999999993E-002    -3.7322353741881301E-004
  -8.5150000000000003E-002     1.1901061934646148E-003
  -8.4300000000000000E-002     3.1349409353068373E-003
  -8.3449999999999996E-002     5.0596237749601352E-003
  -8.2600000000000007E-002     6.4096428754185546E-003
  -8.1749999999999989E-002     6.5778993451895444E-003
  -8.0900000000000000E-002     5.0517002522528637E-003
  -8.0049999999999996E-002     1.5797908359476082E-003
  -7.9199999999999993E-002    -3.6794741860978405E-003
  -7.8350000000000003E-002    -1.0072254198817998E-002
  -7.7499999999999999E-002    -1.6462794757665392E-002
  -7.6649999999999996E-002    -2.1366435494906404E-002
  -7.5800000000000006E-002    -2.3196409211104697E-002
  -7.4949999999999989E-002    -2.0590322035738837E-002
  -7.4099999999999999E-002    -1.2757015086872679E-002
  -7.3249999999999996E-002     2.2910489209861801E-004
  -7.2399999999999992E-002     1.7258225386804594E-002
  -7.1550000000000002E-002     3.6193314169831611E-002
  -7.0699999999999999E-002     5.4077446271352685E-002
  -6.9849999999999995E-002     6.7521607217198798E-002
  -6.9000000000000006E-002     7.3216236625455622E-002
  -6.8149999999999988E-002     6.8481898800390670E-002
  -6.7299999999999999E-002     5.1764517504252532E-002
  -6.6449999999999995E-002     2.2990582738889147E-002
  -6.5599999999999992E-002    -1.6275282145896373E-002
  -6.4750000000000002E-002    -6.2888429896426928E-002
  -6.3899999999999998E-002   -0.11237906958884292     
  -6.3049999999999995E-002   -0.15935174273505304     
  -6.2199999999999998E-002   -0.19796295306175091     
  -6.1350000000000002E-002   -0.22241430341541923     
  -6.0499999999999998E-002   -0.22741367866561588     
  -5.9650000000000002E-002   -0.20858260804109680     
  -5.8799999999999998E-002   -0.16281378686802883     
  -5.7950000000000002E-002    -8.8595437500718993E-002
  -5.7099999999999998E-002     1.3683825943185360E-002
  -5.6249999999999994E-002    0.14143447146383642     
  -5.5400000000000005E-002    0.28960449747410755     
  -5.4550000000000001E-002    0.45046941907298865     
  -5.3699999999999998E-002    0.61354543805648321     
  -5.2849999999999994E-002    0.76562061161517569     
  -5.2000000000000005E-002    0.89100059910162477     
  -5.1150000000000001E-002    0.97187245279412693     
  -5.0299999999999997E-002    0.98878698788325203     
  -4.9449999999999994E-002    0.92125807646403812     
  -4.8600000000000004E-002    0.74828681587096424     
  -4.7750000000000001E-002    0.44894184060308484     
  -4.6899999999999997E-002     2.8655167599684894E-003
  -4.6049999999999994E-002   -0.60918610547828966     
  -4.5200000000000004E-002    -1.4047651402355483     
  -4.4350000000000001E-002    -2.3990599596859643     
  -4.3499999999999997E-002    -3.6042509102391111     
  -4.2649999999999993E-002    -5.0288599651450401     
  -4.1800000000000004E-002    -6.6775768561688409     
  -4.0950000000000000E-002    -8.5516316225285003     
  -4.0099999999999997E-002    -10.650117542914115     
  -3.9249999999999993E-002    -12.972537404947996     
  -3.8400000000000004E-002    -15.522686686167489     
  -3.7550000000000000E-002    -18.313315052466010     
  -3.6699999999999997E-002    -21.372455791378027     
  -3.5850000000000007E-002    -24.748518674385686     
  -3.5000000000000003E-002    -28.515981416012806     
  -3.4150000000000000E-002    -32.778939023248860     
  -3.3299999999999996E-002    -37.673195521263366     
  -3.2450000000000007E-002    -43.365322284351990     
  -3.1600000000000003E-002    -50.050987637035263     
  -3.0750000000000000E-002    -57.950811131800947     
  -2.9899999999999996E-002    -67.305553738292986     
  -2.9050000000000006E-002    -78.373717537396345     
  -2.8200000000000003E-002    -91.427966442024541     
  -2.7349999999999999E-002    -106.75687232571235     
  -2.6499999999999996E-002    -124.66654578202093     
  -2.5650000000000006E-002    -145.48996847300737     
  -2.4800000000000003E-002    -169.59114375764398     
  -2.3949999999999999E-002    -197.37703700920918     
  -2.3099999999999996E-002    -229.30573100219726     
  -2.2250000000000006E-002    -265.89278631130810     
  -2.1400000000000002E-002    -307.71973994708577     
  -2.0549999999999999E-002    -355.43341165623792     
  -1.9699999999999995E-002    -409.74695563859729     
  -1.8850000000000006E-002    -471.44647427644588     
  -1.8000000000000002E-002    -541.38133614271931     
  -1.7149999999999999E-002    -620.46912054635470     
  -1.6299999999999995E-002    -709.70035033301951     
  -1.5450000000000005E-002    -810.13436155068496     
  -1.4600000000000002E-002    -922.91116181637176     
  -1.3749999999999998E-002    -1049.2640429122125     
  -1.2899999999999995E-002    -1190.5137190045439     
  -1.2050000000000005E-002    -1348.0819676055060     
  -1.1200000000000002E-002    -1523.4954132155065     
  -1.0349999999999998E-002    -1718.3858820862233     
  -9.5000000000000084E-003    -1934.4792542616265     
  -8.6500000000000049E-003    -2173.5977267461271     
  -7.8000000000000014E-003    -2437.6309782102389     
  -6.9499999999999978E-003    -2728.5310552296751     
  -6.1000000000000082E-003    -3048.2918634329153     
  -5.2500000000000047E-003    -3398.8935954992608     
  -4.4000000000000011E-003    -3782.3237779212068     
  -3.5499999999999976E-003    -4200.5192028908259     
  -2.7000000000000079E-003    -4655.3451412009981     
  -1.8500000000000044E-003    -5148.5854875410459     
  -1.0000000000000009E-003    -5681.8804318074481     
  -1.4999999999999736E-004    -6256.7761870317800     
   6.9999999999999230E-004    -6874.6251408660692     
   1.5499999999999958E-003    -7536.5994378797586     
   2.3999999999999994E-003    -8243.6117313413069     
   3.2500000000000029E-003    -8996.3384497693733     
   4.0999999999999925E-003    -9795.1492864718111     
   4.9499999999999961E-003    -10639.966525508800     
   5.7999999999999996E-003    -11530.322843543519     
   6.6499999999999893E-003    -12465.176141946708     
   7.5000000000000067E-003    -13442.931508606634     
   8.3499999999999963E-003    -14461.238185942719     
   9.1999999999999860E-003    -15517.011216789877     
   1.0050000000000003E-002    -16606.397853665210     
   1.0899999999999993E-002    -17724.620874341505     
   1.1750000000000010E-002    -18865.805989705772     
   1.2600000000000000E-002    -20023.328672036994     
   1.3449999999999990E-002    -21189.588446554302     
   1.4300000000000007E-002    -22355.677338590605     
   1.5149999999999997E-002    -23511.940896356806     
   1.5999999999999986E-002    -24647.588377082164     
   1.6850000000000004E-002    -25750.633713915609     
   1.7699999999999994E-002    -26808.401893254719     
   1.8549999999999983E-002    -27806.563301664763     
   1.9400000000000001E-002    -28730.424477906927     
   2.0249999999999990E-002    -29563.765762253090     
   2.1100000000000008E-002    -30289.448355299348     
   2.1949999999999997E-002    -30889.554950325932     
   2.2799999999999987E-002    -31345.231456898182     
   2.3650000000000004E-002    -31637.351908160468     
   2.4499999999999994E-002    -31745.791935764988     
   2.5349999999999984E-002    -31650.220021708483     
   2.6200000000000001E-002    -31330.637417419581     
   2.7049999999999991E-002    -30766.989930439056     
   2.7900000000000008E-002    -29939.057761789656     
   2.8749999999999998E-002    -28828.186753575908     
   2.9599999999999987E-002    -27416.503894695605     
   3.0450000000000005E-002    -25686.741393201279     
   3.1299999999999994E-002    -23623.597518531620     
   3.2149999999999984E-002    -21213.989643817433     
   3.3000000000000002E-002    -18445.953233313790     
   3.3849999999999991E-002    -15310.307590189139     
   3.4700000000000009E-002    -11800.655911042653     
   3.5549999999999998E-002    -7913.4151545924196     
   3.6399999999999988E-002    -3648.3887095299051     
   3.7250000000000005E-002     991.54842146700867     
   3.8099999999999995E-002     5998.2149974720523     
   3.8949999999999985E-002     11360.513612634106     
   3.9800000000000002E-002     17062.113862772832     
   4.0649999999999992E-002     23082.557224742937     
   4.1500000000000009E-002     29397.509502595865     
   4.2349999999999999E-002     35975.666335134796     
   4.3199999999999988E-002     42784.407281786065     
   4.4050000000000006E-002     49784.251709002026     
   4.4899999999999995E-002     56931.842422175876     
   4.5749999999999985E-002     64177.898455540693     
   4.6600000000000003E-002     71471.342198075872     
   4.7449999999999992E-002     78755.910977466658     
   4.8299999999999982E-002     85972.167343764449     
   4.9149999999999999E-002     93057.129992422735     
   4.9999999999999989E-002     99946.143339820192     
   5.0850000000000006E-002     106573.02249437185     
   5.1699999999999996E-002     112869.16605704992     
   5.2549999999999986E-002     118765.76493120106     
   5.3400000000000003E-002     124194.10812498382     
   5.4249999999999993E-002     129086.69016220019     
   5.5099999999999982E-002     133376.39438436367     
   5.5950000000000000E-002     136998.59864290201     
   5.6799999999999989E-002     139892.14054280194     
   5.7650000000000007E-002     141999.43272358520     
   5.8499999999999996E-002     143268.72615191527     
   5.9349999999999986E-002     143653.12903049661     
   6.0200000000000004E-002     143112.56522765194     
   6.1049999999999993E-002     141613.19519689874     
   6.1899999999999983E-002     139130.36278350663     
   6.2750000000000000E-002     135646.66797369445     
   6.3599999999999990E-002     131154.24953244851     
   6.4450000000000007E-002     125653.41506342744     
   6.5299999999999997E-002     119155.06440116774     
   6.6149999999999987E-002     111679.12697956793     
   6.7000000000000004E-002     103255.89398856167     
   6.7849999999999994E-002     93923.693974763344     
   6.8699999999999983E-002     83732.605122127556     
   6.9550000000000001E-002     72740.675497456832     
   7.0399999999999990E-002     61015.103826500948     
   7.1249999999999980E-002     48631.780118763119     
   7.2099999999999997E-002     35674.787762644199     
   7.2949999999999987E-002     22234.834780740919     
   7.3800000000000004E-002     8409.0493465600994     
   7.4649999999999994E-002    -5699.2782176598994     
   7.5499999999999984E-002    -19983.858824886520     
   7.6350000000000001E-002    -34334.326927776652     
   7.7199999999999991E-002    -48638.379347430375     
   7.8049999999999981E-002    -62783.376053780958     
   7.8899999999999998E-002    -76655.892583150940     
   7.9749999999999988E-002    -90144.366847653786     
   8.0600000000000005E-002    -103140.48092786293     
   8.1449999999999995E-002    -115538.89625213068     
   8.2299999999999984E-002    -127239.60612543029     
   8.3150000000000002E-002    -138148.80797260051     
   8.3999999999999991E-002    -148181.22499345880     
   8.4849999999999981E-002    -157256.74659056886     
   8.5699999999999998E-002    -165305.56010843621     
   8.6549999999999988E-002    -172268.84449478670     
   8.7400000000000005E-002    -178095.69857408135     
   8.8249999999999995E-002    -182747.54930354800     
   8.9099999999999985E-002    -186196.67684397072     
   8.9950000000000002E-002    -188426.95574584365     
   9.0799999999999992E-002    -189431.60925612770     
   9.1649999999999981E-002    -189217.74892638216     
   9.2499999999999999E-002    -187802.99913355644     
   9.3349999999999989E-002    -185214.41908223589     
   9.4200000000000006E-002    -181490.66189183181     
   9.5049999999999996E-002    -176678.98066159862     
   9.5899999999999985E-002    -170835.93023498013     
   9.6750000000000003E-002    -164028.00839856447     
   9.7599999999999992E-002    -156328.81150928087     
   9.8449999999999982E-002    -147816.94116185495     
   9.9299999999999999E-002    -138579.79041729742     
  0.10014999999999999         -128706.77945421624     
  0.10099999999999998         -118290.93994587525     
  0.10185000000000000         -107428.93075809596     
  0.10269999999999999         -96217.138720163319     
  0.10355000000000000         -84752.889683957386     
  0.10439999999999999         -73131.212448123973     
  0.10524999999999998         -61447.335723350581     
  0.10610000000000000         -49792.872588671948     
  0.10694999999999999         -38257.025719135185     
  0.10779999999999998         -26923.553026459955     
  0.10865000000000000         -15871.198226961395     
  0.10949999999999999         -5174.0437785816302     
  0.11035000000000000          5099.9026956102716     
  0.11119999999999999          14891.448667428798     
  0.11204999999999998          24146.614446408330     
  0.11290000000000000          32819.479177604357     
  0.11374999999999999          40871.967413358689     
  0.11459999999999998          48272.750400350815     
  0.11545000000000000          54997.944418704559     
  0.11629999999999999          61030.713776249366     
  0.11715000000000000          66361.724146143621     
  0.11799999999999999          70988.229979735275     
  0.11884999999999998          74914.184554358333     
  0.11970000000000000          78149.528416301633     
  0.12054999999999999          80710.254096113887     
  0.12139999999999998          82617.485178744013     
  0.12225000000000000          83896.654585982891     
  0.12309999999999999          84577.459066345938     
  0.12395000000000000          84692.905005284265     
  0.12479999999999999          84278.697154842419     
  0.12564999999999998          83372.793362903773     
  0.12650000000000000          82014.679484188207     
  0.12734999999999999          80245.158293596294     
  0.12819999999999998          78106.276276475241     
  0.12905000000000000          75639.961076465013     
  0.12989999999999999          72888.755565767977     
  0.13074999999999998          69894.509563998232     
  0.13159999999999999          66698.377283099020     
  0.13245000000000001          63340.399478268693     
  0.13329999999999997          59858.878488455521     
  0.13414999999999999          56290.251787105371     
  0.13500000000000001          52667.987232317420     
  0.13584999999999997          49023.709157800891     
  0.13669999999999999          45385.841518768153     
  0.13755000000000001          41780.505955387802     
  0.13839999999999997          38231.175116157043     
  0.13924999999999998          34759.138522540256     
  0.14010000000000000          31383.237402796934     
  0.14094999999999996          28119.713105942945     
  0.14179999999999998          24982.918081315060     
  0.14265000000000000          21984.828198539915     
  0.14350000000000002          19135.115924252917     
  0.14434999999999998          16441.059127403358     
  0.14520000000000000          13907.996243695470     
  0.14605000000000001          11538.933406638591     
  0.14689999999999998          9335.1409356640434     
  0.14774999999999999          7296.2653475188717     
  0.14860000000000001          5420.2892600097339     
  0.14944999999999997          3704.2228684160154     
  0.15029999999999999          2144.2294755372632     
  0.15115000000000001          735.36908928807452     
  0.15199999999999997         -527.90682982781232     
  0.15284999999999999         -1651.9698670423340     
  0.15370000000000000         -2643.5752726214942     
  0.15454999999999997         -3510.1340734117512     
  0.15539999999999998         -4259.3086628759638     
  0.15625000000000000         -4898.8494180852085     
  0.15709999999999996         -5437.1415623632274     
  0.15794999999999998         -5881.6818177729247     
  0.15880000000000000         -6240.1308709690675     
  0.15965000000000001         -6519.7803171536543     
  0.16049999999999998         -6727.8079396634957     
  0.16134999999999999         -6870.7931948807327     
  0.16220000000000001         -6955.1782102789821     
  0.16304999999999997         -6987.3166089190572     
  0.16389999999999999         -6973.3654261455449     
  0.16475000000000001         -6919.5113719262654     
  0.16559999999999997         -6831.3048291882960     
  0.16644999999999999         -6714.0896937600110     
  0.16730000000000000         -6572.7077145648518     
  0.16814999999999997         -6411.5436124495827     
  0.16899999999999998         -6234.1465026970800     
  0.16985000000000000         -6043.5813599686780     
  0.17069999999999996         -5842.5256274077665     
  0.17154999999999998         -5633.2352007428808     
  0.17240000000000000         -5417.6146564734445     
  0.17325000000000002         -5197.7100347568667     
  0.17409999999999998         -4975.5088921145507     
  0.17494999999999999         -4752.9478669427281     
  0.17580000000000001         -4531.8530127217000     
  0.17664999999999997         -4313.9819230475405     
  0.17749999999999999         -4100.7070421118651     
  0.17835000000000001         -3893.2099522021945     
  0.17919999999999997         -3692.1991623783847     
  0.18004999999999999         -3498.0147431591881     
  0.18090000000000001         -3310.7623572991815     
  0.18174999999999997         -3130.4194873924780     
  0.18259999999999998         -2956.9749979523813     
  0.18345000000000000         -2790.5817375730430     
  0.18429999999999996         -2631.3860141626524     
  0.18514999999999998         -2479.8279776490112     
  0.18600000000000000         -2336.2359468361274     
  0.18684999999999996         -2200.9215924798523     
  0.18769999999999998         -2074.0268926297131     
  0.18855000000000000         -1955.4300118208498     
  0.18940000000000001         -1844.8506291957358     
  0.19024999999999997         -1741.7218425198530     
  0.19109999999999999         -1645.3620745090941     
  0.19195000000000001         -1555.2006025254047     
  0.19279999999999997         -1470.6818119627803     
  0.19364999999999999         -1391.5857253809450     
  0.19450000000000001         -1317.8296194750651     
  0.19534999999999997         -1249.5014660468723     
  0.19619999999999999         -1186.7162410826561     
  0.19705000000000000         -1129.5721156070867     
  0.19789999999999996         -1077.8907068074122     
  0.19874999999999998         -1031.3750485192454     
  0.19960000000000000         -989.43895606349224     
  0.20044999999999996         -951.39686151743354     
  0.20129999999999998         -916.48854960740380     
  0.20215000000000000         -884.03226775022381     
  0.20300000000000001         -853.52360439815766     
  0.20384999999999998         -824.64410428763699     
  0.20469999999999999         -797.31264929950146     
  0.20555000000000001         -771.57379406904772     
  0.20639999999999997         -747.58954597585785     
  0.20724999999999999         -725.42475948981337     
  0.20810000000000001         -705.07313524341953     
  0.20894999999999997         -686.37554513881184     
  0.20979999999999999         -669.04461416923459     
  0.21065000000000000         -652.78343778179260     
  0.21149999999999997         -637.26431176513779     
  0.21234999999999998         -622.26014539470486     
  0.21320000000000000         -607.63519206300214     
  0.21404999999999996         -593.41525944023442     
  0.21489999999999998         -579.64333313426062     
  0.21575000000000000         -566.39509679552862     
  0.21659999999999996         -553.64233481135341     
  0.21744999999999998         -541.23445681805242     
  0.21829999999999999         -528.92231368953401     
  0.21915000000000001         -516.36794057259533     
  0.21999999999999997         -503.24859688396691     
  0.22084999999999999         -489.30249731831270     
  0.22170000000000001         -474.48846887797401     
  0.22254999999999997         -458.97858027754069     
  0.22339999999999999         -443.12879430815451     
  0.22425000000000000         -427.40271310839319     
  0.22509999999999997         -412.26841076572850     
  0.22594999999999998         -398.03241684573663     
  0.22680000000000000         -384.79655949576920     
  0.22764999999999996         -372.35511525263951     
  0.22849999999999998         -360.25335387962321     
  0.22935000000000000         -347.87193340570224     
  0.23019999999999996         -334.55593446869892     
  0.23104999999999998         -319.85650684037137     
  0.23190000000000000         -303.56542054907555     
  0.23275000000000001         -285.83878862173350     
  0.23359999999999997         -267.14870097995879     
  0.23444999999999999         -248.16916580289637     
  0.23530000000000001         -229.68448039602475     
  0.23614999999999997         -212.38077888267551     
  0.23699999999999999         -196.72753606562281     
  0.23785000000000001         -182.85838094467465     
  0.23869999999999997         -170.62829983885118     
  0.23954999999999999         -159.60720496561612     
  0.24040000000000000         -149.26936378470415     
  0.24124999999999996         -139.10635192928635     
  0.24209999999999998         -128.76674943090501     
  0.24295000000000000         -118.16372667901823     
  0.24379999999999996         -107.42886358854577     
  0.24464999999999998         -96.916118409999399     
  0.24550000000000000         -87.063180224423604     
  0.24634999999999996         -78.306650967996589     
  0.24719999999999998         -70.971726235953440     
  0.24804999999999999         -65.203329251180165     
  0.24890000000000001         -60.961992650447726     
  0.24974999999999997         -58.086781658466919     
  0.25059999999999999         -56.340205968540658     
  0.25145000000000001         -55.513363702787871     
  0.25229999999999997         -55.483553134186920     
  0.25314999999999999         -56.204050472665529     
  0.25400000000000000         -57.730632643305938     
  0.25484999999999997         -60.115223342268365     
  0.25569999999999998         -63.378288853962687     
  0.25655000000000000         -67.451977017770218     
  0.25739999999999996         -72.099278014708105     
  0.25824999999999998         -77.027819851559713     
  0.25910000000000000         -81.870747874083591     
  0.25994999999999996         -86.331588651577960     
  0.26079999999999998         -90.219782590421730     
  0.26164999999999999         -93.536008497352626     
  0.26249999999999996         -96.450236409201011     
  0.26334999999999997         -99.318045437583919     
  0.26419999999999999         -102.50487099999867     
  0.26505000000000001         -106.35263893941016     
  0.26589999999999997         -111.01300003456332     
  0.26674999999999999         -116.44052093739140     
  0.26760000000000000         -122.35297047960510     
  0.26844999999999997         -128.28119001666113     
  0.26929999999999998         -133.68947081113674     
  0.27015000000000000         -138.08656760468980     
  0.27099999999999996         -141.13086145652699     
  0.27184999999999998         -142.71831419275998     
  0.27270000000000000         -142.95325007132291     
  0.27354999999999996         -142.17796213066413     
  0.27439999999999998         -140.80050362701340     
  0.27524999999999999         -139.23944731835905     
  0.27609999999999996         -137.78879085326014     
  0.27694999999999997         -136.57210348661556     
  0.27779999999999999         -135.49302551029993     
  0.27865000000000001         -134.34144251706198     
  0.27949999999999997         -132.79286648481491     
  0.28034999999999999         -130.57996644400541     
  0.28120000000000001         -127.49493296328382     
  0.28204999999999997         -123.50629655935552     
  0.28289999999999998         -118.71834797315242     
  0.28375000000000000         -113.32771672136445     
  0.28459999999999996         -107.56292987885371     
  0.28544999999999998         -101.59270860213012     
  0.28630000000000000         -95.494761603436089     
  0.28714999999999996         -89.204169392254869     
  0.28799999999999998         -82.593427833564192     
  0.28885000000000000         -75.494004565221800     
  0.28969999999999996         -67.796934795742217     
  0.29054999999999997         -59.518963430516976     
  0.29139999999999999         -50.841372586647196     
  0.29224999999999995         -42.111376084596010     
  0.29309999999999997         -33.752649665945178     
  0.29394999999999999         -26.190974325120209     
  0.29480000000000001         -19.729833964191300     
  0.29564999999999997         -14.486661318347821     
  0.29649999999999999         -10.328600352860658     
  0.29735000000000000         -6.9285796997159181     
  0.29819999999999997         -3.8091995965455965     
  0.29904999999999998        -0.47962820198583600     
  0.29990000000000000          3.4355479961143747     
  0.30074999999999996          8.0970066195156090     
  0.30159999999999998          13.407456052444346     
  0.30245000000000000          18.993844214458047     
  0.30329999999999996          24.314050104593054     
  0.30414999999999998          28.772985798506006     
  0.30499999999999999          31.844908721615464     
  0.30584999999999996          33.199123459827419     
  0.30669999999999997          32.777697918515088     
  0.30754999999999999          30.788146562914857     
  0.30840000000000001          27.668640663783048     
  0.30924999999999997          23.956579345901030     
  0.31009999999999999          20.175241114116695     
  0.31095000000000000          16.740821542572448     
  0.31179999999999997          13.840630418253518     
  0.31264999999999998          11.467386852455368     
  0.31350000000000000          9.3988557407610251     
  0.31434999999999996          7.3166734100752873     
  0.31519999999999998          4.8748645900974079     
  0.31605000000000000          1.7955493426758107     
  0.31689999999999996         -2.0629981931449635     
  0.31774999999999998         -6.6907484962991752     
  0.31859999999999999         -11.951429209274284     
  0.31944999999999996         -17.630854464017361     
  0.32029999999999997         -23.491087155820459     
  0.32114999999999999         -29.346363076475967     
  0.32199999999999995         -35.067231223134193     
  0.32284999999999997         -40.604149749107194     
  0.32369999999999999         -45.956256126366412     
  0.32455000000000001         -51.126420206234179     
  0.32539999999999997         -56.075870830132189     
  0.32624999999999998         -60.732369984866551     
  0.32710000000000000         -64.950542175251641     
  0.32794999999999996         -68.578947578928165     
  0.32879999999999998         -71.484768558281417     
  0.32965000000000000         -73.597696532852240     
  0.33049999999999996         -74.957169143001778     
  0.33134999999999998         -75.699946713194521     
  0.33220000000000000         -76.042032262203605     
  0.33304999999999996         -76.218734644696269     
  0.33389999999999997         -76.413293650913857     
  0.33474999999999999         -76.699997193317529     
  0.33559999999999995         -77.014160200286639     
  0.33644999999999997         -77.148688796937705     
  0.33729999999999999         -76.797197646823207     
  0.33815000000000001         -75.623663837423507     
  0.33899999999999997         -73.359223812744148     
  0.33984999999999999         -69.866549560530558     
  0.34070000000000000         -65.192086004531120     
  0.34154999999999996         -59.568068938690558     
  0.34239999999999998         -53.361741520971862     