 -0.12000000000000000          0.0000000000000000
 -0.11914999999999999          0.0000000000000000
 -0.11830000000000000          0.0000000000000000
 -0.11745000000000000         -1.3067616416801822E-018
 -0.11660000000000000         -7.2175882431778947E-018
 -0.11574999999999999         -2.0627295344615633E-017
 -0.11490000000000000         -3.8201953608368705E-017
 -0.11405000000000000         -4.4632393151056869E-017
 -0.11320000000000000         -1.3614579880099596E-017
 -0.11234999999999999          7.8329550417037027E-017
 -0.11150000000000000          2.2486435324941246E-016
 -0.11065000000000000          3.5921619943109914E-016
 -0.10979999999999999          3.3910967598998805E-016
 -0.10894999999999999         -3.0061972789973218E-017
 -0.10810000000000000         -9.1904827460054148E-016
 -0.10725000000000000         -2.3513548428777994E-015
 -0.10639999999999999         -4.0672910735344113E-015
 -0.10554999999999999         -5.4368210963418079E-015
 -0.10470000000000000         -5.4938447978760244E-015
 -0.10385000000000000         -3.1486432848573266E-015
 -0.10299999999999999          2.4123651887349604E-015
 -0.10214999999999999          1.1202974872621415E-014
 -0.10130000000000000          2.1931713935343599E-014
 -0.10045000000000000          3.1714375875670825E-014
  -9.9599999999999994E-002     3.6212891274910252E-014
  -9.8750000000000004E-002     3.0348897495457762E-014
  -9.7900000000000001E-002     9.6100362131450064E-015
  -9.7049999999999997E-002    -2.8213239123727309E-014
  -9.6199999999999994E-002    -8.1211340272932053E-014
  -9.5349999999999990E-002    -1.4195515920933175E-013
  -9.4500000000000001E-002    -1.9705384861594764E-013
  -9.3649999999999997E-002    -2.2812778453462873E-013
  -9.2799999999999994E-002    -2.1442891771387698E-013
  -9.1950000000000004E-002    -1.3700514183332333E-013
  -9.1100000000000000E-002     1.6081274358562860E-014
  -9.0249999999999997E-002     2.4432939478905132E-013
  -8.9399999999999993E-002     5.3026444722267803E-013
  -8.8549999999999990E-002     8.3696078772303872E-013
  -8.7700000000000000E-002     1.1086518595334108E-012
  -8.6849999999999997E-002     1.2751163844834996E-012
  -8.5999999999999993E-002     1.2600163419592837E-012
  -8.5150000000000003E-002     9.9274830862506194E-013
  -8.4300000000000000E-002     4.2273020060170475E-013
  -8.3449999999999996E-002    -4.6555701118203126E-013
  -8.2600000000000007E-002    -1.6389201666084814E-012
  -8.1749999999999989E-002    -3.0056462403080581E-012
  -8.0900000000000000E-002    -4.4120275416831795E-012
  -8.0049999999999996E-002    -5.6474473142052674E-012
  -7.9199999999999993E-002    -6.4596117192962415E-012
  -7.8350000000000003E-002    -6.5804773313834101E-012
  -7.7499999999999999E-002    -5.7619576280053633E-012
  -7.6649999999999996E-002    -3.8187261954246112E-012
  -7.5800000000000006E-002    -6.7356453679502796E-013
  -7.4949999999999989E-002     3.6010414949622405E-012
  -7.4099999999999999E-002     8.7524532235856817E-012
  -7.3249999999999996E-002     1.4336174766667065E-011
  -7.2399999999999992E-002     1.9729341778005168E-011
  -7.1550000000000002E-002     2.4173289754543632E-011
  -7.0699999999999999E-002     2.6845176022794258E-011
  -6.9849999999999995E-002     2.6953867606243567E-011
  -6.9000000000000006E-002     2.3850365119152977E-011
  -6.8149999999999988E-002     1.7138891720876754E-011
  -6.7299999999999999E-002     6.7724352155116227E-012
  -6.6449999999999995E-002    -6.8834644503595501E-012
  -6.5599999999999992E-002    -2.3031808612513876E-011
  -6.4750000000000002E-002    -4.0477692938149494E-011
  -6.3899999999999998E-002    -5.7714291888982581E-011
  -6.3049999999999995E-002    -7.3052935563811556E-011
  -6.2199999999999998E-002    -8.4781789492859162E-011
  -6.1350000000000002E-002    -9.1332359614543581E-011
  -6.0499999999999998E-002    -9.1431834936671202E-011
  -5.9650000000000002E-002    -8.4221503792283998E-011
  -5.8799999999999998E-002    -6.9327755408374155E-011
  -5.7950000000000002E-002    -4.6880556720025886E-011
  -5.7099999999999998E-002    -1.7483891125904933E-011
  -5.6249999999999994E-002     1.7849584723480696E-011
  -5.5400000000000005E-002     5.7781893185664831E-011
  -5.4550000000000001E-002     1.0073272331181899E-010
  -5.3699999999999998E-002     1.4494654202895590E-010
  -5.2849999999999994E-002     1.8853598287354633E-010
  -5.2000000000000005E-002     2.2950231785997137E-010
  -5.1150000000000001E-002     2.6574313160060869E-010
  -5.0299999999999997E-002     2.9506336536936216E-010
  -4.9449999999999994E-002     3.1520992274164402E-010
  -4.8600000000000004E-002     3.2394628510111848E-010
  -4.7750000000000001E-002     3.1917825615130902E-010
  -4.6899999999999997E-002     2.9913070246959647E-010
  -4.6049999999999994E-002     2.6256503723967801E-010
  -4.5200000000000004E-002     2.0901518082246925E-010
  -4.4350000000000001E-002     1.3901572796264059E-010
  -4.3499999999999997E-002     5.4291306676671254E-011
  -4.2649999999999993E-002    -4.2117327352611205E-011
  -4.1800000000000004E-002    -1.4580842448650044E-010
  -4.0950000000000000E-002    -2.5105936044182343E-010
  -4.0099999999999997E-002    -3.5094501044173431E-010
  -3.9249999999999993E-002    -4.3751046057754449E-010
  -3.8400000000000004E-002    -5.0197226109950606E-010
  -3.7550000000000000E-002    -5.3491009357224364E-010
  -3.6699999999999997E-002    -5.2641973344270458E-010
  -3.5850000000000007E-002    -4.6619518814917809E-010
  -3.5000000000000003E-002    -3.4352536582516662E-010
  -3.4150000000000000E-002    -1.4718989413180383E-010
  -3.3299999999999996E-002     1.3473534075179837E-010
  -3.2450000000000007E-002     5.1515675580817286E-010
  -3.1600000000000003E-002     1.0083030049808466E-009
  -3.0750000000000000E-002     1.6301131480027791E-009
  -2.9899999999999996E-002     2.3986415351824031E-009
  -2.9050000000000006E-002     3.3344786864592981E-009
  -2.8200000000000003E-002     4.4611700007475593E-009
  -2.7349999999999999E-002     5.8056536946323882E-009
  -2.6499999999999996E-002     7.3987178725122051E-009
  -2.5650000000000006E-002     9.2755252641873451E-009
  -2.4800000000000003E-002     1.1476289812868695E-008
  -2.3949999999999999E-002     1.4047051308664705E-008
  -2.3099999999999996E-002     1.7040781960438562E-008
  -2.2250000000000006E-002     2.0518653844128963E-008
  -2.1400000000000002E-002     2.4551746931054882E-008
  -2.0549999999999999E-002     2.9222988831456646E-008
  -1.9699999999999995E-002     3.4629507529705922E-008
  -1.8850000000000006E-002     4.0885326576955430E-008
  -1.8000000000000002E-002     4.8124249047835621E-008
  -1.7149999999999999E-002     5.6503164394562835E-008
  -1.6299999999999995E-002     6.6205286591419786E-008
  -1.5450000000000005E-002     7.7443839083902888E-008
  -1.4600000000000002E-002     9.0465665207953524E-008
  -1.3749999999999998E-002     1.0555525413469091E-007
  -1.2899999999999995E-002     1.2303873743602307E-007
  -1.2050000000000005E-002     1.4328844040053913E-007
  -1.1200000000000002E-002     1.6672772931544834E-007
  -1.0349999999999998E-002     1.9383652184631982E-007
  -9.5000000000000084E-003     2.2515723915062406E-007
  -8.6500000000000049E-003     2.6130148761633869E-007
  -7.8000000000000014E-003     3.0295758502110582E-007
  -6.9499999999999978E-003     3.5089887753899586E-007
  -6.1000000000000082E-003     4.0599290629323063E-007
  -5.2500000000000047E-003     4.6921082588196070E-007
  -4.4000000000000011E-003     5.4163833946217959E-007
  -3.5499999999999976E-003     6.2448561665780264E-007
  -2.7000000000000079E-003     7.1910109195757208E-007
  -1.8500000000000044E-003     8.2698157541804608E-007
  -1.0000000000000009E-003     9.4978536037172765E-007
  -1.4999999999999736E-004     1.0893465255622643E-006
   6.9999999999999230E-004     1.2476879873561069E-006
   1.5499999999999958E-003     1.4270342370787284E-006
   2.3999999999999994E-003     1.6298264048693537E-006
   3.2500000000000029E-003     1.8587345178974518E-006
   4.0999999999999925E-003     2.1166718723662778E-006
   4.9499999999999961E-003     2.4068036476253544E-006
   5.7999999999999996E-003     2.7325634044530399E-006
   6.6499999999999893E-003     3.0976555289813902E-006
   7.5000000000000067E-003     3.5060680491224566E-006
   8.3499999999999963E-003     3.9620769090398331E-006
   9.1999999999999860E-003     4.4702441687363013E-006
   1.0050000000000003E-002     5.0354278471779870E-006
   1.0899999999999993E-002     5.6627653158220462E-006
   1.1750000000000010E-002     6.3576800433556054E-006
   1.2600000000000000E-002     7.1258656939312117E-006
   1.3449999999999990E-002     7.9732675773014988E-006
   1.4300000000000007E-002     8.9060705094275312E-006
   1.5149999999999997E-002     9.9306634006030839E-006
   1.5999999999999986E-002     1.1053616557355634E-005
   1.6850000000000004E-002     1.2281635831870851E-005
   1.7699999999999994E-002     1.3621521212616800E-005
   1.8549999999999983E-002     1.5080111406726890E-005
   1.9400000000000001E-002     1.6664211988325729E-005
   2.0249999999999990E-002     1.8380532674620152E-005
   2.1100000000000008E-002     2.0235605629309224E-005
   2.1949999999999997E-002     2.2235678556217820E-005
   2.2799999999999987E-002     2.4386646205895834E-005
   2.3650000000000004E-002     2.6693899941206693E-005
   2.4499999999999994E-002     2.9162226430394843E-005
   2.5349999999999984E-002     3.1795676478087424E-005
   2.6200000000000001E-002     3.4597474710664137E-005
   2.7049999999999991E-002     3.7569768173954167E-005
   2.7900000000000008E-002     4.0713609704821761E-005
   2.8749999999999998E-002     4.4028705076912477E-005
   2.9599999999999987E-002     4.7513294732006261E-005
   3.0450000000000005E-002     5.1163990227692627E-005
   3.1299999999999994E-002     5.4975620521652773E-005
   3.2149999999999984E-002     5.8941055624234402E-005
   3.3000000000000002E-002     6.3051061029137964E-005
   3.3849999999999991E-002     6.7294177783697523E-005
   3.4700000000000009E-002     7.1656516142562236E-005
   3.5549999999999998E-002     7.6121699877036017E-005
   3.6399999999999988E-002     8.0670708848087038E-005
   3.7250000000000005E-002     8.5281843468158002E-005
   3.8099999999999995E-002     8.9930605292182155E-005
   3.8949999999999985E-002     9.4589569115453073E-005
   3.9800000000000002E-002     9.9228529416244831E-005
   4.0649999999999992E-002     1.0381436163664408E-004
   4.1500000000000009E-002     1.0831115038545244E-004
   4.2349999999999999E-002     1.1268029238399490E-004
   4.3199999999999988E-002     1.1688042666326484E-004
   4.4050000000000006E-002     1.2086776642874262E-004
   4.4899999999999995E-002     1.2459625498846623E-004
   4.5749999999999985E-002     1.2801778270132459E-004
   4.6600000000000003E-002     1.3108231621917796E-004
   4.7449999999999992E-002     1.3373865554437426E-004
   4.8299999999999982E-002     1.3593408021070124E-004
   4.9149999999999999E-002     1.3761536459960794E-004
   4.9999999999999989E-002     1.3872923583561000E-004
   5.0850000000000006E-002     1.3922247785892522E-004
   5.1699999999999996E-002     1.3904280131746545E-004
   5.2549999999999986E-002     1.3813936822853952E-004
   5.3400000000000003E-002     1.3646309808428345E-004
   5.4249999999999993E-002     1.3396757905136987E-004
   5.5099999999999982E-002     1.3060964515962755E-004
   5.5950000000000000E-002     1.2634996296833384E-004
   5.6799999999999989E-002     1.2115365937971796E-004
   5.7650000000000007E-002     1.1499101854327421E-004
   5.8499999999999996E-002     1.0783831794392571E-004
   5.9349999999999986E-002     9.9677961982928796E-005
   6.0200000000000004E-002     9.0499415502801208E-005
   6.1049999999999993E-002     8.0299750864066464E-005
   6.1899999999999983E-002     6.9083687908276487E-005
   6.2750000000000000E-002     5.6864727426828710E-005
   6.3599999999999990E-002     4.3664662715210340E-005
   6.4450000000000007E-002     2.9514972126839052E-005
   6.5299999999999997E-002     1.4456240925790049E-005
   6.6149999999999987E-002    -1.4618086815333908E-006
   6.7000000000000004E-002    -1.8179785441585456E-005
   6.7849999999999994E-002    -3.5629068203095848E-005
   6.8699999999999983E-002    -5.3731611149180258E-005
   6.9550000000000001E-002    -7.2400785318388482E-005
   7.0399999999999990E-002    -9.1541633224382106E-005
   7.1249999999999980E-002    -1.1105056610366501E-004
   7.2099999999999997E-002    -1.3081713298034804E-004
   7.2949999999999987E-002    -1.5072401603753765E-004
   7.3800000000000004E-002    -1.7064819528756216E-004
   7.4649999999999994E-002    -1.9046168292795516E-004
   7.5499999999999984E-002    -2.1003255187636207E-004
   7.6350000000000001E-002    -2.2922601442820463E-004
   7.7199999999999991E-002    -2.4790562621083317E-004
   7.8049999999999981E-002    -2.6593439436337128E-004
   7.8899999999999998E-002    -2.8317639605317767E-004
   7.9749999999999988E-002    -2.9949756629140431E-004
   8.0600000000000005E-002    -3.1476729245266780E-004
   8.1449999999999995E-002    -3.2885955509690944E-004
   8.2299999999999984E-002    -3.4165420621381088E-004
   8.3150000000000002E-002    -3.5303851848814209E-004
   8.3999999999999991E-002    -3.6290820837096859E-004
   8.4849999999999981E-002    -3.7116860698823887E-004
   8.5699999999999998E-002    -3.7773549141541278E-004
   8.6549999999999988E-002    -3.8253654689247260E-004
   8.7400000000000005E-002    -3.8551188381161764E-004
   8.8249999999999995E-002    -3.8661487732542050E-004
   8.9099999999999985E-002    -3.8581284808592318E-004
   8.9950000000000002E-002    -3.8308750067085265E-004
   9.0799999999999992E-002    -3.7843545216984149E-004
   9.1649999999999981E-002    -3.7186818602393418E-004
   9.2499999999999999E-002    -3.6341207696629491E-004
   9.3349999999999989E-002    -3.5310838907090725E-004
   9.4200000000000006E-002    -3.4101319003742068E-004
   9.5049999999999996E-002    -3.2719638594128921E-004
   9.5899999999999985E-002    -3.1174178189791982E-004
   9.6750000000000003E-002    -2.9474570721653469E-004
   9.7599999999999992E-002    -2.7631688489826472E-004
   9.8449999999999982E-002    -2.5657486396303813E-004
   9.9299999999999999E-002    -2.3564894593522699E-004
  0.10014999999999999         -2.1367755338165184E-004
  0.10099999999999998         -1.9080582322234050E-004
  0.10185000000000000         -1.6718574157992120E-004
  0.10269999999999999         -1.4297332844916724E-004
  0.10355000000000000         -1.1832795493349835E-004
  0.10439999999999999         -9.3410878686534953E-005
  0.10524999999999998         -6.8383230419016860E-005
  0.10610000000000000         -4.3405393265408054E-005
  0.10694999999999999         -1.8634456717086945E-005
  0.10779999999999998          5.7770336201525154E-006
  0.10865000000000000          2.9680774371367024E-005
  0.10949999999999999          5.2935622188720420E-005
  0.11035000000000000          7.5408716276156111E-005
  0.11119999999999999          9.6975579244116796E-005
  0.11204999999999998          1.1752184302216853E-004
  0.11290000000000000          1.3694367619085046E-004
  0.11374999999999999          1.5514808539424105E-004
  0.11459999999999998          1.7205496449782234E-004
  0.11545000000000000          1.8759522095423408E-004
  0.11629999999999999          2.0171309821287068E-004
  0.11715000000000000          2.1436527035455135E-004
  0.11799999999999999          2.2552104650500307E-004
  0.11884999999999998          2.3516250966875408E-004
  0.11970000000000000          2.4328375723315653E-004
  0.12054999999999999          2.4989081989637172E-004
  0.12139999999999998          2.5500144989791507E-004
  0.12225000000000000          2.5864409401190198E-004
  0.12309999999999999          2.6085701056247502E-004
  0.12395000000000000          2.6168809347953774E-004
  0.12479999999999999          2.6119390061979858E-004
  0.12564999999999998          2.5943837992852713E-004
  0.12650000000000000          2.5649223787012392E-004
  0.12734999999999999          2.5243199146461756E-004
  0.12819999999999998          2.4733908454672597E-004
  0.12905000000000000          2.4129866632749663E-004
  0.12989999999999999          2.3439894706641769E-004
  0.13074999999999998          2.2672976206212893E-004
  0.13159999999999999          2.1838208949008248E-004
  0.13245000000000001          2.0944713609701086E-004
  0.13329999999999997          2.0001526546512067E-004
  0.13414999999999999          1.9017555820720163E-004
  0.13500000000000001          1.8001472771288397E-004
  0.13584999999999997          1.6961670783271715E-004
  0.13669999999999999          1.5906194951593560E-004
  0.13755000000000001          1.4842695753990539E-004
  0.13839999999999997          1.3778380175608984E-004
  0.13924999999999998          1.2719987091374871E-004
  0.14010000000000000          1.1673738939281506E-004
  0.14094999999999996          1.0645332385884432E-004
  0.14179999999999998          9.6399243488059057E-005
  0.14265000000000000          8.6621175395041653E-005
  0.14350000000000002          7.7159662881156430E-005
  0.14434999999999998          6.8049767449844531E-005
  0.14520000000000000          5.9321171533813151E-005
  0.14605000000000001          5.0998394600692069E-005
  0.14689999999999998          4.3100856167147612E-005
  0.14774999999999999          3.5643161968964822E-005
  0.14860000000000001          2.8635460694206470E-005
  0.14944999999999997          2.2083468523391821E-005
  0.15029999999999999          1.5989056590907632E-005
  0.15115000000000001          1.0350336295894321E-005
  0.15199999999999997          5.1622230890219997E-006
  0.15284999999999999          4.1657163713120952E-007
  0.15370000000000000         -3.8973601967632158E-006
  0.15454999999999997         -7.7925761260882758E-006
  0.15539999999999998         -1.1283975977988500E-005
  0.15625000000000000         -1.4388119090948496E-005
  0.15709999999999996         -1.7122920227402512E-005
  0.15794999999999998         -1.9507171927305707E-005
  0.15880000000000000         -2.1560440282584920E-005
  0.15965000000000001         -2.3302896167439175E-005
  0.16049999999999998         -2.4754824183067372E-005
  0.16134999999999999         -2.5936649480352587E-005
  0.16220000000000001         -2.6868724293543047E-005
  0.16304999999999997         -2.7571094915001972E-005
  0.16389999999999999         -2.8063371313876238E-005
  0.16475000000000001         -2.8364632201735815E-005
  0.16559999999999997         -2.8493364416057172E-005
  0.16644999999999999         -2.8467298306147261E-005
  0.16730000000000000         -2.8303352896103771E-005
  0.16814999999999997         -2.8017690388952837E-005
  0.16899999999999998         -2.7625470283681474E-005
  0.16985000000000000         -2.7140982917773131E-005
  0.17069999999999996         -2.6577544092636857E-005
  0.17154999999999998         -2.5947605839830747E-005
  0.17240000000000000         -2.5262663545698506E-005
  0.17325000000000002         -2.4533264795693100E-005
  0.17409999999999998         -2.3769104462686042E-005
  0.17494999999999999         -2.2979074068758208E-005
  0.17580000000000001         -2.2171191474701889E-005
  0.17664999999999997         -2.1352713356615618E-005
  0.17749999999999999         -2.0530119319575533E-005
  0.17835000000000001         -1.9709195963968723E-005
  0.17919999999999997         -1.8895064141194937E-005
  0.18004999999999999         -1.8092173101609349E-005
  0.18090000000000001         -1.7304360121740942E-005
  0.18174999999999997         -1.6534902720105086E-005
  0.18259999999999998         -1.5786528586140554E-005
  0.18345000000000000         -1.5061415367124161E-005
  0.18429999999999996         -1.4361292537223460E-005
  0.18514999999999998         -1.3687488246022569E-005
  0.18600000000000000         -1.3040856654753795E-005
  0.18684999999999996         -1.2421964697802055E-005
  0.18769999999999998         -1.1831042438292175E-005
  0.18855000000000000         -1.1268068659499489E-005
  0.18940000000000001         -1.0732728782442815E-005
  0.19024999999999997         -1.0224565217282170E-005
  0.19109999999999999         -9.7429663654589127E-006
  0.19195000000000001         -9.2871327151499297E-006
  0.19279999999999997         -8.8561388905942885E-006
  0.19364999999999999         -8.4489864308122479E-006
  0.19450000000000001         -8.0645874462732658E-006
  0.19534999999999997         -7.7017888761924344E-006
  0.19619999999999999         -7.3594108730431675E-006
  0.19705000000000000         -7.0362254335262945E-006
  0.19789999999999996         -6.7310422945358524E-006
  0.19874999999999998         -6.4427105617422226E-006
  0.19960000000000000         -6.1701392296794453E-006
  0.20044999999999996         -5.9122935739000670E-006
  0.20129999999999998         -5.6682585139362850E-006
  0.20215000000000000         -5.4372188637971009E-006
  0.20300000000000001         -5.2184459479295151E-006
  0.20384999999999998         -5.0113005382835314E-006
  0.20469999999999999         -4.8152194214970585E-006
  0.20555000000000001         -4.6296921557673893E-006
  0.20639999999999997         -4.4542639321264001E-006
  0.20724999999999999         -4.2885189203303358E-006
  0.20810000000000001         -4.1320336434174447E-006
  0.20894999999999997         -3.9844042673791513E-006
  0.20979999999999999         -3.8452336299072061E-006
  0.21065000000000000         -3.7140993639686204E-006
  0.21149999999999997         -3.5905664882537033E-006
  0.21234999999999998         -3.4742014563611146E-006
  0.21320000000000000         -3.3645596980297513E-006
  0.21404999999999996         -3.2611726902199906E-006
  0.21489999999999998         -3.1635786125950318E-006
  0.21575000000000000         -3.0712877194861695E-006
  0.21659999999999996         -2.9838353585749743E-006
  0.21744999999999998         -2.9007175452662161E-006
  0.21829999999999999         -2.8214528337614160E-006
  0.21915000000000001         -2.7455383140450644E-006
  0.21999999999999997         -2.6724701348460052E-006
  0.22084999999999999         -2.6017471007421222E-006
  0.22170000000000001         -2.5328511649808085E-006
  0.22254999999999997         -2.4652731051778740E-006
  0.22339999999999999         -2.3985249667370027E-006
  0.22425000000000000         -2.3321308512682726E-006
  0.22509999999999997         -2.2656639992114827E-006
  0.22594999999999998         -2.1987593522900444E-006
  0.22680000000000000         -2.1311248280355386E-006
  0.22764999999999996         -2.0625614051935445E-006
  0.22849999999999998         -1.9929790468838016E-006
  0.22935000000000000         -1.9223971829450513E-006
  0.23019999999999996         -1.8509330798931532E-006
  0.23104999999999998         -1.7788033172225650E-006
  0.23190000000000000         -1.7063113124648034E-006
  0.23275000000000001         -1.6338280628712493E-006
  0.23359999999999997         -1.5617664540579088E-006
  0.23444999999999999         -1.4905706010593314E-006
  0.23530000000000001         -1.4207018617363959E-006
  0.23614999999999997         -1.3526170046305779E-006
  0.23699999999999999         -1.2867650252234509E-006
  0.23785000000000001         -1.2235794858964127E-006
  0.23869999999999997         -1.1634785041108185E-006
  0.23954999999999999         -1.1068493943538336E-006
  0.24040000000000000         -1.0540305639219835E-006
  0.24124999999999996         -1.0053203546082917E-006
  0.24209999999999998         -9.6095364459317757E-007
  0.24295000000000000         -9.2109527939822966E-007
  0.24379999999999996         -8.8582468781418007E-007
  0.24464999999999998         -8.5513561750892704E-007
  0.24550000000000000         -8.2892365118636043E-007
  0.24634999999999996         -8.0698890101204739E-007
  0.24719999999999998         -7.8904758790905812E-007
  0.24804999999999999         -7.7474596343515274E-007
  0.24890000000000001         -7.6366600755581087E-007
  0.24974999999999997         -7.5534546270550788E-007
  0.25059999999999999         -7.4929273010167896E-007
  0.25145000000000001         -7.4501401118872589E-007
  0.25229999999999997         -7.4201335094997963E-007
  0.25314999999999999         -7.3982351445268729E-007
  0.25400000000000000         -7.3800710457345688E-007
  0.25484999999999997         -7.3617528942292077E-007
  0.25569999999999998         -7.3399631731200264E-007
  0.25655000000000000         -7.3120821882619492E-007
  0.25739999999999996         -7.2761790830815258E-007
  0.25824999999999998         -7.2310608041648201E-007
  0.25910000000000000         -7.1762380512849350E-007
  0.25994999999999996         -7.1119010115459934E-007
  0.26079999999999998         -7.0388363929447036E-007
  0.26164999999999999         -6.9582766769342528E-007
  0.26249999999999996         -6.8718779408876719E-007
  0.26334999999999997         -6.7815876934214473E-007
  0.26419999999999999         -6.6895493187045453E-007
  0.26505000000000001         -6.5980539741312127E-007
  0.26589999999999997         -6.5093750767975092E-007
  0.26674999999999999         -6.4257850255469641E-007
  0.26760000000000000         -6.3494963040546068E-007
  0.26844999999999997         -6.2824967013583777E-007
  0.26929999999999998         -6.2264695361631604E-007
  0.27015000000000000         -6.1826716775054349E-007
  0.27099999999999996         -6.1518561730745610E-007
  0.27184999999999998         -6.1340768512612443E-007
  0.27270000000000000         -6.1287690172464923E-007
  0.27354999999999996         -6.1345215544957577E-007
  0.27439999999999998         -6.1491670211360655E-007
  0.27524999999999999         -6.1699164614505721E-007
  0.27609999999999996         -6.1933402299445565E-007
  0.27694999999999997         -6.2155714402629834E-007
  0.27779999999999999         -6.2323532499161834E-007
  0.27865000000000001         -6.2393853531678174E-007
  0.27949999999999997         -6.2323795510920050E-007
  0.28034999999999999         -6.2071810148677529E-007
  0.28120000000000001         -6.1599647043615676E-007
  0.28204999999999997         -6.0874619826497496E-007
  0.28289999999999998         -5.9868212614818761E-007
  0.28375000000000000         -5.8560508099044405E-007
  0.28459999999999996         -5.6938356045378570E-007
  0.28544999999999998         -5.4998555074551649E-007
  0.28630000000000000         -5.2747057092546439E-007
  0.28714999999999996         -5.0199378296066392E-007
  0.28799999999999998         -4.7380805627870785E-007
  0.28885000000000000         -4.4324647910661211E-007
  0.28969999999999996         -4.1072257956236402E-007
  0.29054999999999997         -3.7671001451439701E-007
  0.29139999999999999         -3.4172584316900058E-007
  0.29224999999999995         -3.0631431698658388E-007
  0.29309999999999997         -2.7103422741515371E-007
  0.29394999999999999         -2.3644407884973868E-007
  0.29480000000000001         -2.0309197664132813E-007
  0.29564999999999997         -1.7150854636209668E-007
  0.29649999999999999         -1.4219494736742863E-007
  0.29735000000000000         -1.1561572301653234E-007
  0.29819999999999997         -9.2186695917968657E-008
  0.29904999999999998         -7.2263440355826217E-008
  0.29990000000000000         -5.6128730145847413E-008
  0.30074999999999996         -4.3974188194742286E-008
  0.30159999999999998         -3.5895959996967390E-008
  0.30245000000000000         -3.1872510551431610E-008
  0.30329999999999996         -3.1776261471782767E-008
  0.30414999999999998         -3.5369950446132845E-008
  0.30499999999999999         -4.2318588993836659E-008
  0.30584999999999996         -5.2203300041719348E-008
  0.30669999999999997         -6.4546150461383124E-008
  0.30754999999999999         -7.8826902260337757E-008
  0.30840000000000001         -9.4511560959877758E-008
  0.30924999999999997         -1.1106814769329059E-007
  0.31009999999999999         -1.2798366751566601E-007
  0.31095000000000000         -1.4477826905613962E-007
  0.31179999999999997         -1.6101629873965907E-007
  0.31264999999999998         -1.7631251721374045E-007
  0.31350000000000000         -1.9033389374816962E-007
  0.31434999999999996         -2.0280839770472271E-007
  0.31519999999999998         -2.1353102462525234E-007
  0.31605000000000000         -2.2236293059170262E-007
  0.31689999999999996         -2.2923692795727400E-007
  0.31774999999999998         -2.3415674931282365E-007
  0.31859999999999999         -2.3720052433050058E-007
  0.31944999999999996         -2.3851719428813730E-007
  0.32029999999999997         -2.3831978526569710E-007
  0.32114999999999999         -2.3688248754717488E-007
  0.32199999999999995         -2.3451909416104808E-007
  0.32284999999999997         -2.3158177700548748E-007
  0.32369999999999999         -2.2843691785199816E-007
  0.32455000000000001         -2.2544791019901032E-007
  0.32539999999999997         -2.2296847045442145E-007
  0.32624999999999998         -2.2131629511374663E-007
  0.32710000000000000         -2.2075652698056565E-007
  0.32794999999999996         -2.2148955970559840E-007
  0.32879999999999998         -2.2364180031424941E-007
  0.32965000000000000         -2.2725010356627522E-007
  0.33049999999999996         -2.3226659297428506E-007
  0.33134999999999998         -2.3855476244543016E-007
  0.33220000000000000         -2.4589572959659137E-007
  0.33304999999999996         -2.5400573027367921E-007
  0.33389999999999997         -2.6254717420953318E-007
  0.33474999999999999         -2.7113917857643696E-007
  0.33559999999999995         -2.7938524417927444E-007
  0.33644999999999997         -2.8687881096025506E-007
  0.33729999999999999         -2.9322222059793531E-007
  0.33815000000000001         -2.9802925010039559E-007
  0.33899999999999997         -3.0093840932042282E-007
  0.33984999999999999         -3.0161477573863843E-007
  0.34070000000000000         -2.9975963138524876E-007
  0.34154999999999996         -2.9511568708398690E-007
  0.34239999999999998         -2.8747844037416318E-007