 -0.12000000000000000          0.0000000000000000
 -0.11914999999999999          0.0000000000000000
 -0.11830000000000000          0.0000000000000000
 -0.11745000000000000          0.0000000000000000
 -0.11660000000000000          0.0000000000000000
 -0.11574999999999999          0.0000000000000000
 -0.11490000000000000          0.0000000000000000
 -0.11405000000000000          0.0000000000000000
 -0.11320000000000000          0.0000000000000000
 -0.11234999999999999          0.0000000000000000
 -0.11150000000000000          0.0000000000000000
 -0.11065000000000000          0.0000000000000000
 -0.10979999999999999          0.0000000000000000
 -0.10894999999999999          0.0000000000000000
 -0.10810000000000000          0.0000000000000000
 -0.10725000000000000          0.0000000000000000
 -0.10639999999999999          0.0000000000000000
 -0.10554999999999999          0.0000000000000000
 -0.10470000000000000          0.0000000000000000
 -0.10385000000000000          0.0000000000000000
 -0.10299999999999999          0.0000000000000000
 -0.10214999999999999          0.0000000000000000
 -0.10130000000000000          0.0000000000000000
 -0.10045000000000000          0.0000000000000000
  -9.9599999999999994E-002     0.0000000000000000
  -9.8750000000000004E-002     0.0000000000000000
  -9.7900000000000001E-002     0.0000000000000000
  -9.7049999999999997E-002     0.0000000000000000
  -9.6199999999999994E-002     0.0000000000000000
  -9.5349999999999990E-002     0.0000000000000000
  -9.4500000000000001E-002     0.0000000000000000
  -9.3649999999999997E-002     0.0000000000000000
  -9.2799999999999994E-002     0.0000000000000000
  -9.1950000000000004E-002     0.0000000000000000
  -9.1100000000000000E-002     0.0000000000000000
  -9.0249999999999997E-002     0.0000000000000000
  -8.9399999999999993E-002     0.0000000000000000
  -8.8549999999999990E-002     0.0000000000000000
  -8.7700000000000000E-002     0.0000000000000000
  -8.6849999999999997E-002     0.0000000000000000
  -8.5999999999999993E-002     0.0000000000000000
  -8.5150000000000003E-002     0.0000000000000000
  -8.4300000000000000E-002     0.0000000000000000
  -8.3449999999999996E-002     0.0000000000000000
  -8.2600000000000007E-002     0.0000000000000000
  -8.1749999999999989E-002     0.0000000000000000
  -8.0900000000000000E-002     0.0000000000000000
  -8.0049999999999996E-002     0.0000000000000000
  -7.9199999999999993E-002     0.0000000000000000
  -7.8350000000000003E-002     0.0000000000000000
  -7.7499999999999999E-002     0.0000000000000000
  -7.6649999999999996E-002     0.0000000000000000
  -7.5800000000000006E-002     0.0000000000000000
  -7.4949999999999989E-002     0.0000000000000000
  -7.4099999999999999E-002     0.0000000000000000
  -7.3249999999999996E-002     0.0000000000000000
  -7.2399999999999992E-002     0.0000000000000000
  -7.1550000000000002E-002     0.0000000000000000
  -7.0699999999999999E-002     0.0000000000000000
  -6.9849999999999995E-002     0.0000000000000000
  -6.9000000000000006E-002     0.0000000000000000
  -6.8149999999999988E-002     0.0000000000000000
  -6.7299999999999999E-002     0.0000000000000000
  -6.6449999999999995E-002     0.0000000000000000
  -6.5599999999999992E-002     3.9374207000611769E-039
  -6.4750000000000002E-002     1.0381661910218358E-038
  -6.3899999999999998E-002     6.6931144629175983E-039
  -6.3049999999999995E-002    -2.6731465429690150E-038
  -6.2199999999999998E-002    -6.6795180335853682E-038
  -6.1350000000000002E-002    -1.1634886879584865E-037
  -6.0499999999999998E-002    -1.3285934114713591E-037
  -5.9650000000000002E-002    -5.3737528995721616E-038
  -5.8799999999999998E-002     1.6760221841949549E-037
  -5.7950000000000002E-002     5.4602745315242003E-037
  -5.7099999999999998E-002     9.8224234914126281E-037
  -5.6249999999999994E-002     1.2632885907208016E-036
  -5.5400000000000005E-002     1.0629048654127297E-036
  -5.4550000000000001E-002    -7.1365837648512880E-039
  -5.3699999999999998E-002    -2.1931511058267945E-036
  -5.2849999999999994E-002    -5.3233656106581220E-036
  -5.2000000000000005E-002    -8.4707363898413815E-036
  -5.1150000000000001E-002    -9.7674842651279167E-036
  -5.0299999999999997E-002    -6.6042931333718963E-036
  -4.9449999999999994E-002     3.5484409699739227E-036
  -4.8600000000000004E-002     2.1605155131382439E-035
  -4.7750000000000001E-002     4.4848473332102832E-035
  -4.6899999999999997E-002     6.5113552255363586E-035
  -4.6049999999999994E-002     6.8373824254225178E-035
  -4.5200000000000004E-002     3.7172232693940681E-035
  -4.4350000000000001E-002    -4.2951922543605438E-035
  -4.3499999999999997E-002    -1.7306933857205832E-034
  -4.2649999999999993E-002    -3.2866818608720706E-034
  -4.1800000000000004E-002    -4.5057111138576932E-034
  -4.0950000000000000E-002    -4.4625919215138623E-034
  -4.0099999999999997E-002    -2.0943002456812267E-034
  -3.9249999999999993E-002     3.3742572868339171E-034
  -3.8400000000000004E-002     1.1804710880787605E-033
  -3.7550000000000000E-002     2.1473651689384407E-033
  -3.6699999999999997E-002     2.8650074970839876E-033
  -3.5850000000000007E-002     2.7820235804916723E-033
  -3.5000000000000003E-002     1.2945900374923715E-033
  -3.4150000000000000E-002    -2.0064580357919484E-033
  -3.3299999999999996E-002    -6.9934706013398739E-033
  -3.2450000000000007E-002    -1.2654631491249184E-032
  -3.1600000000000003E-002    -1.6898426087218527E-032
  -3.0750000000000000E-002    -1.6709163665704890E-032
  -2.9899999999999996E-002    -8.8337802544159233E-033
  -2.9050000000000006E-002     8.9330393016717717E-033
  -2.8200000000000003E-002     3.6018439367182947E-032
  -2.7349999999999999E-002     6.7349282479692641E-032
  -2.6499999999999996E-002     9.2394878556264849E-032
  -2.5650000000000006E-002     9.5906163715421931E-032
  -2.4800000000000003E-002     6.1173326260997265E-032
  -2.3949999999999999E-002    -2.3905759412680832E-032
  -2.3099999999999996E-002    -1.5864621766782730E-031
  -2.2250000000000006E-002    -3.2131622717238987E-031
  -2.1400000000000002E-002    -4.6415423527483464E-031
  -2.0549999999999999E-002    -5.1579999162073572E-031
  -1.9699999999999995E-002    -3.9485357226248520E-031
  -1.8850000000000006E-002    -3.6096784941490463E-032
  -1.8000000000000002E-002     5.7320842153199282E-031
  -1.7149999999999999E-002     1.3551106068238282E-030
  -1.6299999999999995E-002     2.1147194686267679E-030
  -1.5450000000000005E-002     2.5434642981033654E-030
  -1.4600000000000002E-002     2.2684471460879653E-030
  -1.3749999999999998E-002     9.5655573248957689E-031
  -1.2899999999999995E-002    -1.5338509637278200E-030
  -1.2050000000000005E-002    -4.9832257211641850E-030
  -1.1200000000000002E-002    -8.6767046080590661E-030
  -1.0349999999999998E-002    -1.1377051789312961E-029
  -9.5000000000000084E-003    -1.1477545274924102E-029
  -8.6500000000000049E-003    -7.3828838486017045E-030
  -7.8000000000000014E-003     1.8904352391029437E-030
  -6.9499999999999978E-003     1.5988362100824020E-029
  -6.1000000000000082E-003     3.2562034184933555E-029
  -5.2500000000000047E-003     4.6958668448784930E-029
  -4.4000000000000011E-003     5.2573938525779978E-029
  -3.5499999999999976E-003     4.2119840408419801E-029
  -2.7000000000000079E-003     9.8793856547899817E-030
  -1.8500000000000044E-003    -4.5290574710007041E-029
  -1.0000000000000009E-003    -1.1684653540312517E-028
  -1.4999999999999736E-004    -1.8837328718467970E-028
   6.9999999999999230E-004    -2.3362849392885114E-028
   1.5499999999999958E-003    -2.2008226100792828E-028
   2.3999999999999994E-003    -1.1673049961786089E-028
   3.2500000000000029E-003     9.4056507236454522E-029
   4.0999999999999925E-003     4.0238730451530573E-028
   4.9499999999999961E-003     7.5788532947923638E-028
   5.7999999999999996E-003     1.0629425464965448E-027
   6.6499999999999893E-003     1.1779847314483281E-027
   7.5000000000000067E-003     9.4384107938055138E-028
   8.3499999999999963E-003     2.2359849271044281E-028
   9.1999999999999860E-003    -1.0386132448587565E-027
   1.0050000000000003E-002    -2.7512315417189831E-027
   1.0899999999999993E-002    -4.6180849986607254E-027
   1.1750000000000010E-002    -6.1135344154025941E-027
   1.2600000000000000E-002    -6.5155891428761604E-027
   1.3449999999999990E-002    -5.0188280293148814E-027
   1.4300000000000007E-002    -9.3659478102471673E-028
   1.5149999999999997E-002     6.0195980161596940E-027
   1.5999999999999986E-002     1.5424604607760508E-026
   1.6850000000000004E-002     2.5861349022995793E-026
   1.7699999999999994E-002     3.4780343384808310E-026
   1.8549999999999983E-002     3.8610401687589352E-026
   1.9400000000000001E-002     3.3221412751494101E-026
   2.0249999999999990E-002     1.4793382079709408E-026
   2.1100000000000008E-002    -1.8938321743257873E-026
   2.1949999999999997E-002    -6.7208910176428609E-026
   2.2799999999999987E-002    -1.2480320004490062E-025
   2.3650000000000004E-002    -1.8109414702858915E-025
   2.4499999999999994E-002    -2.2002484267257926E-025
   2.5349999999999984E-002    -2.2150744254580335E-025
   2.6200000000000001E-002    -1.6457597388246907E-025
   2.7049999999999991E-002    -3.2345739710477134E-026
   2.7900000000000008E-002     1.8159531882212973E-025
   2.8749999999999998E-002     4.6626801762309907E-025
   2.9599999999999987E-002     7.8730779146798771E-025
   3.0450000000000005E-002     1.0837892956851423E-024
   3.1299999999999994E-002     1.2699516400968194E-024
   3.2149999999999984E-002     1.2436829978420377E-024
   3.3000000000000002E-002     9.0287353560075762E-025
   3.3849999999999991E-002     1.6941737966342640E-025
   3.4700000000000009E-002    -9.8120627003473170E-025
   3.5549999999999998E-002    -2.4890034778815278E-024
   3.6399999999999988E-002    -4.1835531100701352E-024
   3.7250000000000005E-002    -5.7710884490689408E-024
   3.8099999999999995E-002    -6.8430990605932423E-024
   3.8949999999999985E-002    -6.9139003698708478E-024
   3.9800000000000002E-002    -5.4915144716019522E-024
   4.0649999999999992E-002    -2.1809283157320095E-024
   4.1500000000000009E-002     3.1884076700618942E-024
   4.2349999999999999E-002     1.0427356904892868E-023
   4.3199999999999988E-002     1.8868956288424609E-023
   4.4050000000000006E-002     2.7298684251004578E-023
   4.4899999999999995E-002     3.3967203842817290E-023
   4.5749999999999985E-002     3.6716602856961904E-023
   4.6600000000000003E-002     3.3240921572789031E-023
   4.7449999999999992E-002     2.1483398570801591E-023
   4.8299999999999982E-002     1.4718538667173637E-025
   4.9149999999999999E-002    -3.0734655535649478E-023
   4.9999999999999989E-002    -6.9256201916888011E-023
   5.0850000000000006E-002    -1.1123689822291803E-022
   5.1699999999999996E-002    -1.5009170481804310E-022
   5.2549999999999986E-002    -1.7710252396410438E-022
   5.3400000000000003E-002    -1.8219412146471489E-022
   5.4249999999999993E-002    -1.5526384386660352E-022
   5.5099999999999982E-002    -8.8031564069829968E-023
   5.5950000000000000E-002     2.3730031655977816E-023
   5.6799999999999989E-002     1.7784380592173736E-022
   5.7650000000000007E-002     3.6362997198731175E-022
   5.8499999999999996E-002     5.6052645593946837E-022
   5.9349999999999986E-002     7.3793464107994760E-022
   6.0200000000000004E-002     8.5676390894361987E-022
   6.1049999999999993E-002     8.7302468698610509E-022
   6.1899999999999983E-002     7.4359087183984845E-022
   6.2750000000000000E-002     4.3392626644496183E-022
   6.3599999999999990E-002    -7.2834092369987562E-023
   6.4450000000000007E-002    -7.6649577755695199E-022
   6.5299999999999997E-002    -1.6015718883694989E-021
   6.6149999999999987E-002    -2.4919777209737831E-021
   6.7000000000000004E-002    -3.3105495130090765E-021
   6.7849999999999994E-002    -3.8951386166317238E-021
   6.8699999999999983E-002    -4.0625577175279114E-021
   6.9550000000000001E-002    -3.6308094517146368E-021
   7.0399999999999990E-002    -2.4488511348163908E-021
   7.1249999999999980E-002    -4.3168623402858937E-022
   7.2099999999999997E-002     2.4029957469366920E-021
   7.2949999999999987E-002     5.9018966372910824E-021
   7.3800000000000004E-002     9.7533127718225435E-021
   7.4649999999999994E-002     1.3481366064397190E-020
   7.5499999999999984E-002     1.6463757674123768E-020
   7.6350000000000001E-002     1.7977994653771224E-020
   7.7199999999999991E-002     1.7278233366460622E-020
   7.8049999999999981E-002     1.3700931849999034E-020
   7.8899999999999998E-002     6.7924988949072832E-021
   7.9749999999999988E-002    -3.5532573000241813E-021
   8.0600000000000005E-002    -1.6965358102291733E-020
   8.1449999999999995E-002    -3.2495272129276652E-020
   8.2299999999999984E-002    -4.8569902526519815E-020
   8.3150000000000002E-002    -6.3021397849709899E-020
   8.3999999999999991E-002    -7.3212889940666259E-020
   8.4849999999999981E-002    -7.6271271731103903E-020
   8.5699999999999998E-002    -6.9425615868224355E-020
   8.6549999999999988E-002    -5.0434479559217018E-020
   8.7400000000000005E-002    -1.8067584246602789E-020
   8.8249999999999995E-002     2.7410300678541099E-020
   8.9099999999999985E-002     8.3820683649712730E-020
   8.9950000000000002E-002     1.4679542491640842E-019
   9.0799999999999992E-002     2.0972289036045104E-019
   9.1649999999999981E-002     2.6398699899195545E-019
   9.2499999999999999E-002     2.9954935584978156E-019
   9.3349999999999989E-002     3.0589115944097605E-019
   9.4200000000000006E-002     2.7328738702719265E-019
   9.5049999999999996E-002     1.9433387646328096E-019
   9.5899999999999985E-002     6.5591823692058186E-020
   9.6750000000000003E-002    -1.1083632122478111E-019
   9.7599999999999992E-002    -3.2602567574434675E-019
   9.8449999999999982E-002    -5.6348818127437071E-019
   9.9299999999999999E-002    -7.9921028323734110E-019
  0.10014999999999999         -1.0026669228596533E-018
  0.10099999999999998         -1.1389337953595431E-018
  0.10185000000000000         -1.1719076688120129E-018
  0.10269999999999999         -1.0685102211038988E-018
  0.10355000000000000         -8.0359252508588609E-019
  0.10439999999999999         -3.6510474428018382E-019
  0.10524999999999998          2.4104202873859568E-019
  0.10610000000000000          9.8709143011961051E-019
  0.10694999999999999          1.8212392819810471E-018
  0.10779999999999998          2.6677758285251170E-018
  0.10865000000000000          3.4301019742209937E-018
  0.10949999999999999          3.9969250833849481E-018
  0.11035000000000000          4.2516330275726059E-018
  0.11119999999999999          4.0844692243075554E-018
  0.11204999999999998          3.4067280445732950E-018
  0.11290000000000000          2.1657941446747630E-018
  0.11374999999999999          3.5949953041003453E-019
  0.11459999999999998         -1.9519473733317727E-018
  0.11545000000000000         -4.6383070436759734E-018
  0.11629999999999999         -7.4976561947592123E-018
  0.11715000000000000         -1.0262150002965526E-017
  0.11799999999999999         -1.2612085843124358E-017
  0.11884999999999998         -1.4198431407567497E-017
  0.11970000000000000         -1.4673107125132664E-017
  0.12054999999999999         -1.3725395834877646E-017
  0.12139999999999998         -1.1121880488802342E-017
  0.12225000000000000         -6.7465497706698123E-018
  0.12309999999999999         -6.3703364067446715E-019
  0.12395000000000000          6.9873072418645049E-018
  0.12479999999999999          1.5709696522497461E-017
  0.12564999999999998          2.4916396116946229E-017
  0.12650000000000000          3.3816111813647241E-017
  0.12734999999999999          4.1479853511481557E-017
  0.12819999999999998          4.6901088957629703E-017
  0.12905000000000000          4.9074128109984795E-017
  0.12989999999999999          4.7086836904257194E-017
  0.13074999999999998          4.0221799567408413E-017
  0.13159999999999999          2.8058497930846669E-017
  0.13245000000000001          1.0567893937837521E-017
  0.13329999999999997         -1.1809871325884881E-017
  0.13414999999999999         -3.8113898563159705E-017
  0.13500000000000001         -6.6845624864098781E-017
  0.13584999999999997         -9.5993566366798900E-017
  0.13669999999999999         -1.2310465400844614E-016
  0.13755000000000001         -1.4540411286153772E-016
  0.13839999999999997         -1.5996269643867467E-016
  0.13924999999999998         -1.6390632826419343E-016
  0.14010000000000000         -1.5465930615224392E-016
  0.14094999999999996         -1.3020861669199270E-016
  0.14179999999999998         -8.9373172353158011E-017
  0.14265000000000000         -3.2059008003797787E-017
  0.14350000000000002          4.0520902590588399E-017
  0.14434999999999998          1.2568477396946133E-016
  0.14520000000000000          2.1920049769639314E-016
  0.14605000000000001          3.1530547648096409E-016
  0.14689999999999998          4.0684558527020014E-016
  0.14774999999999999          4.8554571805854404E-016
  0.14860000000000001          5.4241807869986749E-016
  0.14944999999999997          5.6830441674606885E-016
  0.15029999999999999          5.5453997386983580E-016
  0.15115000000000001          4.9371338932702283E-016
  0.15199999999999997          3.8048581349744831E-016
  0.15284999999999999          2.1242117609928792E-016
  0.15370000000000000         -9.2334745830804242E-018
  0.15454999999999997         -2.7888430599599559E-016
  0.15539999999999998         -5.8611747821978845E-016
  0.15625000000000000         -9.1549036930470130E-016
  0.15709999999999996         -1.2466547797718683E-015
  0.15794999999999998         -1.5548711037495905E-015
  0.15880000000000000         -1.8119516406477332E-015
  0.15965000000000001         -1.9876491098983648E-015
  0.16049999999999998         -2.0514741639071849E-015
  0.16134999999999999         -1.9748940930022382E-015
  0.16220000000000001         -1.7338209811702082E-015
  0.16304999999999997         -1.3112677340201505E-015
  0.16389999999999999         -7.0000899784069590E-016
  0.16475000000000001          9.4943857561204184E-017
  0.16559999999999997          1.0542670586659583E-015
  0.16644999999999999          2.1428683468102208E-015
  0.16730000000000000          3.3092697959803508E-015
  0.16814999999999997          4.4860277315505839E-015
  0.16899999999999998          5.5913463671017884E-015
  0.16985000000000000          6.5319952414078443E-015
  0.17069999999999996          7.2075612934340982E-015
  0.17154999999999998          7.5159875451923098E-015
  0.17240000000000000          7.3602557715787341E-015
  0.17325000000000002          6.6559683948195570E-015
  0.17409999999999998          5.3394889571399593E-015
  0.17494999999999999          3.3761981928756333E-015
  0.17580000000000001          7.6835086327314462E-016
  0.17664999999999997         -2.4380455815609493E-015
  0.17749999999999999         -6.1479517286469763E-015
  0.17835000000000001         -1.0214230525657790E-014
  0.17919999999999997         -1.4437381480680942E-014
  0.18004999999999999         -1.8568585951534057E-014
  0.18090000000000001         -2.2316452608957662E-014
  0.18174999999999997         -2.5357707171636615E-014
  0.18259999999999998         -2.7351828775748324E-014
  0.18345000000000000         -2.7959456406489509E-014
  0.18429999999999996         -2.6864064677704092E-014
  0.18514999999999998         -2.3796169508275437E-014
  0.18600000000000000         -1.8559034754141870E-014
  0.18684999999999996         -1.1054565886729324E-014
  0.18769999999999998         -1.3078483649659098E-015
  0.18855000000000000          1.0511378368272597E-014
  0.18940000000000001          2.4072167949627097E-014
  0.19024999999999997          3.8872585328842106E-014
  0.19109999999999999          5.4238449852259245E-014
  0.19195000000000001          6.9332229763563552E-014
  0.19279999999999997          8.3173248877829127E-014
  0.19364999999999999          9.4670074371972493E-014
  0.19450000000000001          1.0266522574485441E-013
  0.19534999999999997          1.0599176813681889E-013
  0.19619999999999999          1.0354051539001909E-013
  0.19705000000000000          9.4335774805070087E-014
  0.19789999999999996          7.7616753956680094E-014
  0.19874999999999998          5.2920883090635538E-014
  0.19960000000000000          2.0164702098440462E-014
  0.20044999999999996         -2.0282752323676117E-014
  0.20129999999999998         -6.7539443552023645E-014
  0.20215000000000000         -1.2016828363186556E-013
  0.20300000000000001         -1.7615881549253524E-013
  0.20384999999999998         -2.3293783024470472E-013
  0.20469999999999999         -2.8741293411686115E-013
  0.20555000000000001         -3.3605217695897252E-013
  0.20639999999999997         -3.7500129322279399E-013
  0.20724999999999999         -4.0023864231272900E-013
  0.20810000000000001         -4.0776520359898696E-013
  0.20894999999999997         -3.9382578886774329E-013
  0.20979999999999999         -3.5515419180976745E-013
  0.21065000000000000         -2.8923382164648596E-013
  0.21149999999999997         -1.9456233393256214E-013
  0.21234999999999998         -7.0907148339607908E-014
  0.21320000000000000          8.0462536660992172E-014
  0.21404999999999996          2.5658306887552795E-013
  0.21489999999999998          4.5265897344158751E-013
  0.21575000000000000          6.6199655345640108E-013
  0.21659999999999996          8.7602304602332060E-013
  0.21744999999999998          1.0844033033360598E-012
  0.21829999999999999          1.2752638447243606E-012
  0.21915000000000001          1.4355296760208110E-012
  0.21999999999999997          1.5513741674048596E-012
  0.22084999999999999          1.6087778013850270E-012
  0.22170000000000001          1.5941854401224411E-012
  0.22254999999999997          1.4952445615248855E-012
  0.22339999999999999          1.3016018875486363E-012
  0.22425000000000000          1.0057278433450452E-012
  0.22509999999999997          6.0373581359106053E-013
  0.22594999999999998          9.6154361500910661E-014
  0.22680000000000000         -5.1138954759287942E-013
  0.22764999999999996         -1.2076223238273081E-012
  0.22849999999999998         -1.9752557957821218E-012
  0.22935000000000000         -2.7908424771690324E-012
  0.23019999999999996         -3.6248957317755761E-012
  0.23104999999999998         -4.4423064205841890E-012
  0.23190000000000000         -5.2030819600754823E-012
  0.23275000000000001         -5.8634205341619130E-012
  0.23359999999999997         -6.3771240409579794E-012
  0.23444999999999999         -6.6973347168624673E-012
  0.23530000000000001         -6.7785635205777617E-012
  0.23614999999999997         -6.5789743006299472E-012
  0.23699999999999999         -6.0628519007165691E-012
  0.23785000000000001         -5.2031832360104496E-012
  0.23869999999999997         -3.9842582651570213E-012
  0.23954999999999999         -2.4041864799182835E-012
  0.24040000000000000         -4.7721353422418925E-013
  0.24124999999999996          1.7642780288633849E-012
  0.24209999999999998          4.2682077711628824E-012
  0.24295000000000000          6.9617942698450852E-012
  0.24379999999999996          9.7512213600603912E-012
  0.24464999999999998          1.2522070041383515E-011
  0.24550000000000000          1.5140608763096372E-011
  0.24634999999999996          1.7455983585406057E-011
  0.24719999999999998          1.9303367480477228E-011
  0.24804999999999999          2.0508052534842216E-011
  0.24890000000000001          2.0890469593603882E-011
  0.24974999999999997          2.0272073762465904E-011
  0.25059999999999999          1.8482014644777784E-011
  0.25145000000000001          1.5364446383838022E-011
  0.25229999999999997          1.0786365474187139E-011
  0.25314999999999999          4.6457596264013752E-012
  0.25400000000000000         -3.1200850789733648E-012
  0.25484999999999997         -1.2526326745082465E-011
  0.25569999999999998         -2.3532543634619412E-011
  0.25655000000000000         -3.6035133619464976E-011
  0.25739999999999996         -4.9860274331178521E-011
  0.25824999999999998         -6.4757592348973332E-011
  0.25910000000000000         -8.0394599044909747E-011
  0.25994999999999996         -9.6351866204202420E-011
  0.26079999999999998         -1.1211894541209350E-010
  0.26164999999999999         -1.2709080446641659E-010
  0.26249999999999996         -1.4056464943916577E-010
  0.26334999999999997         -1.5173667600863086E-010
  0.26419999999999999         -1.5969842696612941E-010
  0.26505000000000001         -1.6343207305587240E-010
  0.26589999999999997         -1.6180392876510861E-010
  0.26674999999999999         -1.5355543072548098E-010
  0.26760000000000000         -1.3729069539713163E-010
  0.26844999999999997         -1.1145966670805497E-010
  0.26929999999999998         -7.4335915563148877E-011
  0.27015000000000000         -2.3987694704086689E-011
  0.27099999999999996          4.1758960631437200E-011
  0.27184999999999998          1.2536669015566432E-010
  0.27270000000000000          2.2964436482523747E-010
  0.27354999999999996          3.5781697159456750E-010
  0.27439999999999998          5.1360954092897125E-010
  0.27524999999999999          7.0134634656805446E-010
  0.27609999999999996          9.2606764640012359E-010
  0.27694999999999997          1.1936651253776114E-009
  0.27779999999999999          1.5110391997595141E-009
  0.27865000000000001          1.8862790761186397E-009
  0.27949999999999997          2.3288687574820282E-009
  0.28034999999999999          2.8499196239206305E-009
  0.28120000000000001          3.4624321030434509E-009
  0.28204999999999997          4.1815893337224202E-009
  0.28289999999999998          5.0250859419305061E-009
  0.28375000000000000          6.0134968932104455E-009
  0.28459999999999996          7.1706864557827422E-009
  0.28544999999999998          8.5242623812941856E-009
  0.28630000000000000          1.0106077304627683E-008
  0.28714999999999996          1.1952782823050458E-008
  0.28799999999999998          1.4106433227997463E-008
  0.28885000000000000          1.6615157479259904E-008
  0.28969999999999996          1.9533890704645960E-008
  0.29054999999999997          2.2925177158453906E-008
  0.29139999999999999          2.6860053952185732E-008
  0.29224999999999995          3.1418997359975993E-008
  0.29309999999999997          3.6692960448018950E-008
  0.29394999999999999          4.2784486898787174E-008
  0.29480000000000001          4.9808919629661307E-008
  0.29564999999999997          5.7895690759866525E-008
  0.29649999999999999          6.7189694425068618E-008
  0.29735000000000000          7.7852775648913245E-008
  0.29819999999999997          9.0065279906191991E-008
  0.29904999999999998          1.0402768820469551E-007
  0.29990000000000000          1.1996229770581820E-007
  0.30074999999999996          1.3811501967894133E-007
  0.30159999999999998          1.5875715476513362E-007
  0.30245000000000000          1.8218732030676430E-007
  0.30329999999999996          2.0873325825885703E-007
  0.30414999999999998          2.3875369955654640E-007
  0.30499999999999999          2.7264021194084186E-007
  0.30584999999999996          3.1081883615906155E-007
  0.30669999999999997          3.5375177846219464E-007
  0.30754999999999999          4.0193877027253978E-007
  0.30840000000000001          4.5591850490397595E-007
  0.30924999999999997          5.1626947996723155E-007
  0.31009999999999999          5.8361075311888208E-007
  0.31095000000000000          6.5860222375562967E-007
  0.31179999999999997          7.4194441860269065E-007
  0.31264999999999998          8.3437812746412828E-007
  0.31350000000000000          9.3668281569833704E-007
  0.31434999999999996          1.0496748434358694E-006
  0.31519999999999998          1.1742050026501629E-006
  0.31605000000000000          1.3111547484360924E-006
  0.31689999999999996          1.4614321780567848E-006
  0.31774999999999998          1.6259660738073184E-006
  0.31859999999999999          1.8057003799074960E-006
  0.31944999999999996          2.0015858397174729E-006
  0.32029999999999997          2.2145719432405331E-006
  0.32114999999999999          2.4455969156045383E-006
  0.32199999999999995          2.6955767887363411E-006
  0.32284999999999997          2.9653926400823765E-006
  0.32369999999999999          3.2558775080617468E-006
  0.32455000000000001          3.5678004335909378E-006
  0.32539999999999997          3.9018508953962320E-006
  0.32624999999999998          4.2586213678464708E-006
  0.32710000000000000          4.6385885278647532E-006
  0.32794999999999996          5.0420927870754373E-006
  0.32879999999999998          5.4693200556272625E-006
  0.32965000000000000          5.9202781722964741E-006
  0.33049999999999996          6.3947764056316875E-006
  0.33134999999999998          6.8924014565370414E-006
  0.33220000000000000          7.4124964238017404E-006
  0.33304999999999996          7.9541378799055304E-006
  0.33389999999999997          8.5161139209069395E-006
  0.33474999999999999          9.0969016197346784E-006
  0.33559999999999995          9.6946494989386329E-006
  0.33644999999999997          1.0307154261740813E-005
  0.33729999999999999          1.0931846954901904E-005
  0.33815000000000001          1.1565775248411204E-005
  0.33899999999999997          1.2205593754308221E-005
  0.33984999999999999          1.2847551665143276E-005
  0.34070000000000000          1.3487489491543423E-005
  0.34154999999999996          1.4120834250028143E-005
  0.34239999999999998          1.4742600961743140E-005
  0.34325000000000000          1.5347398333094781E-005
  0.34409999999999996          1.5929442921435561E-005
  0.34494999999999998          1.6482574146988479E-005
  0.34580000000000000          1.7000272274806413E-005
  0.34664999999999996          1.7475689636908104E-005
  0.34749999999999998          1.7901674198410387E-005