 -0.12000000000000000          0.0000000000000000
 -0.11914999999999999          0.0000000000000000
 -0.11830000000000000          0.0000000000000000
 -0.11745000000000000          0.0000000000000000
 -0.11660000000000000          0.0000000000000000
 -0.11574999999999999          0.0000000000000000
 -0.11490000000000000          0.0000000000000000
 -0.11405000000000000          0.0000000000000000
 -0.11320000000000000          0.0000000000000000
 -0.11234999999999999          0.0000000000000000
 -0.11150000000000000          0.0000000000000000
 -0.11065000000000000          0.0000000000000000
 -0.10979999999999999          0.0000000000000000
 -0.10894999999999999          0.0000000000000000
 -0.10810000000000000          0.0000000000000000
 -0.10725000000000000          0.0000000000000000
 -0.10639999999999999          0.0000000000000000
 -0.10554999999999999          0.0000000000000000
 -0.10470000000000000          0.0000000000000000
 -0.10385000000000000          0.0000000000000000
 -0.10299999999999999          0.0000000000000000
 -0.10214999999999999          0.0000000000000000
 -0.10130000000000000          0.0000000000000000
 -0.10045000000000000          0.0000000000000000
  -9.9599999999999994E-002     0.0000000000000000
  -9.8750000000000004E-002     0.0000000000000000
  -9.7900000000000001E-002     0.0000000000000000
  -9.7049999999999997E-002     0.0000000000000000
  -9.6199999999999994E-002     0.0000000000000000
  -9.5349999999999990E-002     0.0000000000000000
  -9.4500000000000001E-002     0.0000000000000000
  -9.3649999999999997E-002     0.0000000000000000
  -9.2799999999999994E-002     0.0000000000000000
  -9.1950000000000004E-002     0.0000000000000000
  -9.1100000000000000E-002     0.0000000000000000
  -9.0249999999999997E-002    -5.0801399964130162E-041
  -8.9399999999999993E-002    -1.3804910234659268E-040
  -8.8549999999999990E-002     0.0000000000000000
  -8.7700000000000000E-002     7.4414196166856040E-040
  -8.6849999999999997E-002     1.6566583587101637E-039
  -8.5999999999999993E-002     1.9137915466161378E-039
  -8.5150000000000003E-002     8.4878494864906593E-040
  -8.4300000000000000E-002     1.0527999262296924E-038
  -8.3449999999999996E-002     1.9768755787923699E-038
  -8.2600000000000007E-002     8.1323266374428946E-039
  -8.1749999999999989E-002    -2.5239704392725531E-038
  -8.0900000000000000E-002    -7.9096424837414409E-038
  -8.0049999999999996E-002    -1.5345345257424687E-037
  -7.9199999999999993E-002    -2.0576053526320750E-037
  -7.8350000000000003E-002    -1.5459127268006234E-037
  -7.7499999999999999E-002     1.0826118187287723E-037
  -7.6649999999999996E-002     6.8127227103585228E-037
  -7.5800000000000006E-002     1.5235557407614574E-036
  -7.4949999999999989E-002     2.3284684782943806E-036
  -7.4099999999999999E-002     2.4147824200811417E-036
  -7.3249999999999996E-002     7.7579500554007402E-037
  -7.2399999999999992E-002    -3.5575789967406576E-036
  -7.1550000000000002E-002    -1.0778771708391209E-035
  -7.0699999999999999E-002    -1.9256786710984856E-035
  -6.9849999999999995E-002    -2.4581493055936387E-035
  -6.9000000000000006E-002    -1.9437895295520143E-035
  -6.8149999999999988E-002     4.7279590854712979E-036
  -6.7299999999999999E-002     5.3464384429636757E-035
  -6.6449999999999995E-002     1.2256609178850908E-034
  -6.5599999999999992E-002     1.9052233001690121E-034
  -6.4750000000000002E-002     2.1400119772905359E-034
  -6.3899999999999998E-002     1.3203412901354106E-034
  -6.3049999999999995E-002    -1.1527797638543844E-034
  -6.2199999999999998E-002    -5.5075670158495630E-034
  -6.1350000000000002E-002    -1.1113858605390775E-033
  -6.0499999999999998E-002    -1.6025131586193066E-033
  -5.9650000000000002E-002    -1.6828959784790756E-033
  -5.8799999999999998E-002    -9.1593583902999019E-034
  -5.7950000000000002E-002     1.0826097292963759E-033
  -5.7099999999999998E-002     4.3951783139926717E-033
  -5.6249999999999994E-002     8.4941528935737566E-033
  -5.5400000000000005E-002     1.1982931493146148E-032
  -5.4550000000000001E-002     1.2557372425422651E-032
  -5.3699999999999998E-002     7.3863911441593148E-033
  -5.2849999999999994E-002    -5.9375424766456610E-033
  -5.2000000000000005E-002    -2.7885684427593531E-032
  -5.1150000000000001E-002    -5.5202013233107250E-032
  -5.0299999999999997E-002    -7.9469130763699972E-032
  -4.9449999999999994E-002    -8.6982627265218404E-032
  -4.8600000000000004E-002    -6.0991974345306268E-032
  -4.7750000000000001E-002     1.2942079060044699E-032
  -4.6899999999999997E-002     1.3861049658457088E-031
  -4.6049999999999994E-002     2.9945590298026119E-031
  -4.5200000000000004E-002     4.5095281982813133E-031
  -4.4350000000000001E-002     5.2009746519721666E-031
  -4.3499999999999997E-002     4.1747258937117726E-031
  -4.2649999999999993E-002     6.5592742368628774E-032
  -4.1800000000000004E-002    -5.5752865517865338E-031
  -4.0950000000000000E-002    -1.3684655389059811E-030
  -4.0099999999999997E-002    -2.1404997890562488E-030
  -3.9249999999999993E-002    -2.5042853171036496E-030
  -3.8400000000000004E-002    -2.0155230349150210E-030
  -3.7550000000000000E-002    -3.0840361563864166E-031
  -3.6699999999999997E-002     2.6721005170667827E-030
  -3.5850000000000007E-002     6.4079576400169894E-030
  -3.5000000000000003E-002     9.6161352513336993E-030
  -3.4150000000000000E-002     1.0272127790382600E-029
  -3.3299999999999996E-002     6.0072957101032791E-030
  -3.2450000000000007E-002    -5.0100494827991679E-030
  -3.1600000000000003E-002    -2.2734583494969634E-029
  -3.0750000000000000E-002    -4.3696793113337405E-029
  -2.9899999999999996E-002    -5.9790360328496358E-029
  -2.9050000000000006E-002    -5.8210584585301046E-029
  -2.8200000000000003E-002    -2.3491861270968936E-029
  -2.7349999999999999E-002     5.7580789598933218E-029
  -2.6499999999999996E-002     1.8804069591580521E-028
  -2.5650000000000006E-002     3.5080340567157587E-028
  -2.4800000000000003E-002     4.9934496232659875E-028
  -2.3949999999999999E-002     5.5334177141892656E-028
  -2.3099999999999996E-002     4.0487534378706208E-028
  -2.2250000000000006E-002    -5.9231333358413474E-029
  -2.1400000000000002E-002    -9.1559245295989797E-028
  -2.0549999999999999E-002    -2.1446590984136383E-027
  -1.9699999999999995E-002    -3.5630078832517978E-027
  -1.8850000000000006E-002    -4.7670795519317055E-027
  -1.8000000000000002E-002    -5.1174694424037225E-027
  -1.7149999999999999E-002    -3.7984053396767613E-027
  -1.6299999999999995E-002     1.5979691801970823E-029
  -1.5450000000000005E-002     6.8730333653447873E-027
  -1.4600000000000002E-002     1.6647013630088018E-026
  -1.3749999999999998E-002     2.8101904568087721E-026
  -1.2899999999999995E-002     3.8530732492156183E-026
  -1.2050000000000005E-002     4.3642147477338689E-026
  -1.1200000000000002E-002     3.7893141864281281E-026
  -1.0349999999999998E-002     1.5448522855635471E-026
  -9.5000000000000084E-003    -2.8139165021279991E-026
  -8.6500000000000049E-003    -9.3603953405570331E-026
  -7.8000000000000014E-003    -1.7531535535539541E-025
  -6.9499999999999978E-003    -2.5891440138940354E-025
  -6.1000000000000082E-003    -3.2012710209642358E-025
  -5.2500000000000047E-003    -3.2581793338857584E-025
  -4.4000000000000011E-003    -2.3830340030714167E-025
  -3.5499999999999976E-003    -2.3582864172529471E-026
  -2.7000000000000079E-003     3.3660940133227034E-025
  -1.8500000000000044E-003     8.3016864601638349E-025
  -1.0000000000000009E-003     1.4000517167697296E-024
  -1.4999999999999736E-004     1.9338668804441228E-024
   6.9999999999999230E-004     2.2627940118096296E-024
   1.5499999999999958E-003     2.1752503836109619E-024
   2.3999999999999994E-003     1.4496353153690894E-024
   3.2500000000000029E-003    -9.2311348698970288E-026
   4.0999999999999925E-003    -2.5146311334218520E-024
   4.9499999999999961E-003    -5.6880046710034505E-024
   5.7999999999999996E-003    -9.2184485147637218E-024
   6.6499999999999893E-003    -1.2406084708789912E-023
   7.5000000000000067E-003    -1.4259700665811831E-023
   8.3499999999999963E-003    -1.3591558612400664E-023
   9.1999999999999860E-003    -9.2089735837370163E-024
   1.0050000000000003E-002    -2.0339033790188331E-025
   1.0899999999999993E-002     1.3685644196536972E-023
   1.1750000000000010E-002     3.1682991921029714E-023
   1.2600000000000000E-002     5.1647972112553502E-023
   1.3449999999999990E-002     6.9906945772648533E-023
   1.4300000000000007E-002     8.1363556122943766E-023
   1.5149999999999997E-002     7.9989514130749073E-023
   1.5999999999999986E-002     5.9757576767720820E-023
   1.6850000000000004E-002     1.6004863653371140E-023
   1.7699999999999994E-002    -5.2887485631263597E-023
   1.8549999999999983E-002    -1.4373289913252428E-022
   1.9400000000000001E-002    -2.4704946569873070E-022
   2.0249999999999990E-002    -3.4628576001574860E-022
   2.1100000000000008E-002    -4.1823725388297236E-022
   2.1949999999999997E-002    -4.3506903878590804E-022
   2.2799999999999987E-002    -3.6818834280053335E-022
   2.3650000000000004E-002    -1.9391707838406869E-022
   2.4499999999999994E-002     9.9483444613593716E-023
   2.5349999999999984E-002     5.0434257232015312E-022
   2.6200000000000001E-002     9.8702191423643529E-022
   2.7049999999999991E-002     1.4839666790268586E-021
   2.7900000000000008E-002     1.9021882210467285E-021
   2.8749999999999998E-002     2.1258058285423098E-021
   2.9599999999999987E-002     2.0296771142408152E-021
   3.0450000000000005E-002     1.5001376768656480E-021
   3.1299999999999994E-002     4.6147913208697792E-022
   3.2149999999999984E-002    -1.0948071925826013E-021
   3.3000000000000002E-002    -3.0826003729735143E-021
   3.3849999999999991E-002    -5.3013919997773996E-021
   3.4700000000000009E-002    -7.4306709527962992E-021
   3.5549999999999998E-002    -9.0445240786323113E-021
   3.6399999999999988E-002    -9.6508600199307018E-021
   3.7250000000000005E-002    -8.7566357806087943E-021
   3.8099999999999995E-002    -5.9561947732827145E-021
   3.8949999999999985E-002    -1.0346843283403447E-021
   3.9800000000000002E-002     5.9267984184569201E-021
   4.0649999999999992E-002     1.4462324228595279E-020
   4.1500000000000009E-002     2.3669387123702322E-020
   4.2349999999999999E-002     3.2215331280509459E-020
   4.3199999999999988E-002     3.8419444192158616E-020
   4.4050000000000006E-002     4.0420741808274050E-020
   4.4899999999999995E-002     3.6429885013008193E-020
   4.5749999999999985E-002     2.5049149010206561E-020
   4.6600000000000003E-002     5.6281683361004455E-021
   4.7449999999999992E-002    -2.1392200342226378E-020
   4.8299999999999982E-002    -5.4207335847320809E-020
   4.9149999999999999E-002    -8.9512661584012271E-020
   4.9999999999999989E-002    -1.2256510087305710E-019
   5.0850000000000006E-002    -1.4748928590303075E-019
   5.1699999999999996E-002    -1.5784980362718681E-019
   5.2549999999999986E-002    -1.4747495478668529E-019
   5.3400000000000003E-002    -1.1147491567668826E-019
   5.4249999999999993E-002    -4.7351848227763923E-020
   5.5099999999999982E-002     4.3940615725140138E-020
   5.5950000000000000E-002     1.5716053424053681E-019
   5.6799999999999989E-002     2.8234547271985327E-019
   5.7650000000000007E-002     4.0495296070771417E-019
   5.8499999999999996E-002     5.0669879932601968E-019
   5.9349999999999986E-002     5.6714873046853520E-019
   6.0200000000000004E-002     5.6602313774293492E-019
   6.1049999999999993E-002     4.8606521319824774E-019
   6.1899999999999983E-002     3.1620890419266283E-019
   6.2750000000000000E-002     5.4681487688282762E-020
   6.3599999999999990E-002    -2.8839750035304117E-019
   6.4450000000000007E-002    -6.8938722412956241E-019
   6.5299999999999997E-002    -1.1109041867354200E-018
   6.6149999999999987E-002    -1.5033522211226068E-018
   6.7000000000000004E-002    -1.8083915742338706E-018
   6.7849999999999994E-002    -1.9643213285367604E-018
   6.8699999999999983E-002    -1.9130974804485327E-018
   6.9550000000000001E-002    -1.6084508393517696E-018
   7.0399999999999990E-002    -1.0243194074895295E-018
   7.1249999999999980E-002    -1.6262698071080884E-019
   7.2099999999999997E-002     9.4067097172253940E-019
   7.2949999999999987E-002     2.2123421965843118E-018
   7.3800000000000004E-002     3.5423631993380742E-018
   7.4649999999999994E-002     4.7887959350868801E-018
   7.5499999999999984E-002     5.7873236728123844E-018
   7.6350000000000001E-002     6.3652264526492767E-018
   7.7199999999999991E-002     6.3590428395901289E-018
   7.8049999999999981E-002     5.6346232238179922E-018
   7.8899999999999998E-002     4.1078121649384116E-018
   7.9749999999999988E-002     1.7636453581903455E-018
   8.0600000000000005E-002    -1.3282308508506294E-018
   8.1449999999999995E-002    -5.0041653374079865E-018
   8.2299999999999984E-002    -9.0050968556255412E-018
   8.3150000000000002E-002    -1.2984594003881369E-017
   8.3999999999999991E-002    -1.6527068428244602E-017
   8.4849999999999981E-002    -1.9175990877960093E-017
   8.5699999999999998E-002    -2.0471002546689815E-017
   8.6549999999999988E-002    -1.9991770019841846E-017
   8.7400000000000005E-002    -1.7405586994287628E-017
   8.8249999999999995E-002    -1.2514972031411443E-017
   8.9099999999999985E-002    -5.3010199060939878E-018
   8.9950000000000002E-002     4.0419054291934557E-018
   9.0799999999999992E-002     1.5084392698536958E-017
   9.1649999999999981E-002     2.7156863412109558E-017
   9.2499999999999999E-002     3.9364038519321165E-017
   9.3349999999999989E-002     5.0620746331500787E-017
   9.4200000000000006E-002     5.9709500323022460E-017
   9.5049999999999996E-002     6.5358717246838450E-017
   9.5899999999999985E-002     6.6338808474959530E-017
   9.6750000000000003E-002     6.1571854740792836E-017
   9.7599999999999992E-002     5.0248847420123360E-017
   9.8449999999999982E-002     3.1947228252751814E-017
   9.9299999999999999E-002     6.7402898011460397E-018
  0.10014999999999999         -2.4710985481066307E-017
  0.10099999999999998         -6.1093371844950545E-017
  0.10185000000000000         -1.0041389667291441E-016
  0.10269999999999999         -1.4001853000479763E-016
  0.10355000000000000         -1.7666483886682794E-016
  0.10439999999999999         -2.0665422421405048E-016
  0.10524999999999998         -2.2602659636548349E-016
  0.10610000000000000         -2.3081611181580800E-016
  0.10694999999999999         -2.1736223678221792E-016
  0.10779999999999998         -1.8266481207883110E-016
  0.10865000000000000         -1.2476564733759900E-016
  0.10949999999999999         -4.3133505123458108E-017
  0.11035000000000000          6.0976968695708014E-017
  0.11119999999999999          1.8422620425684257E-016
  0.11204999999999998          3.2098790557676480E-016
  0.11290000000000000          4.6328281141722963E-016
  0.11374999999999999          6.0088435345472909E-016
  0.11459999999999998          7.2162642558359723E-016
  0.11545000000000000          8.1193527310351419E-016
  0.11629999999999999          8.5759218989212800E-016
  0.11715000000000000          8.4471810881666702E-016
  0.11799999999999999          7.6095019236785824E-016
  0.11884999999999998          5.9675764270189839E-016
  0.11970000000000000          3.4682241501724873E-016
  0.12054999999999999          1.1388468085710318E-017
  0.12139999999999998         -4.0253481139184358E-016
  0.12225000000000000         -8.8023975096392849E-016
  0.12309999999999999         -1.3987896495186105E-015
  0.12395000000000000         -1.9270138837218657E-015
  0.12479999999999999         -2.4261369084053967E-015
  0.12564999999999998         -2.8511235732418261E-015
  0.12650000000000000         -3.1527792549222456E-015
  0.12734999999999999         -3.2805998943938295E-015
  0.12819999999999998         -3.1863031241801297E-015
  0.12905000000000000         -2.8279153217207952E-015
  0.12989999999999999         -2.1742172096501175E-015
  0.13074999999999998         -1.2092962042266300E-015
  0.13159999999999999          6.3109544304779435E-017
  0.13245000000000001          1.6158241535670256E-015
  0.13329999999999997          3.3953848360036384E-015
  0.13414999999999999          5.3205090796429871E-015
  0.13500000000000001          7.2822437695188878E-015
  0.13584999999999997          9.1460976106094705E-015
  0.13669999999999999          1.0756391205533472E-014
  0.13755000000000001          1.1942945867794080E-014
  0.13839999999999997          1.2530090404936765E-014
  0.13924999999999998          1.2347811745130365E-014
  0.14010000000000000          1.1244697791827582E-014
  0.14094999999999996          9.1021416637746581E-015
  0.14179999999999998          5.8490794941499922E-015
  0.14265000000000000          1.4763821254163949E-015
  0.14350000000000002         -3.9501225981127267E-015
  0.14434999999999998         -1.0279119242700652E-014
  0.14520000000000000         -1.7266936047745921E-014
  0.14605000000000001         -2.4575469437028020E-014
  0.14689999999999998         -3.1775942664677434E-014
  0.14774999999999999         -3.8359349199529963E-014
  0.14860000000000001         -4.3754164421826031E-014
  0.14944999999999997         -4.7351495141508757E-014
  0.15029999999999999         -4.8537526432672641E-014
  0.15115000000000001         -4.6732455387122969E-014
  0.15199999999999997         -4.1434709608980409E-014
  0.15284999999999999         -3.2268568224487798E-014
  0.15370000000000000         -1.9032851199419518E-014
  0.15454999999999997         -1.7477856632762994E-015
  0.15539999999999998          1.9303205788931291E-014
  0.15625000000000000          4.3540325240361180E-014
  0.15709999999999996          7.0066472394384057E-014
  0.15794999999999998          9.7662076361241246E-014
  0.15880000000000000          1.2479888816421820E-013
  0.15965000000000001          1.4967529795093934E-013
  0.16049999999999998          1.7027496360855094E-013
  0.16134999999999999          1.8444936245572513E-013
  0.16220000000000001          1.9002357104682502E-013
  0.16304999999999997          1.8492317386268265E-013
  0.16389999999999999          1.6731844338182463E-013
  0.16475000000000001          1.3578032430697021E-013
  0.16559999999999997          8.9441223422539431E-014
  0.16644999999999999          2.8151941142656353E-014
  0.16730000000000000         -4.7374976848627927E-014
  0.16814999999999997         -1.3544621018414483E-013
  0.16899999999999998         -2.3330395227378050E-013
  0.16985000000000000         -3.3708856723494632E-013
  0.17069999999999996         -4.4185755575287394E-013
  0.17154999999999998         -5.4166977475867846E-013
  0.17240000000000000         -6.2974104541079146E-013
  0.17325000000000002         -6.9867477575910262E-013
  0.17409999999999998         -7.4076768600959771E-013
  0.17494999999999999         -7.4838670714514334E-013
  0.17580000000000001         -7.1440751092049101E-013
  0.17664999999999997         -6.3270242347326461E-013
  0.17749999999999999         -4.9865822424621188E-013
  0.17835000000000001         -3.0970167787525309E-013
  0.17919999999999997         -6.5805911545193065E-014
  0.18004999999999999          2.3005306986262797E-013
  0.18090000000000001          5.7152168443508069E-013
  0.18174999999999997          9.4860900544249337E-013
  0.18259999999999998          1.3475742619404007E-012
  0.18345000000000000          1.7509916341006194E-012
  0.18429999999999996          2.1380176101467278E-012
  0.18514999999999998          2.4848793172800520E-012
  0.18600000000000000          2.7655942756004877E-012
  0.18684999999999996          2.9529220772499643E-012
  0.18769999999999998          3.0195364429164718E-012
  0.18855000000000000          2.9393929991060692E-012
  0.18940000000000001          2.6892564082238286E-012
  0.19024999999999997          2.2503339431934466E-012
  0.19109999999999999          1.6099530961512201E-012
  0.19195000000000001          7.6320484934057912E-013
  0.19279999999999997         -2.8552838289604057E-013
  0.19364999999999999         -1.5212572468258452E-012
  0.19450000000000001         -2.9173744142975142E-012
  0.19534999999999997         -4.4350461415272911E-012
  0.19619999999999999         -6.0230932637877350E-012
  0.19705000000000000         -7.6184436010618269E-012
  0.19789999999999996         -9.1472177348956693E-012
  0.19874999999999998         -1.0526499575573350E-011
  0.19960000000000000         -1.1666799300949287E-011
  0.20044999999999996         -1.2475211536338605E-011
  0.20129999999999998         -1.2859223410223950E-011
  0.20215000000000000         -1.2731095643881649E-011
  0.20300000000000001         -1.2012709948515849E-011
  0.20384999999999998         -1.0640735547596534E-011
  0.20469999999999999         -8.5719358142830378E-012
  0.20555000000000001         -5.7884104707927375E-012
  0.20639999999999997         -2.3025426516177988E-012
  0.20724999999999999          1.8385992281524336E-012
  0.20810000000000001          6.5496614314649361E-012
  0.20894999999999997          1.1704465970303522E-011
  0.20979999999999999          1.7134773728901955E-011
  0.21065000000000000          2.2630580394555487E-011
  0.21149999999999997          2.7942127322949602E-011
  0.21234999999999998          3.2783795623038915E-011
  0.21320000000000000          3.6839959615738560E-011
  0.21404999999999996          3.9772867127994053E-011
  0.21489999999999998          4.1232485077947584E-011
  0.21575000000000000          4.0868236976992437E-011
  0.21659999999999996          3.8342454659986061E-011
  0.21744999999999998          3.3345286340051810E-011
  0.21829999999999999          2.5610755333434371E-011
  0.21915000000000001          1.4933640452179333E-011
  0.21999999999999997          1.1867126022898898E-012
  0.22084999999999999         -1.5662058355671433E-011
  0.22170000000000001         -3.5532797894286284E-011
  0.22254999999999997         -5.8217966951614913E-011
  0.22339999999999999         -8.3367980362014912E-011
  0.22425000000000000         -1.1047848832957190E-010
  0.22509999999999997         -1.3887969989121538E-010
  0.22594999999999998         -1.6772776502333822E-010
  0.22680000000000000         -1.9599839432749258E-010
  0.22764999999999996         -2.2248247829223943E-010
  0.22849999999999998         -2.4578346514224775E-010
  0.22935000000000000         -2.6431587975716642E-010
  0.23019999999999996         -2.7630442405722419E-010
  0.23104999999999998         -2.7978230074139340E-010
  0.23190000000000000         -2.7258828987904264E-010
  0.23275000000000001         -2.5236045340484992E-010
  0.23359999999999997         -2.1652541309550264E-010
  0.23444999999999999         -1.6228109780170426E-010
  0.23530000000000001         -8.6570942774394449E-011
  0.23614999999999997          1.3952593303728964E-011
  0.23699999999999999          1.4297737654461185E-010
  0.23785000000000001          3.0459606225983974E-010
  0.23869999999999997          5.0338835009841872E-010
  0.23954999999999999          7.4452349455396538E-010
  0.24040000000000000          1.0338860372844661E-009
  0.24124999999999996          1.3782272949616905E-009
  0.24209999999999998          1.7853461622113595E-009
  0.24295000000000000          2.2643001815985663E-009
  0.24379999999999996          2.8256511942105584E-009
  0.24464999999999998          3.4817454304861084E-009
  0.24550000000000000          4.2470355081674536E-009
  0.24634999999999996          5.1384414611253943E-009
  0.24719999999999998          6.1757605289078365E-009
  0.24804999999999999          7.3821232220233041E-009
  0.24890000000000001          8.7845028482904543E-009
  0.24974999999999997          1.0414280147728128E-008
  0.25059999999999999          1.2307859438372718E-008
  0.25145000000000001          1.4507353612321718E-008
  0.25229999999999997          1.7061332623696557E-008
  0.25314999999999999          2.0025635202635033E-008
  0.25400000000000000          2.3464263260473430E-008
  0.25484999999999997          2.7450339605223927E-008
  0.25569999999999998          3.2067158796199293E-008
  0.25655000000000000          3.7409318881766416E-008
  0.25739999999999996          4.3583942958864335E-008
  0.25824999999999998          5.0711982273366674E-008
  0.25910000000000000          5.8929637894891188E-008
  0.25994999999999996          6.8389839184034019E-008
  0.26079999999999998          7.9263835166365607E-008
  0.26164999999999999          9.1742889977835478E-008
  0.26249999999999996          1.0603999912969161E-007
  0.26334999999999997          1.2239176334736894E-007
  0.26419999999999999          1.4106026335037986E-007
  0.26505000000000001          1.6233498059026784E-007
  0.26589999999999997          1.8653479255226578E-007
  0.26674999999999999          2.1400995553335205E-007
  0.26760000000000000          2.4514409681305503E-007
  0.26844999999999997          2.8035608687889234E-007
  0.26929999999999998          3.2010179809644420E-007
  0.27015000000000000          3.6487576622387469E-007
  0.27099999999999996          4.1521258442640726E-007
  0.27184999999999998          4.7168817599480526E-007
  0.27270000000000000          5.3492056141542985E-007
  0.27354999999999996          6.0557022927410460E-007
  0.27439999999999998          6.8434016617750726E-007
  0.27524999999999999          7.7197509515182266E-007
  0.27609999999999996          8.6926017269357856E-007
  0.27694999999999997          9.7701871287482265E-007
  0.27779999999999999          1.0961094258374532E-006
  0.27865000000000001          1.2274223455585557E-006
  0.27949999999999997          1.3718733106969212E-006
  0.28034999999999999          1.5303979951156234E-006
  0.28120000000000001          1.7039439993853195E-006
  0.28204999999999997          1.8934619923556968E-006
  0.28289999999999998          2.0998950369619764E-006
  0.28375000000000000          2.3241663851715183E-006
  0.28459999999999996          2.5671654838023206E-006
  0.28544999999999998          2.8297327831803242E-006
  0.28630000000000000          3.1126411641461999E-006
  0.28714999999999996          3.4165778140701570E-006
  0.28799999999999998          3.7421225792336269E-006
  0.28885000000000000          4.0897254905967914E-006
  0.28969999999999996          4.4596829116649329E-006
  0.29054999999999997          4.8521111254324460E-006
  0.29139999999999999          5.2669193305512066E-006
  0.29224999999999995          5.7037812749494333E-006
  0.29309999999999997          6.1621054546939905E-006
  0.29394999999999999          6.6410060954108154E-006
  0.29480000000000001          7.1392704089627264E-006
  0.29564999999999997          7.6553319811952894E-006
  0.29649999999999999          8.1872386327296262E-006
  0.29735000000000000          8.7326237590643215E-006
  0.29819999999999997          9.2886815150986273E-006
  0.29904999999999998          9.8521402291558492E-006
  0.29990000000000000          1.0419237160021584E-005
  0.30074999999999996          1.0985703518179484E-005
  0.30159999999999998          1.1546748875264173E-005
  0.30245000000000000          1.2097049164338670E-005
  0.30329999999999996          1.2630744058127942E-005
  0.30414999999999998          1.3141439111999688E-005
  0.30499999999999999          1.3622213016854335E-005
  0.30584999999999996          1.4065632161465519E-005
  0.30669999999999997          1.4463775560380798E-005
  0.30754999999999999          1.4808267924978074E-005
  0.30840000000000001          1.5090322042157584E-005
  0.30924999999999997          1.5300786644810695E-005
  0.31009999999999999          1.5430210865347952E-005
  0.31095000000000000          1.5468910056811124E-005
  0.31179999999999997          1.5407052925830958E-005
  0.31264999999999998          1.5234749206963401E-005
  0.31350000000000000          1.4942158008162934E-005
  0.31434999999999996          1.4519589432391901E-005
  0.31519999999999998          1.3957633237631983E-005
  0.31605000000000000          1.3247282325147715E-005
  0.31689999999999996          1.2380064791995398E-005
  0.31774999999999998          1.1348185897252390E-005
  0.31859999999999999          1.0144670134003042E-005
  0.31944999999999996          8.7635137973456157E-006
  0.32029999999999997          7.1998389699583503E-006
  0.32114999999999999          5.4500374964418200E-006
  0.32199999999999995          3.5119217990988015E-006
  0.32284999999999997          1.3848614050573074E-006
  0.32369999999999999         -9.3007721536269626E-007
  0.32455000000000001         -3.4300073140410737E-006
  0.32539999999999997         -6.1101049975984334E-006
  0.32624999999999998         -8.9635069972308195E-006
  0.32710000000000000         -1.1981227370195298E-005
  0.32794999999999996         -1.5152088920111447E-005
  0.32879999999999998         -1.8462680223250821E-005
  0.32965000000000000         -2.1897335238623313E-005
  0.33049999999999996         -2.5438137709186186E-005
  0.33134999999999998         -2.9064950843389754E-005
  0.33220000000000000         -3.2755480093222542E-005
  0.33304999999999996         -3.6485357570574197E-005
  0.33389999999999997         -4.0228256861007827E-005
  0.33474999999999999         -4.3956037496986538E-005
  0.33559999999999995         -4.7638933784229099E-005
  0.33644999999999997         -5.1245749130478944E-005
  0.33729999999999999         -5.4744096281978663E-005
  0.33815000000000001         -5.8100659969006090E-005
  0.33899999999999997         -6.1281495560225991E-005
  0.33984999999999999         -6.4252328999423307E-005
  0.34070000000000000         -6.6978906574241670E-005
  0.34154999999999996         -6.9427346257806334E-005
  0.34239999999999998         -7.1564507632105182E-005
  0.34325000000000000         -7.3358347067883098E-005
  0.34409999999999996         -7.4778323377934058E-005
  0.34494999999999998         -7.5795763558681399E-005