 -0.12000000000000000          0.0000000000000000     
 -0.11914999999999999          0.0000000000000000     
 -0.11830000000000000          0.0000000000000000     
 -0.11745000000000000          0.0000000000000000     
 -0.11660000000000000          0.0000000000000000     
 -0.11574999999999999          0.0000000000000000     
 -0.11490000000000000          0.0000000000000000     
 -0.11405000000000000          0.0000000000000000     
 -0.11320000000000000          0.0000000000000000     
 -0.11234999999999999          0.0000000000000000     
 -0.11150000000000000          0.0000000000000000     
 -0.11065000000000000          0.0000000000000000     
 -0.10979999999999999          0.0000000000000000     
 -0.10894999999999999          0.0000000000000000     
 -0.10810000000000000          0.0000000000000000     
 -0.10725000000000000          0.0000000000000000     
 -0.10639999999999999          0.0000000000000000     
 -0.10554999999999999          0.0000000000000000     
 -0.10470000000000000          0.0000000000000000     
 -0.10385000000000000          0.0000000000000000     
 -0.10299999999999999          0.0000000000000000     
 -0.10214999999999999          0.0000000000000000     
 -0.10130000000000000          0.0000000000000000     
 -0.10045000000000000          0.0000000000000000     
  -9.9599999999999994E-002     0.0000000000000000     
  -9.8750000000000004E-002     0.0000000000000000     
  -9.7900000000000001E-002     0.0000000000000000     
  -9.7049999999999997E-002     0.0000000000000000     
  -9.6199999999999994E-002     0.0000000000000000     
  -9.5349999999999990E-002     0.0000000000000000     
  -9.4500000000000001E-002     0.0000000000000000     
  -9.3649999999999997E-002     0.0000000000000000     
  -9.2799999999999994E-002     0.0000000000000000     
  -9.1950000000000004E-002     0.0000000000000000     
  -9.1100000000000000E-002     2.7159965809201956E-039
  -9.0249999999999997E-002     6.9047378820795683E-039
  -8.9399999999999993E-002     3.0572637593209500E-039
  -8.8549999999999990E-002    -1.3919856673683547E-038
  -8.7700000000000000E-002    -3.7336940547501552E-038
  -8.6849999999999997E-002    -1.3782537565965598E-038
  -8.5999999999999993E-002     9.2229086260214065E-038
  -8.5150000000000003E-002     2.2681543167509735E-037
  -8.4300000000000000E-002     3.2306876868239119E-037
  -8.3449999999999996E-002     3.3849598321800864E-037
  -8.2600000000000007E-002     1.2005159715206276E-037
  -8.1749999999999989E-002    -6.3738636891007975E-037
  -8.0900000000000000E-002    -2.3227166635719252E-036
  -8.0049999999999996E-002    -4.7941654835107244E-036
  -7.9199999999999993E-002    -6.7254986146490559E-036
  -7.8350000000000003E-002    -5.2027587023365801E-036
  -7.7499999999999999E-002     3.8396430364365722E-036
  -7.6649999999999996E-002     2.3819481891983346E-035
  -7.5800000000000006E-002     5.3776303668684743E-035
  -7.4949999999999989E-002     8.3149504392875335E-035
  -7.4099999999999999E-002     8.7144847355704854E-035
  -7.3249999999999996E-002     2.7102390593998520E-035
  -7.2399999999999992E-002    -1.3798228693893297E-034
  -7.1550000000000002E-002    -4.2357764556171084E-034
  -7.0699999999999999E-002    -7.7610239672335872E-034
  -6.9849999999999995E-002    -1.0265919042855290E-033
  -6.9000000000000006E-002    -8.7074916267560401E-034
  -6.8149999999999988E-002     8.1185569024909315E-035
  -6.7299999999999999E-002     2.1408437808998366E-033
  -6.6449999999999995E-002     5.2480599483024798E-033
  -6.5599999999999992E-002     8.5969691577270822E-033
  -6.4750000000000002E-002     1.0333503696349038E-032
  -6.3899999999999998E-002     7.5850497034165614E-033
  -6.3049999999999995E-002    -2.8590237961581843E-033
  -6.2199999999999998E-002    -2.2973416116383512E-032
  -6.1350000000000002E-002    -5.1076746900425278E-032
  -6.0499999999999998E-002    -7.9143900991890770E-032
  -5.9650000000000002E-002    -9.1119881578497646E-032
  -5.8799999999999998E-002    -6.4111560188937100E-032
  -5.7950000000000002E-002     2.5545458174452109E-032
  -5.7099999999999998E-002     1.9019472003763216E-031
  -5.6249999999999994E-002     4.1376960356750677E-031
  -5.5400000000000005E-002     6.3423598762946578E-031
  -5.4550000000000001E-002     7.3418769107016005E-031
  -5.3699999999999998E-002     5.5135542713025049E-031
  -5.2849999999999994E-002    -7.9380796600435030E-032
  -5.2000000000000005E-002    -1.2468311016175623E-030
  -5.1150000000000001E-002    -2.8549385624165220E-030
  -5.0299999999999997E-002    -4.5127363498486331E-030
  -4.9449999999999994E-002    -5.4733979401538781E-030
  -4.8600000000000004E-002    -4.6895496345787961E-030
  -4.7750000000000001E-002    -1.0506256413673853E-030
  -4.6899999999999997E-002     6.1638074132381328E-030
  -4.6049999999999994E-002     1.6651100900367496E-029
  -4.5200000000000004E-002     2.8414510731409566E-029
  -4.4350000000000001E-002     3.7315673212167436E-029
  -4.3499999999999997E-002     3.7206636591586795E-029
  -4.2649999999999993E-002     2.1009394219464366E-029
  -4.1800000000000004E-002    -1.7019697045089971E-029
  -4.0950000000000000E-002    -7.7920024545325816E-029
  -4.0099999999999997E-002    -1.5413038527522061E-028
  -3.9249999999999993E-002    -2.2625056223805155E-028
  -3.8400000000000004E-002    -2.6219480261654427E-028
  -3.7550000000000000E-002    -2.2070991826966114E-028
  -3.6699999999999997E-002    -6.0885062312715142E-029
  -3.5850000000000007E-002     2.4190653709318538E-028
  -3.5000000000000003E-002     6.7529523436838726E-028
  -3.4150000000000000E-002     1.1689321433291986E-027
  -3.3299999999999996E-002     1.5807357948900797E-027
  -3.2450000000000007E-002     1.7000707517928058E-027
  -3.1600000000000003E-002     1.2777185425358838E-027
  -3.0750000000000000E-002     8.9309268066505193E-029
  -2.9899999999999996E-002    -1.9685332812562940E-027
  -2.9050000000000006E-002    -4.7618251908831382E-027
  -2.8200000000000003E-002    -7.8097472808310814E-027
  -2.7349999999999999E-002    -1.0223492332807620E-026
  -2.6499999999999996E-002    -1.0744251853162637E-026
  -2.5650000000000006E-002    -7.9292916685810645E-027
  -2.4800000000000003E-002    -5.1628416545057840E-028
  -2.3949999999999999E-002     1.2043541458970693E-026
  -2.3099999999999996E-002     2.8953013716740708E-026
  -2.2250000000000006E-002     4.7480280281932638E-026
  -2.1400000000000002E-002     6.2627823124428387E-026
  -2.0549999999999999E-002     6.7319880144273151E-026
  -1.9699999999999995E-002     5.3360226305873602E-026
  -1.8850000000000006E-002     1.3322724684224077E-026
  -1.8000000000000002E-002    -5.6656086608342724E-026
  -1.7149999999999999E-002    -1.5350544088342271E-025
  -1.6299999999999995E-002    -2.6395832524421571E-025
  -1.5450000000000005E-002    -3.6244971530335171E-025
  -1.4600000000000002E-002    -4.1148644264806337E-025
  -1.3749999999999998E-002    -3.6581095057889475E-025
  -1.2899999999999995E-002    -1.8131239738251472E-025
  -1.2050000000000005E-002     1.7121728253720814E-025
  -1.1200000000000002E-002     6.8874415404773581E-025
  -1.0349999999999998E-002     1.3180767028052051E-024
  -9.5000000000000084E-003     1.9422258125131675E-024
  -8.6500000000000049E-003     2.3773397973291329E-024
  -7.8000000000000014E-003     2.3869878206090574E-024
  -6.9499999999999978E-003     1.7193344423179918E-024
  -6.1000000000000082E-003     1.6935225144582719E-025
  -5.2500000000000047E-003    -2.3375835605263156E-024
  -4.4000000000000011E-003    -5.6522793423022222E-024
  -3.5499999999999976E-003    -9.3188236484477919E-024
  -2.7000000000000079E-003    -1.2530426433704850E-023
  -1.8500000000000044E-003    -1.4156443615164997E-023
  -1.0000000000000009E-003    -1.2870821957385453E-023
  -1.4999999999999736E-004    -7.4007577957468695E-024
   6.9999999999999230E-004     3.1078630700990758E-024
   1.5499999999999958E-003     1.8643876427645807E-023
   2.3999999999999994E-003     3.7877806963511611E-023
   3.2500000000000029E-003     5.7815848222553365E-023
   4.0999999999999925E-003     7.3703123186258482E-023
   4.9499999999999961E-003     7.9325005298200541E-023
   5.7999999999999996E-003     6.7827510924956283E-023
   6.6499999999999893E-003     3.3106869542915834E-023
   7.5000000000000067E-003    -2.8298653808647355E-023
   8.3499999999999963E-003    -1.1503583794786124E-022
   9.1999999999999860E-003    -2.1887695891842449E-022
   1.0050000000000003E-002    -3.2332341025957501E-022
   1.0899999999999993E-002    -4.0351959798624450E-022
   1.1750000000000010E-002    -4.2811092189820825E-022
   1.2600000000000000E-002    -3.6350990767906397E-022
   1.3449999999999990E-002    -1.8068559774627453E-022
   1.4300000000000007E-002     1.3594211135264327E-022
   1.5149999999999997E-002     5.7858765114426692E-022
   1.5999999999999986E-002     1.1069619755919232E-021
   1.6850000000000004E-002     1.6423181374879284E-021
   1.7699999999999994E-002     2.0674240498490419E-021
   1.8549999999999983E-002     2.2350671356755606E-021
   1.9400000000000001E-002     1.9869503798460302E-021
   2.0249999999999990E-002     1.1833398624937987E-021
   2.1100000000000008E-002    -2.5833571155450138E-022
   2.1949999999999997E-002    -2.3204064948820809E-021
   2.2799999999999987E-002    -4.8446977189721376E-021
   2.3650000000000004E-002    -7.5047569242208694E-021
   2.4499999999999994E-002    -9.8015955098108779E-021
   2.5349999999999984E-002    -1.1093531194104228E-020
   2.6200000000000001E-002    -1.0667951372525207E-020
   2.7049999999999991E-002    -7.8573013290415445E-021
   2.7900000000000008E-002    -2.1935885005764098E-021
   2.8749999999999998E-002     6.4143697229651467E-021
   2.9599999999999987E-002     1.7507332414056796E-020
   3.0450000000000005E-002     2.9941561830622161E-020
   3.1299999999999994E-002     4.1836005971237113E-020
   3.2149999999999984E-002     5.0642497411578320E-020
   3.3000000000000002E-002     5.3372397758632682E-020
   3.3849999999999991E-002     4.6995641028942818E-020
   3.4700000000000009E-002     2.9000847418631244E-020
   3.5549999999999998E-002    -1.9291977620100712E-021
   3.6399999999999988E-002    -4.5210765536639899E-020
   3.7250000000000005E-002    -9.7741174067210146E-020
   3.8099999999999995E-002    -1.5351574835617681E-019
   3.8949999999999985E-002    -2.0363434646118451E-019
   3.9800000000000002E-002    -2.3683452634550009E-019
   4.0649999999999992E-002    -2.4064142099730930E-019
   4.1500000000000009E-002    -2.0314406574940432E-019
   4.2349999999999999E-002    -1.1529993261844776E-019
   4.3199999999999988E-002     2.6455369453577655E-020
   4.4050000000000006E-002     2.1764484417235655E-019
   4.4899999999999995E-002     4.4369131879802270E-019
   4.5749999999999985E-002     6.7888264454225795E-019
   4.6600000000000003E-002     8.8687097551395373E-019
   4.7449999999999992E-002     1.0231240180336941E-018
   4.8299999999999982E-002     1.0395448863517138E-018
   4.9149999999999999E-002     8.9118678334567570E-019
   4.9999999999999989E-002     5.4462405318391678E-019
   5.0850000000000006E-002    -1.2865419743754416E-020
   5.1699999999999996E-002    -7.6453413139719871E-019
   5.2549999999999986E-002    -1.6573343778383181E-018
   5.3400000000000003E-002    -2.5986943015227244E-018
   5.4249999999999993E-002    -3.4584684300752905E-018
   5.5099999999999982E-002    -4.0772940101229671E-018
   5.5950000000000000E-002    -4.2819228380114882E-018
   5.6799999999999989E-002    -3.9072081037775774E-018
   5.7650000000000007E-002    -2.8233219288281220E-018
   5.8499999999999996E-002    -9.6561278162711621E-019
   5.9349999999999986E-002     1.6366028565796943E-018
   6.0200000000000004E-002     4.8367891912687923E-018
   6.1049999999999993E-002     8.3583703762636386E-018
   6.1899999999999983E-002     1.1796983464343867E-017
   6.2750000000000000E-002     1.4641451897483349E-017
   6.3599999999999990E-002     1.6315424573172975E-017
   6.4450000000000007E-002     1.6239200327748911E-017
   6.5299999999999997E-002     1.3908328793553543E-017
   6.6149999999999987E-002     8.9825018307064149E-018
   6.7000000000000004E-002     1.3752719004486015E-018
   6.7849999999999994E-002    -8.6671573556882215E-018
   6.8699999999999983E-002    -2.0511072129487234E-017
   6.9550000000000001E-002    -3.3117261711344380E-017
   7.0399999999999990E-002    -4.5070797848002256E-017
   7.1249999999999980E-002    -5.4665848381052877E-017
   7.2099999999999997E-002    -6.0047387500755050E-017
   7.2949999999999987E-002    -5.9404937494486614E-017
   7.3800000000000004E-002    -5.1206070217980674E-017
   7.4649999999999994E-002    -3.4450046405150835E-017
   7.5499999999999984E-002    -8.9155685215924878E-018
   7.6350000000000001E-002     2.4627884057035466E-017
   7.7199999999999991E-002     6.4277490188849839E-017
   7.8049999999999981E-002     1.0695391630649603E-016
   7.8899999999999998E-002     1.4848257273901985E-016
   7.9749999999999988E-002     1.8381543872388213E-016
   8.0600000000000005E-002     2.0739686888796738E-016
   8.1449999999999995E-002     2.1366207950511265E-016
   8.2299999999999984E-002     1.9764077489492565E-016
   8.3150000000000002E-002     1.5562265000137269E-016
   8.3999999999999991E-002     8.5827546304561470E-017
   8.4849999999999981E-002    -1.0987382404397439E-017
   8.5699999999999998E-002    -1.3105660093442825E-016
   8.6549999999999988E-002    -2.6734293789864177E-016
   8.7400000000000005E-002    -4.0954666909008989E-016
   8.8249999999999995E-002    -5.4443696225516596E-016
   8.9099999999999985E-002    -6.5653335886800691E-016
   8.9950000000000002E-002    -7.2913881658737379E-016
   9.0799999999999992E-002    -7.4569540811507140E-016
   9.1649999999999981E-002    -6.9139672175699711E-016
   9.2499999999999999E-002    -5.5496211026479010E-016
   9.3349999999999989E-002    -3.3044486506162563E-016
   9.4200000000000006E-002    -1.8920974752968742E-017
   9.5049999999999996E-002     3.7011351803406650E-016
   9.5899999999999985E-002     8.1781041362831652E-016
   9.6750000000000003E-002     1.2956788199829527E-015
   9.7599999999999992E-002     1.7660815482687250E-015
   9.8449999999999982E-002     2.1836367370667863E-015
   9.9299999999999999E-002     2.4975858917717670E-015
  0.10014999999999999          2.6551247463157785E-015
  0.10099999999999998          2.6056070192726859E-015
  0.10185000000000000          2.3054533550131209E-015
  0.10269999999999999          1.7234915880841681E-015
  0.10355000000000000          8.4636879307147392E-016
  0.10439999999999999         -3.1640401806984614E-016
  0.10524999999999998         -1.7282716644104090E-015
  0.10610000000000000         -3.3228611237018603E-015
  0.10694999999999999         -5.0031348179367355E-015
  0.10779999999999998         -6.6429466421150404E-015
  0.10865000000000000         -8.0913809451589807E-015
  0.10949999999999999         -9.1800902585989006E-015
  0.11035000000000000         -9.7336462142483771E-015
  0.11119999999999999         -9.5826591279893272E-015
  0.11204999999999998         -8.5791885241810519E-015
  0.11290000000000000         -6.6136021938854804E-015
  0.11374999999999999         -3.6318215509446464E-015
  0.11459999999999998          3.4836567452835719E-016
  0.11545000000000000          5.2234653723390938E-015
  0.11629999999999999          1.0794496799870673E-014
  0.11715000000000000          1.6762858553907405E-014
  0.11799999999999999          2.2733297191985572E-014
  0.11884999999999998          2.8225114753149020E-014
  0.11970000000000000          3.2692370695203186E-014
  0.12054999999999999          3.5553194723010814E-014
  0.12139999999999998          3.6227743308742232E-014
  0.12225000000000000          3.4183472521515356E-014
  0.12309999999999999          2.8985700248813901E-014
  0.12395000000000000          2.0350712661774386E-014
  0.12479999999999999          8.1978636688825253E-015
  0.12564999999999998         -7.3034015915483312E-015
  0.12650000000000000         -2.5695991461835452E-014
  0.12734999999999999         -4.6211491172518960E-014
  0.12819999999999998         -6.7764647112987862E-014
  0.12905000000000000         -8.8969861273737099E-014
  0.12989999999999999         -1.0818236556166666E-013
  0.13074999999999998         -1.2356572605102403E-013
  0.13159999999999999         -1.3318579674574016E-013
  0.13245000000000001         -1.3512917328164918E-013
  0.13329999999999997         -1.2764270291620808E-013
  0.13414999999999999         -1.0928782388048378E-013
  0.13500000000000001         -7.9102195499248485E-014
  0.13584999999999997         -3.6758575479256575E-014
  0.13669999999999999          1.7289860987610253E-014
  0.13755000000000001          8.1690473243066460E-014
  0.13839999999999997          1.5411030872934384E-013
  0.13924999999999998          2.3120632202109207E-013
  0.14010000000000000          3.0865732273268571E-013
  0.14094999999999996          3.8126628307633096E-013
  0.14179999999999998          4.4313901066944628E-013
  0.14265000000000000          4.8794053851895923E-013
  0.14350000000000002          5.0922671979916528E-013
  0.14434999999999998          5.0084181087911450E-013
  0.14520000000000000          4.5736987853859993E-013
  0.14605000000000001          3.7461926938266680E-013
  0.14689999999999998          2.5011631732661305E-013
  0.14774999999999999          8.3578081677743088E-014
  0.14860000000000001         -1.2266722479996238E-013
  0.14944999999999997         -3.6334704803582003E-013
  0.15029999999999999         -6.3003249707995845E-013
  0.15115000000000001         -9.1108233357943120E-013
  0.15199999999999997         -1.1917706046731741E-012
  0.15284999999999999         -1.4546205416604509E-012
  0.15370000000000000         -1.6799604851186725E-012
  0.15454999999999997         -1.8467019287280874E-012
  0.15539999999999998         -1.9333333482048082E-012
  0.15625000000000000         -1.9191096435807744E-012
  0.15709999999999996         -1.7853972796424455E-012
  0.15794999999999998         -1.5171253676993029E-012
  0.15880000000000000         -1.1042809879596551E-012
  0.15965000000000001         -5.4336976034371321E-013
  0.16049999999999998          1.6124111329734038E-013
  0.16134999999999999          9.9619487695525262E-013
  0.16220000000000001          1.9383207955413788E-012
  0.16304999999999997          2.9542087306309697E-012
  0.16389999999999999          4.0002678214343922E-012
  0.16475000000000001          5.0233394707982444E-012
  0.16559999999999997          5.9619207840061738E-012
  0.16644999999999999          6.7480361606424490E-012
  0.16730000000000000          7.3097441900140942E-012
  0.16814999999999997          7.5742714555843236E-012
  0.16899999999999998          7.4716744953894455E-012
  0.16985000000000000          6.9389592809146889E-012
  0.17069999999999996          5.9245013269928756E-012
  0.17154999999999998          4.3925872733955059E-012
  0.17240000000000000          2.3278766748178164E-012
  0.17325000000000002         -2.6045929397606798E-013
  0.17409999999999998         -3.3351772887973665E-012
  0.17494999999999999         -6.8282505306312465E-012
  0.17580000000000001         -1.0639241650502223E-011
  0.17664999999999997         -1.4635028392029559E-011
  0.17749999999999999         -1.8651097644517395E-011
  0.17835000000000001         -2.2494591733562675E-011
  0.17919999999999997         -2.5949174633563713E-011
  0.18004999999999999         -2.8781801079382406E-011
  0.18090000000000001         -3.0751379211891799E-011
  0.18174999999999997         -3.1619105761638837E-011
  0.18259999999999998         -3.1160330253790226E-011
  0.18345000000000000         -2.9177587484382574E-011
  0.18429999999999996         -2.5514411209016176E-011
  0.18514999999999998         -2.0069375357715273E-011
  0.18600000000000000         -1.2809835069663711E-011
  0.18684999999999996         -3.7846258039031165E-012
  0.18769999999999998          6.8648702910152157E-012
  0.18855000000000000          1.8895984409498104E-011
  0.18940000000000001          3.1959080904339707E-011
  0.19024999999999997          4.5595568371720986E-011
  0.19109999999999999          5.9240121225887340E-011
  0.19195000000000001          7.2227669180566249E-011
  0.19279999999999997          8.3805337416342267E-011
  0.19364999999999999          9.3149560723392026E-011
  0.19450000000000001          9.9388341666382179E-011
  0.19534999999999997          1.0162870501242147E-010
  0.19619999999999999          9.8988542443450994E-011
  0.19705000000000000          9.0632517659881628E-011
  0.19789999999999996          7.5811151950065705E-011
  0.19874999999999998          5.3902626519966282E-011
  0.19960000000000000          2.4455378335240217E-011
  0.20044999999999996         -1.2768446292308354E-011
  0.20129999999999998         -5.7750918714363731E-011
  0.20215000000000000         -1.1017791771708963E-010
  0.20300000000000001         -1.6940183786346256E-010
  0.20384999999999998         -2.3440756235988415E-010
  0.20469999999999999         -3.0378353171908208E-010
  0.20555000000000001         -3.7569644352610543E-010
  0.20639999999999997         -4.4787206900989659E-010
  0.20724999999999999         -5.1757771652267742E-010
  0.20810000000000001         -5.8160968938604058E-010
  0.20894999999999997         -6.3628326834680478E-010
  0.20979999999999999         -6.7741817756885547E-010
  0.21065000000000000         -7.0032570312003684E-010
  0.21149999999999997         -6.9978777475642616E-010
  0.21234999999999998         -6.7002634626214916E-010
  0.21320000000000000         -6.0465525676875401E-010
  0.21404999999999996         -4.9662359279093340E-010
  0.21489999999999998         -3.3812498392754136E-010
  0.21575000000000000         -1.2048081212801278E-010
  0.21659999999999996          1.6601444966999309E-010
  0.21744999999999998          5.3228150807831515E-010
  0.21829999999999999          9.9069809514500579E-010
  0.21915000000000001          1.5553976010795711E-009
  0.21999999999999997          2.2426285988702232E-009
  0.22084999999999999          3.0711889858633747E-009
  0.22170000000000001          4.0629246693196317E-009
  0.22254999999999997          5.2433303881171192E-009
  0.22339999999999999          6.6422354044855157E-009
  0.22425000000000000          8.2945728346407808E-009
  0.22509999999999997          1.0241294830629956E-008
  0.22594999999999998          1.2530424638792210E-008
  0.22680000000000000          1.5218166373654984E-008
  0.22764999999999996          1.8370208291353326E-008
  0.22849999999999998          2.2063196849376449E-008
  0.22935000000000000          2.6386366707268712E-008
  0.23019999999999996          3.1443312775034557E-008
  0.23104999999999998          3.7353907359837104E-008
  0.23190000000000000          4.4256704562441374E-008
  0.23275000000000001          5.2311202171958689E-008
  0.23359999999999997          6.1700641986449355E-008
  0.23444999999999999          7.2634902244003435E-008
  0.23530000000000001          8.5353664625413457E-008
  0.23614999999999997          1.0013021869382844E-007
  0.23699999999999999          1.1727505509630146E-007
  0.23785000000000001          1.3713995414782378E-007
  0.23869999999999997          1.6012277902520972E-007
  0.23954999999999999          1.8667255228379925E-007
  0.24040000000000000          2.1729416897314201E-007
  0.24124999999999996          2.5255468097053316E-007
  0.24209999999999998          2.9308889345106161E-007
  0.24295000000000000          3.3960601247392329E-007
  0.24379999999999996          3.9289608379034861E-007
  0.24464999999999998          4.5383785883297782E-007
  0.24550000000000000          5.2340586446637129E-007
  0.24634999999999996          6.0267783935965521E-007
  0.24719999999999998          6.9284237992995583E-007
  0.24804999999999999          7.9520683257671999E-007
  0.24890000000000001          9.1120644694551211E-007
  0.24974999999999997          1.0424117603058440E-006
  0.25059999999999999          1.1905377870782606E-006
  0.25145000000000001          1.3574479341359220E-006
  0.25229999999999997          1.5451625536126835E-006
  0.25314999999999999          1.7558638993638388E-006
  0.25400000000000000          1.9919041007220342E-006
  0.25484999999999997          2.2558093757099554E-006
  0.25569999999999998          2.5502804100515333E-006
  0.25655000000000000          2.8781936049356130E-006
  0.25739999999999996          3.2425994771450355E-006
  0.25824999999999998          3.6467192800179984E-006
  0.25910000000000000          4.0939381604639431E-006
  0.25994999999999996          4.5878022298226196E-006
  0.26079999999999998          5.1320018318324739E-006
  0.26164999999999999          5.7303534112386226E-006
  0.26249999999999996          6.3867816502471758E-006
  0.26334999999999997          7.1053007777557365E-006
  0.26419999999999999          7.8899731808731999E-006
  0.26505000000000001          8.7448880009014451E-006
  0.26589999999999997          9.6741216902854687E-006
  0.26674999999999999          1.0681687907989200E-005
  0.26760000000000000          1.1771487833610441E-005
  0.26844999999999997          1.2947263792086668E-005
  0.26929999999999998          1.4212524431136069E-005
  0.27015000000000000          1.5570497698800888E-005
  0.27099999999999996          1.7024044517447161E-005
  0.27184999999999998          1.8575579867329017E-005
  0.27270000000000000          2.0227003103642392E-005
  0.27354999999999996          2.1979606805478682E-005
  0.27439999999999998          2.3833978174529237E-005
  0.27524999999999999          2.5789930937732684E-005
  0.27609999999999996          2.7846398651087663E-005
  0.27694999999999997          3.0001309101925302E-005
  0.27779999999999999          3.2251498238404974E-005
  0.27865000000000001          3.4592640476387593E-005
  0.27949999999999997          3.7019154799907761E-005
  0.28034999999999999          3.9524115360579091E-005
  0.28120000000000001          4.2099159161015616E-005
  0.28204999999999997          4.4734358773602457E-005
  0.28289999999999998          4.7418169605104076E-005
  0.28375000000000000          5.0137397315130894E-005
  0.28459999999999996          5.2877197359682960E-005
  0.28544999999999998          5.5621064056274121E-005
  0.28630000000000000          5.8350729159447104E-005
  0.28714999999999996          6.1046077143113008E-005
  0.28799999999999998          6.3685267734992011E-005
  0.28885000000000000          6.6244814108531048E-005
  0.28969999999999996          6.8699690393779662E-005
  0.29054999999999997          7.1023438366323846E-005
  0.29139999999999999          7.3188088923189631E-005
  0.29224999999999995          7.5164370709144765E-005
  0.29309999999999997          7.6921921346574315E-005
  0.29394999999999999          7.8429497285073015E-005
  0.29480000000000001          7.9655278568512315E-005
  0.29564999999999997          8.0567036832965636E-005
  0.29649999999999999          8.1132344408508259E-005
  0.29735000000000000          8.1318978005352630E-005
  0.29819999999999997          8.1095154173715673E-005
  0.29904999999999998          8.0429842155677793E-005
  0.29990000000000000          7.9293327003866071E-005
  0.30074999999999996          7.7657414198060472E-005
  0.30159999999999998          7.5495901306476361E-005
  0.30245000000000000          7.2784898235234673E-005
  0.30329999999999996          6.9503246039206859E-005
  0.30414999999999998          6.5632879877956232E-005
  0.30499999999999999          6.1159299789756687E-005
  0.30584999999999996          5.6071744721272266E-005
  0.30669999999999997          5.0363741110930971E-005
  0.30754999999999999          4.4033577468062047E-005
  0.30840000000000001          3.7084475986326362E-005
  0.30924999999999997          2.9524681481139163E-005
  0.31009999999999999          2.1367701665199847E-005
  0.31095000000000000          1.2632569663112814E-005
  0.31179999999999997          3.3440688791565971E-006
  0.31264999999999998         -6.4670735413715780E-006
  0.31350000000000000         -1.6764159430554917E-005
  0.31434999999999996         -2.7504869174698008E-005
  0.31519999999999998         -3.8641423922680256E-005
  0.31605000000000000         -5.0120717847834358E-005
  0.31689999999999996         -6.1884149441015720E-005
  0.31774999999999998         -7.3867959208051938E-005
  0.31859999999999999         -8.6003745713018756E-005
  0.31944999999999996         -9.8219007303787000E-005
  0.32029999999999997         -1.1043765976077825E-004
  0.32114999999999999         -1.2258067280498009E-004
  0.32199999999999995         -1.3456653288483264E-004
  0.32284999999999997         -1.4631168979303290E-004
  0.32369999999999999         -1.5773132262108039E-004
  0.32455000000000001         -1.6874027335176691E-004
  0.32539999999999997         -1.7925387191707097E-004
  0.32624999999999998         -1.8918888756562762E-004
  0.32710000000000000         -1.9846405468324684E-004
  0.32794999999999996         -2.0700070084093795E-004
  0.32879999999999998         -2.1472357095498988E-004
  0.32965000000000000         -2.2156192176835208E-004
  0.33049999999999996         -2.2745025799444018E-004
  0.33134999999999998         -2.3232911763738928E-004
  0.33220000000000000         -2.3614561608067963E-004
  0.33304999999999996         -2.3885394117673531E-004
  0.33389999999999997         -2.4041591126735531E-004
  0.33474999999999999         -2.4080166896377686E-004
  0.33559999999999995         -2.3999011607623525E-004
  0.33644999999999997         -2.3796931121483839E-004
  0.33729999999999999         -2.3473662237958768E-004
  0.33815000000000001         -2.3029865175976409E-004
  0.33899999999999997         -2.2467137634538288E-004
  0.33984999999999999         -2.1788013978222024E-004
  0.34070000000000000         -2.0995965022866520E-004
  0.34154999999999996         -2.0095370325697113E-004
  0.34239999999999998         -1.9091476841319845E-004