 -0.12000000000000000          0.0000000000000000     
 -0.11914999999999999          0.0000000000000000     
 -0.11830000000000000          0.0000000000000000     
 -0.11745000000000000          0.0000000000000000     
 -0.11660000000000000          0.0000000000000000     
 -0.11574999999999999          0.0000000000000000     
 -0.11490000000000000          0.0000000000000000     
 -0.11405000000000000          0.0000000000000000     
 -0.11320000000000000         -9.4902468272578046E-033
 -0.11234999999999999         -1.5174640173608606E-031
 -0.11150000000000000         -1.2382152286772825E-030
 -0.11065000000000000         -6.8491311631763144E-030
 -0.10979999999999999         -2.8752821777597038E-029
 -0.10894999999999999         -9.7089510821364372E-029
 -0.10810000000000000         -2.7225754153155904E-028
 -0.10725000000000000         -6.4353346434152869E-028
 -0.10639999999999999         -1.2801339571378757E-027
 -0.10554999999999999         -2.0832959804127770E-027
 -0.10470000000000000         -2.4974680705622035E-027
 -0.10385000000000000         -1.1116738194066073E-027
 -0.10299999999999999          4.6501138241210616E-027
 -0.10214999999999999          1.8297955519890931E-026
 -0.10130000000000000          4.2810814841033668E-026
 -0.10045000000000000          7.7223208139062895E-026
  -9.9599999999999994E-002     1.1105211295512365E-025
  -9.8750000000000004E-002     1.1765914970487395E-025
  -9.7900000000000001E-002     4.9802844101766205E-026
  -9.7049999999999997E-002    -1.5679537592923492E-025
  -9.6199999999999994E-002    -5.6423773076400897E-025
  -9.5349999999999990E-002    -1.1907891976699615E-024
  -9.4500000000000001E-002    -1.9456843790115572E-024
  -9.3649999999999997E-002    -2.5515724031351916E-024
  -9.2799999999999994E-002    -2.4842814437745032E-024
  -9.1950000000000004E-002    -9.8054386328474924E-025
  -9.1100000000000000E-002     2.8207464259597502E-024
  -9.0249999999999997E-002     9.5423325646184496E-024
  -8.9399999999999993E-002     1.9014149242506797E-023
  -8.8549999999999990E-002     2.9561078856648562E-023
  -8.7700000000000000E-002     3.7322368247494975E-023
  -8.6849999999999997E-002     3.5945196167307072E-023
  -8.5999999999999993E-002     1.7122125067773604E-023
  -8.5150000000000003E-002    -2.7533751647109768E-023
  -8.4300000000000000E-002    -1.0295422246709568E-022
  -8.3449999999999996E-002    -2.0554608679271160E-022
  -8.2600000000000007E-002    -3.1745100674287073E-022
  -8.1749999999999989E-002    -4.0194478454113747E-022
  -8.0900000000000000E-002    -4.0269786506743520E-022
  -8.0049999999999996E-002    -2.5010893075145145E-022
  -7.9199999999999993E-002     1.2250240825431217E-022
  -7.8350000000000003E-002     7.5183723800331656E-022
  -7.7499999999999999E-002     1.6090565089126629E-021
  -7.6649999999999996E-002     2.5627865254855200E-021
  -7.5800000000000006E-002     3.3529076496660432E-021
  -7.4949999999999989E-002     3.5913726749822039E-021
  -7.4099999999999999E-002     2.8071030561479449E-021
  -7.3249999999999996E-002     5.4744157447573341E-022
  -7.2399999999999992E-002    -3.4627350533777009E-021
  -7.1550000000000002E-002    -9.1212920196606460E-021
  -7.0699999999999999E-002    -1.5748069104858426E-020
  -6.9849999999999995E-002    -2.1944819847826674E-020
  -6.9000000000000006E-002    -2.5592035543360774E-020
  -6.8149999999999988E-002    -2.4057624904320843E-020
  -6.7299999999999999E-002    -1.4668572692520118E-020
  -6.6449999999999995E-002     4.5534817683827392E-021
  -6.5599999999999992E-002     3.3965179027314904E-020
  -6.4750000000000002E-002     7.1342106327273145E-020
  -6.3899999999999998E-002     1.1112874853476103E-019
  -6.3049999999999995E-002     1.4419251767271862E-019
  -6.2199999999999998E-002     1.5837823344015536E-019
  -6.1350000000000002E-002     1.4008707433068329E-019
  -6.0499999999999998E-002     7.6947586068920550E-020
  -5.9650000000000002E-002    -3.8584631055247372E-020
  -5.8799999999999998E-002    -2.0514800070318994E-019
  -5.7950000000000002E-002    -4.0865456464284139E-019
  -5.7099999999999998E-002    -6.1970443322881404E-019
  -5.6249999999999994E-002    -7.9332734024220801E-019
  -5.5400000000000005E-002    -8.7207257660392854E-019
  -5.4550000000000001E-002    -7.9315876977227306E-019
  -5.3699999999999998E-002    -4.9982649287407220E-019
  -5.2849999999999994E-002     4.3775201798707688E-020
  -5.2000000000000005E-002     8.3583560828887926E-019
  -5.1150000000000001E-002     1.8209636053881013E-018
  -5.0299999999999997E-002     2.8787190783190551E-018
  -4.9449999999999994E-002     3.8207633036312059E-018
  -4.8600000000000004E-002     4.4007319361049489E-018
  -4.7750000000000001E-002     4.3400112683193928E-018
  -4.6899999999999997E-002     3.3706497267791316E-018
  -4.6049999999999994E-002     1.2936877443091167E-018
  -4.5200000000000004E-002    -1.9526381446886254E-018
  -4.4350000000000001E-002    -6.2245302112584421E-018
  -4.3499999999999997E-002    -1.1117680325791788E-017
  -4.2649999999999993E-002    -1.5941843223812773E-017
  -4.1800000000000004E-002    -1.9741275236525176E-017
  -4.0950000000000000E-002    -2.1374411134475663E-017
  -4.0099999999999997E-002    -1.9659360409207124E-017
  -3.9249999999999993E-002    -1.3581491250369772E-017
  -3.8400000000000004E-002    -2.5458938009279476E-018
  -3.7550000000000000E-002     1.3356751754525388E-017
  -3.6699999999999997E-002     3.3115659624434054E-017
  -3.5850000000000007E-002     5.4650316601083905E-017
  -3.5000000000000003E-002     7.4801162924912854E-017
  -3.4150000000000000E-002     8.9508640166345999E-017
  -3.3299999999999996E-002     9.4209820900440968E-017
  -3.2450000000000007E-002     8.4454232000260893E-017
  -3.1600000000000003E-002     5.6702355680656328E-017
  -3.0750000000000000E-002     9.2302749084918923E-018
  -2.9899999999999996E-002    -5.6977111538123649E-017
  -2.9050000000000006E-002    -1.3749394481667047E-016
  -2.8200000000000003E-002    -2.2405067272927329E-016
  -2.7349999999999999E-002    -3.0462625508515336E-016
  -2.6499999999999996E-002    -3.6417361776970553E-016
  -2.5650000000000006E-002    -3.8605706871513372E-016
  -2.4800000000000003E-002    -3.5419412905866751E-016
  -2.3949999999999999E-002    -2.5578240596378248E-016
  -2.3099999999999996E-002    -8.4361754211117816E-017
  -2.2250000000000006E-002     1.5717103530389388E-016
  -2.1400000000000002E-002     4.5408555742290192E-016
  -2.0549999999999999E-002     7.7844263437728563E-016
  -1.9699999999999995E-002     1.0893813767399011E-015
  -1.8850000000000006E-002     1.3355283893459481E-015
  -1.8000000000000002E-002     1.4597882638332632E-015
  -1.7149999999999999E-002     1.4064524492741150E-015
  -1.6299999999999995E-002     1.1301577941003606E-015
  -1.5450000000000005E-002     6.0578288935717936E-016
  -1.4600000000000002E-002    -1.6205195999031884E-016
  -1.3749999999999998E-002    -1.1315130922079455E-015
  -1.2899999999999995E-002    -2.2198486833229237E-015
  -1.2050000000000005E-002    -3.3050002277749155E-015
  -1.1200000000000002E-002    -4.2335878399724930E-015
  -1.0349999999999998E-002    -4.8355251610047169E-015
  -9.5000000000000084E-003    -4.9444979067166364E-015
  -8.6500000000000049E-003    -4.4224203632042880E-015
  -7.8000000000000014E-003    -3.1849727936363447E-015
  -6.9499999999999978E-003    -1.2246074363837857E-015
  -6.1000000000000082E-003     1.3728154016648063E-015
  -5.2500000000000047E-003     4.4212388113134126E-015
  -4.4000000000000011E-003     7.6399816726157551E-015
  -3.5499999999999976E-003     1.0672643091030758E-014
  -2.7000000000000079E-003     1.3118469086711161E-014
  -1.8500000000000044E-003     1.4573537444543490E-014
  -1.0000000000000009E-003     1.4677388944823102E-014
  -1.4999999999999736E-004     1.3159837199543824E-014
   6.9999999999999230E-004     9.8823299474793415E-015
   1.5499999999999958E-003     4.8689323901918261E-015
   2.3999999999999994E-003    -1.6769402697020008E-015
   3.2500000000000029E-003    -9.3718954464161622E-015
   4.0999999999999925E-003    -1.7668207634690672E-014
   4.9499999999999961E-003    -2.5883968382212630E-014
   5.7999999999999996E-003    -3.3244958485084255E-014
   6.6499999999999893E-003    -3.8934803171615811E-014
   7.5000000000000067E-003    -4.2149965625667901E-014
   8.3499999999999963E-003    -4.2156965999373459E-014
   9.1999999999999860E-003    -3.8350155852879479E-014
   1.0050000000000003E-002    -3.0308950182070352E-014
   1.0899999999999993E-002    -1.7854270469375604E-014
   1.1750000000000010E-002    -1.1032911358549945E-015
   1.2600000000000000E-002     1.9478710087413287E-014
   1.3449999999999990E-002     4.3032847849053497E-014
   1.4300000000000007E-002     6.8272759781361082E-014
   1.5149999999999997E-002     9.3469961413050541E-014
   1.5999999999999986E-002     1.1646843841886091E-013
   1.6850000000000004E-002     1.3474007883773197E-013
   1.7699999999999994E-002     1.4549211218855002E-013
   1.8549999999999983E-002     1.4583740660274414E-013
   1.9400000000000001E-002     1.3303296363290365E-013
   2.0249999999999990E-002     1.0478704013063195E-013
   2.1100000000000008E-002     5.9623114048967131E-014
   2.1949999999999997E-002    -2.7214106291583904E-015
   2.2799999999999987E-002    -8.0899120720489001E-014
   2.3650000000000004E-002    -1.7161165350311164E-013
   2.4499999999999994E-002    -2.6938622683500403E-013
   2.5349999999999984E-002    -3.6653723773404212E-013
   2.6200000000000001E-002    -4.5337891626547388E-013
   2.7049999999999991E-002    -5.1873910576016444E-013
   2.7900000000000008E-002    -5.5079163529566147E-013
   2.8749999999999998E-002    -5.3819098032933961E-013
   2.9599999999999987E-002    -4.7143855316780370E-013
   3.0450000000000005E-002    -3.4436184045005399E-013
   3.1299999999999994E-002    -1.5554349277506174E-013
   3.2149999999999984E-002     9.0493836108890590E-014
   3.3000000000000002E-002     3.8254212004964838E-013
   3.3849999999999991E-002     7.0257853539372804E-013
   3.4700000000000009E-002     1.0263684480435873E-012
   3.5549999999999998E-002     1.3248415604809427E-012
   3.6399999999999988E-002     1.5661862190591596E-012
   3.7250000000000005E-002     1.7185048271067185E-012
   3.8099999999999995E-002     1.7527970241702466E-012
   3.8949999999999985E-002     1.6459746645889416E-012
   3.9800000000000002E-002     1.3836039340559872E-012
   4.0649999999999992E-002     9.6207833860218214E-013
   4.1500000000000009E-002     3.9001597530903984E-013
   4.2349999999999999E-002    -3.1125098143430499E-013
   4.3199999999999988E-002    -1.1081318230173829E-012
   4.4050000000000006E-002    -1.9561016237940925E-012
   4.4899999999999995E-002    -2.8017707961281583E-012
   4.5749999999999985E-002    -3.5855200834163530E-012
   4.6600000000000003E-002    -4.2445411559783613E-012
   4.7449999999999992E-002    -4.7161382870698006E-012
   4.8299999999999982E-002    -4.9412012948240352E-012
   4.9149999999999999E-002    -4.8677827135735633E-012
   4.9999999999999989E-002    -4.4547125681738208E-012
   5.0850000000000006E-002    -3.6752314758829635E-012
   5.1699999999999996E-002    -2.5204739500716088E-012
   5.2549999999999986E-002    -1.0026773280839313E-012
   5.3400000000000003E-002     8.4218225634325547E-013
   5.4249999999999993E-002     2.9526457047200649E-012
   5.5099999999999982E-002     5.2412554395336098E-012
   5.5950000000000000E-002     7.5955948380033914E-012
   5.6799999999999989E-002     9.8810562764457927E-012
   5.7650000000000007E-002     1.1945515740595568E-011
   5.8499999999999996E-002     1.3625803623738473E-011
   5.9349999999999986E-002     1.4755786991406650E-011
   6.0200000000000004E-002     1.5175659851680488E-011
   6.1049999999999993E-002     1.4742042070514393E-011
   6.1899999999999983E-002     1.3338459820817301E-011
   6.2750000000000000E-002     1.0885528137518374E-011
   6.3599999999999990E-002     7.3505682157829155E-012
   6.4450000000000007E-002     2.7561337487964627E-012
   6.5299999999999997E-002    -2.8130600930703031E-012
   6.6149999999999987E-002    -9.2052750883980933E-012
   6.7000000000000004E-002    -1.6199273918095946E-011
   6.7849999999999994E-002    -2.3505027991471381E-011
   6.8699999999999983E-002    -3.0768001031638072E-011
   6.9550000000000001E-002    -3.7577377713803618E-011
   7.0399999999999990E-002    -4.3478714888652684E-011
   7.1249999999999980E-002    -4.7990895662570527E-011
   7.2099999999999997E-002    -5.0627127570908355E-011
   7.2949999999999987E-002    -5.0919296937665180E-011
   7.3800000000000004E-002    -4.8445258668323239E-011
   7.4649999999999994E-002    -4.2856924827456997E-011
   7.5499999999999984E-002    -3.3909095925045252E-011
   7.6350000000000001E-002    -2.1487317739740924E-011
   7.7199999999999991E-002    -5.6332621168852663E-012
   7.8049999999999981E-002     1.3432478308519576E-011
   7.8899999999999998E-002     3.5291282234371699E-011
   7.9749999999999988E-002     5.9312665814096315E-011
   8.0600000000000005E-002     8.4645827141276776E-011
   8.1449999999999995E-002     1.1021871059097632E-010
   8.2299999999999984E-002     1.3474727241045672E-010
   8.3150000000000002E-002     1.5675549050060930E-010
   8.3999999999999991E-002     1.7461162823003093E-010
   8.4849999999999981E-002     1.8657999372935059E-010
   8.5699999999999998E-002     1.9089184524707461E-010
   8.6549999999999988E-002     1.8583668695991975E-010
   8.7400000000000005E-002     1.6986942194911427E-010
   8.8249999999999995E-002     1.4173339338586944E-010
   8.9099999999999985E-002     1.0059038411903818E-010
   8.9950000000000002E-002     4.6152588450193803E-011
   9.0799999999999992E-002    -2.1194504911557658E-011
   9.1649999999999981E-002    -1.0028869852331381E-010
   9.2499999999999999E-002    -1.8911538045209273E-010
   9.3349999999999989E-002    -2.8477139360181284E-010
   9.4200000000000006E-002    -3.8347586747933274E-010
   9.5049999999999996E-002    -4.8062996806616484E-010
   9.5899999999999985E-002    -5.7093546829809417E-010
   9.6750000000000003E-002    -6.4856567399842245E-010
   9.7599999999999992E-002    -7.0739185087344094E-010
   9.8449999999999982E-002    -7.4125578985588998E-010
   9.9299999999999999E-002    -7.4428288463807071E-010
  0.10014999999999999         -7.1123073952794335E-010
  0.10099999999999998         -6.3784473967132398E-010
  0.10185000000000000         -5.2122022143402206E-010
  0.10269999999999999         -3.6014780378531524E-010
  0.10355000000000000         -1.5541037440819818E-010
  0.10439999999999999          8.9970240862915730E-011
  0.10524999999999998          3.7057654333324486E-010
  0.10610000000000000          6.7854292324353131E-010
  0.10694999999999999          1.0036200395841061E-009
  0.10779999999999998          1.3333656830232222E-009
  0.10865000000000000          1.6534732365944764E-009
  0.10949999999999999          1.9482309413469342E-009
  0.11035000000000000          2.2010866137260623E-009
  0.11119999999999999          2.3953107550989447E-009
  0.11204999999999998          2.5147394634256109E-009
  0.11290000000000000          2.5445441419985803E-009
  0.11374999999999999          2.4719980617448843E-009
  0.11459999999999998          2.2871957221009466E-009
  0.11545000000000000          1.9837211061215098E-009
  0.11629999999999999          1.5592144909889693E-009
  0.11715000000000000          1.0158200585668066E-009
  0.11799999999999999          3.6048283432761289E-010
  0.11884999999999998         -3.9487189373428547E-010
  0.11970000000000000         -1.2333299498747093E-009
  0.12054999999999999         -2.1330261344962427E-009
  0.12139999999999998         -3.0673646586096063E-009
  0.12225000000000000         -4.0053506338357744E-009
  0.12309999999999999         -4.9118291371547153E-009
  0.12395000000000000         -5.7478429952539462E-009
  0.12479999999999999         -6.4710009756532026E-009
  0.12564999999999998         -7.0357528787720986E-009
  0.12650000000000000         -7.3935256505999310E-009
  0.12734999999999999         -7.4928400274369175E-009
  0.12819999999999998         -7.2795185798510376E-009
  0.12905000000000000         -6.6966125642247819E-009
  0.12989999999999999         -5.6843377183163686E-009
  0.13074999999999998         -4.1799613006066966E-009
  0.13159999999999999         -2.1173254497803471E-009
  0.13245000000000001          5.7361887838589032E-010
  0.13329999999999997          3.9674065105185616E-009
  0.13414999999999999          8.1440493737139017E-009
  0.13500000000000001          1.3189933966194387E-008
  0.13584999999999997          1.9199110882856787E-008
  0.13669999999999999          2.6275447119275681E-008
  0.13755000000000001          3.4535001871823413E-008
  0.13839999999999997          4.4108719469957346E-008
  0.13924999999999998          5.5145692261757530E-008
  0.14010000000000000          6.7818102016955527E-008
  0.14094999999999996          8.2326568703796051E-008
  0.14179999999999998          9.8908191144617210E-008
  0.14265000000000000          1.1784401657817918E-007
  0.14350000000000002          1.3946655736784584E-007
  0.14434999999999998          1.6417368862571923E-007
  0.14520000000000000          1.9243613796851416E-007
  0.14605000000000001          2.2481261059472442E-007
  0.14689999999999998          2.6196472986429881E-007
  0.14774999999999999          3.0466962962940183E-007
  0.14860000000000001          3.5383988696550925E-007
  0.14944999999999997          4.1054376922357772E-007
  0.15029999999999999          4.7602300372164421E-007
  0.15115000000000001          5.5171034257322000E-007
  0.15199999999999997          6.3925801002313332E-007
  0.15284999999999999          7.4055566946151275E-007
  0.15370000000000000          8.5775500583947584E-007
  0.15454999999999997          9.9328850128985699E-007
  0.15539999999999998          1.1499143616608154E-006
  0.15625000000000000          1.3307381931938170E-006
  0.15709999999999996          1.5392403097867278E-006
  0.15794999999999998          1.7793183281885422E-006
  0.15880000000000000          2.0553150468394124E-006
  0.15965000000000001          2.3720803999252787E-006
  0.16049999999999998          2.7350118597333848E-006
  0.16134999999999999          3.1500928045346297E-006
  0.16220000000000001          3.6239590287948599E-006
  0.16304999999999997          4.1639065075176295E-006
  0.16389999999999999          4.7780571087817622E-006
  0.16475000000000001          5.4753385554686795E-006
  0.16559999999999997          6.2655272641837352E-006
  0.16644999999999999          7.1593995231726004E-006
  0.16730000000000000          8.1686825438856535E-006
  0.16814999999999997          9.3061682500833131E-006
  0.16899999999999998          1.0585791686781637E-005
  0.16985000000000000          1.2022593080054942E-005
  0.17069999999999996          1.3632743505401578E-005
  0.17154999999999998          1.5433581758328854E-005
  0.17240000000000000          1.7443773599892376E-005
  0.17325000000000002          1.9683169050577330E-005
  0.17409999999999998          2.2172663744329031E-005
  0.17494999999999999          2.4934328257898581E-005
  0.17580000000000001          2.7991144697525673E-005
  0.17664999999999997          3.1366912575846417E-005
  0.17749999999999999          3.5086063685731990E-005
  0.17835000000000001          3.9173484303552732E-005
  0.17919999999999997          4.3654577935612940E-005
  0.18004999999999999          4.8554673769280538E-005
  0.18090000000000001          5.3898506162132862E-005
  0.18174999999999997          5.9710197080777590E-005
  0.18259999999999998          6.6012845487095948E-005
  0.18345000000000000          7.2828758509773289E-005
  0.18429999999999996          8.0177859632532775E-005
  0.18514999999999998          8.8077475548352369E-005
  0.18600000000000000          9.6542038678228451E-005
  0.18684999999999996          1.0558242084871530E-004
  0.18769999999999998          1.1520455016395440E-004
  0.18855000000000000          1.2540824655052270E-004
  0.18940000000000001          1.3618826752095616E-004
  0.19024999999999997          1.4753219887606148E-004
  0.19109999999999999          1.5942109912906862E-004
  0.19195000000000001          1.7182710045777143E-004
  0.19279999999999997          1.8471410615705661E-004
  0.19364999999999999          1.9803511795045089E-004
  0.19450000000000001          2.1173251709772254E-004
  0.19534999999999997          2.2573977670159155E-004
  0.19619999999999999          2.3997607100302337E-004
  0.19705000000000000          2.5434911237789612E-004
  0.19789999999999996          2.6875159668406404E-004
  0.19874999999999998          2.8306301238476168E-004
  0.19960000000000000          2.9714988240196776E-004
  0.20044999999999996          3.1086600934384029E-004
  0.20129999999999998          3.2404946587301717E-004
  0.20215000000000000          3.3652373126232286E-004
  0.20300000000000001          3.4810347886621512E-004
  0.20384999999999998          3.5859122471918272E-004
  0.20469999999999999          3.6777569916516054E-004
  0.20555000000000001          3.7543428223411646E-004
  0.20639999999999997          3.8134272827989815E-004
  0.20724999999999999          3.8526468035223111E-004
  0.20810000000000001          3.8695259781362275E-004
  0.20894999999999997          3.8616495487000423E-004
  0.20979999999999999          3.8265888225788358E-004
  0.21065000000000000          3.7618994145572981E-004
  0.21149999999999997          3.6651784895728025E-004
  0.21234999999999998          3.5341579777010810E-004
  0.21320000000000000          3.3667823281451038E-004
  0.21404999999999996          3.1611225950769963E-004
  0.21489999999999998          2.9153469992012233E-004
  0.21575000000000000          2.6278286952000703E-004
  0.21659999999999996          2.2972716919055029E-004
  0.21744999999999998          1.9227138583054963E-004
  0.21829999999999999          1.5035197641886233E-004
  0.21915000000000001          1.0393994717700113E-004
  0.21999999999999997          5.3045382921432983E-005
  0.22084999999999999         -2.2727894169242733E-006
  0.22170000000000001         -6.1913338693780882E-005
  0.22254999999999997         -1.2572204882141500E-004
  0.22339999999999999         -1.9348500219002610E-004
  0.22425000000000000         -2.6493866655068416E-004
  0.22509999999999997         -3.3975458996229912E-004
  0.22594999999999998         -4.1756391292059781E-004
  0.22680000000000000         -4.9795859121086570E-004
  0.22764999999999996         -5.8046484711171491E-004
  0.22849999999999998         -6.6456260232822229E-004
  0.22935000000000000         -7.4968844524370246E-004
  0.23019999999999996         -8.3522519402252676E-004
  0.23104999999999998         -9.2050951129415580E-004
  0.23190000000000000         -1.0048439238483147E-003
  0.23275000000000001         -1.0874930401064433E-003
  0.23359999999999997         -1.1676990882777901E-003
  0.23444999999999999         -1.2446786801829030E-003
  0.23530000000000001         -1.3176358729590080E-003
  0.23614999999999997         -1.3857734122924325E-003
  0.23699999999999999         -1.4483014708796128E-003
  0.23785000000000001         -1.5044500234368966E-003
  0.23869999999999997         -1.5534757379374383E-003
  0.23954999999999999         -1.5946578654780789E-003
  0.24040000000000000         -1.6273234955691640E-003
  0.24124999999999996         -1.6508620198445719E-003
  0.24209999999999998         -1.6647072064787619E-003
  0.24295000000000000         -1.6683436759929418E-003
  0.24379999999999996         -1.6613350919250252E-003
  0.24464999999999998         -1.6433414997147984E-003
  0.24550000000000000         -1.6141029752784369E-003
  0.24634999999999996         -1.5734572415904617E-003
  0.24719999999999998         -1.5213265194510006E-003
  0.24804999999999999         -1.4577648920812299E-003
  0.24890000000000001         -1.3829228321803459E-003
  0.24974999999999997         -1.2970519373411164E-003
  0.25059999999999999         -1.2005266181874454E-003
  0.25145000000000001         -1.0938187933907727E-003
  0.25229999999999997         -9.7750343440865988E-004
  0.25314999999999999         -8.5225330024764530E-004
  0.25400000000000000         -7.1884532270297878E-004
  0.25484999999999997         -5.7813695182610582E-004
  0.25569999999999998         -4.3107186524183965E-004
  0.25655000000000000         -2.7868269101886023E-004
  0.25739999999999996         -1.2206434802510956E-004
  0.25824999999999998          3.7626876355951100E-005
  0.25910000000000000          1.9919210177592823E-004
  0.25994999999999996          3.6141462432538724E-004
  0.26079999999999998          5.2305084550269981E-004
  0.26164999999999999          6.8284984912233789E-004
  0.26249999999999996          8.3957413178339642E-004
  0.26334999999999997          9.9201183382298538E-004
  0.26419999999999999          1.1389533355582822E-003
  0.26505000000000001          1.2792374618017040E-003
  0.26589999999999997          1.4117777139943772E-003
  0.26674999999999999          1.5355327106690436E-003
  0.26760000000000000          1.6495219952975895E-003
  0.26844999999999997          1.7528553273123714E-003
  0.26929999999999998          1.8447818109557385E-003
  0.27015000000000000          1.9246441651524981E-003
  0.27099999999999996          1.9918878336654686E-003
  0.27184999999999998          2.0460881729936109E-003
  0.27270000000000000          2.0869281733098804E-003
  0.27354999999999996          2.1142329575808143E-003
  0.27439999999999998          2.1279352061497336E-003
  0.27524999999999999          2.1280942918842942E-003
  0.27609999999999996          2.1148964466857394E-003
  0.27694999999999997          2.0886341340872897E-003
  0.27779999999999999          2.0497150809127645E-003
  0.27865000000000001          1.9986592088149600E-003
  0.27949999999999997          1.9360793565879528E-003
  0.28034999999999999          1.8626524043223809E-003
  0.28120000000000001          1.7791704623311242E-003
  0.28204999999999997          1.6864999958589890E-003
  0.28289999999999998          1.5855617663028071E-003
  0.28375000000000000          1.4773436819749319E-003
  0.28459999999999996          1.3628935057560577E-003
  0.28544999999999998          1.2432697755589699E-003
  0.28630000000000000          1.1195182934110384E-003
  0.28714999999999996          9.9270331408350069E-004
  0.28799999999999998          8.6388563581538548E-004
  0.28885000000000000          7.3410633374437751E-004
  0.28969999999999996          6.0438655287408771E-004
  0.29054999999999997          4.7569787886641147E-004
  0.29139999999999999          3.4898060464386008E-004
  0.29224999999999995          2.2512347288752437E-004
  0.29309999999999997          1.0494239866380397E-004
  0.29394999999999999         -1.0793012133212420E-005
  0.29480000000000001         -1.2138402304461628E-004
  0.29564999999999997         -2.2620953871088661E-004
  0.29649999999999999         -3.2473041815080604E-004
  0.29735000000000000         -4.1649384274133238E-004
  0.29819999999999997         -5.0112400394754307E-004
  0.29904999999999998         -5.7833614041743738E-004
  0.29990000000000000         -6.4792799837567127E-004
  0.30074999999999996         -7.0977318900051144E-004
  0.30159999999999998         -7.6381775773598905E-004
  0.30245000000000000         -8.1008044916172281E-004
  0.30329999999999996         -8.4864710602923802E-004
  0.30414999999999998         -8.7966800536539845E-004
  0.30499999999999999         -9.0335478947994711E-004
  0.30584999999999996         -9.1998402786761489E-004
  0.30669999999999997         -9.2987418817149035E-004
  0.30754999999999999         -9.3337239838987038E-004
  0.30840000000000001         -9.3086973178673220E-004
  0.30924999999999997         -9.2277960820517457E-004
  0.31009999999999999         -9.0953122006940648E-004
  0.31095000000000000         -8.9157272267365050E-004
  0.31179999999999997         -8.6935740694333002E-004
  0.31264999999999998         -8.4334762049295307E-004
  0.31350000000000000         -8.1400569051748837E-004
  0.31434999999999996         -7.8179261580637129E-004
  0.31519999999999998         -7.4716549653976844E-004
  0.31605000000000000         -7.1057179377285659E-004
  0.31689999999999996         -6.7244503159239854E-004
  0.31774999999999998         -6.3320067385323200E-004
  0.31859999999999999         -5.9322358485554370E-004
  0.31944999999999996         -5.5287348090697673E-004
  0.32029999999999997         -5.1248034086694236E-004
  0.32114999999999999         -4.7234199389229841E-004
  0.32199999999999995         -4.3271704379164582E-004
  0.32284999999999997         -3.9383634447301375E-004
  0.32369999999999999         -3.5590936732444301E-004
  0.32455000000000001         -3.1911544449996887E-004
  0.32539999999999997         -2.8361666366298762E-004
  0.32624999999999998         -2.4955991141764096E-004
  0.32710000000000000         -2.1706715692113582E-004
  0.32794999999999996         -1.8624289438762059E-004
  0.32879999999999998         -1.5717109084571268E-004
  0.32965000000000000         -1.2990742321784016E-004
  0.33049999999999996         -1.0448635841428308E-004
  0.33134999999999998         -8.0917703916340511E-005
  0.33220000000000000         -5.9192362328687593E-005
  0.33304999999999996         -3.9288637232121468E-005
  0.33389999999999997         -2.1173003977008029E-005
  0.33474999999999999         -4.8053492830934613E-006
  0.33559999999999995          9.8592124099212915E-006
  0.33644999999999997          2.2873601193088896E-005
  0.33729999999999999          3.4291043316164668E-005
  0.33815000000000001          4.4171347713453219E-005
  0.33899999999999997          5.2585190854281976E-005
  0.33984999999999999          5.9606180318741809E-005
  0.34070000000000000          6.5310997878949850E-005
  0.34154999999999996          6.9780461375650846E-005
  0.34239999999999998          7.3099059666257232E-005