 -0.12000000000000000          0.0000000000000000     
 -0.11914999999999999          0.0000000000000000     
 -0.11830000000000000          0.0000000000000000     
 -0.11745000000000000          0.0000000000000000     
 -0.11660000000000000          0.0000000000000000     
 -0.11574999999999999          0.0000000000000000     
 -0.11490000000000000         -2.1759907989856508E-026
 -0.11405000000000000         -2.6137877491883530E-025
 -0.11320000000000000         -1.5828195150300967E-024
 -0.11234999999999999         -6.3682850142120621E-024
 -0.11150000000000000         -1.8782881191347980E-023
 -0.11065000000000000         -4.1785669400630093E-023
 -0.10979999999999999         -6.7127289901683500E-023
 -0.10894999999999999         -5.7234121479493346E-023
 -0.10810000000000000          7.2402729156147874E-023
 -0.10725000000000000          4.4522656335687589E-022
 -0.10639999999999999          1.1500063633232087E-021
 -0.10554999999999999          2.0663006520041743E-021
 -0.10470000000000000          2.5996639818330790E-021
 -0.10385000000000000          1.4353073120348362E-021
 -0.10299999999999999         -3.4510894029447733E-021
 -0.10214999999999999         -1.4189885757734554E-020
 -0.10130000000000000         -3.1526155498168018E-020
 -0.10045000000000000         -5.2429378113212011E-020
  -9.9599999999999994E-002    -6.7363640580818704E-020
  -9.8750000000000004E-002    -5.8543021666360457E-020
  -9.7900000000000001E-002    -1.1830238626562795E-021
  -9.7049999999999997E-002     1.3006485034954368E-019
  -9.6199999999999994E-002     3.4810760431175783E-019
  -9.5349999999999990E-002     6.3453130590678250E-019
  -9.4500000000000001E-002     9.1883207373943049E-019
  -9.3649999999999997E-002     1.0635851856870949E-018
  -9.2799999999999994E-002     8.6656012056637897E-019
  -9.1950000000000004E-002     9.1683787321493701E-020
  -9.1100000000000000E-002    -1.4622680862613966E-018
  -9.0249999999999997E-002    -3.8544244344679207E-018
  -8.9399999999999993E-002    -6.8683487405653672E-018
  -8.8549999999999990E-002    -9.8815238217418500E-018
  -8.7700000000000000E-002    -1.1784506796833820E-017
  -8.6849999999999997E-002    -1.1009830173851510E-017
  -8.5999999999999993E-002    -5.7339742548487500E-018
  -8.5150000000000003E-002     5.6980947880383409E-018
  -8.4300000000000000E-002     2.4113411711973100E-017
  -8.3449999999999996E-002     4.8668201118677673E-017
  -8.2600000000000007E-002     7.5963202402333851E-017
  -8.1749999999999989E-002     9.9363352770910133E-017
  -8.0900000000000000E-002     1.0886547874235612E-016
  -8.0049999999999996E-002     9.1911415092368909E-017
  -7.9199999999999993E-002     3.5508235002959295E-017
  -7.8350000000000003E-002    -7.0156317940254483E-017
  -7.7499999999999999E-002    -2.2675851237844401E-016
  -7.6649999999999996E-002    -4.2220789801672253E-016
  -7.5800000000000006E-002    -6.2561933209384335E-016
  -7.4949999999999989E-002    -7.8474383885882524E-016
  -7.4099999999999999E-002    -8.2805850091062194E-016
  -7.3249999999999996E-002    -6.7357369211505653E-016
  -7.2399999999999992E-002    -2.4558548786064072E-016
  -7.1550000000000002E-002     5.0105449318859038E-016
  -7.0699999999999999E-002     1.5519593164438610E-015
  -6.9849999999999995E-002     2.8050830310213584E-015
  -6.9000000000000006E-002     4.0515384735946528E-015
  -6.8149999999999988E-002     4.9748771666228642E-015
  -6.7299999999999999E-002     5.1778322556894293E-015
  -6.6449999999999995E-002     4.2423086327239994E-015
  -6.5599999999999992E-002     1.8223311060243773E-015
  -6.4750000000000002E-002    -2.2388766849908204E-015
  -6.3899999999999998E-002    -7.7861520019641999E-015
  -6.3049999999999995E-002    -1.4251236624060435E-014
  -6.2199999999999998E-002    -2.0605736136056302E-014
  -6.1350000000000002E-002    -2.5400095991437482E-014
  -6.0499999999999998E-002    -2.6912218681858304E-014
  -5.9650000000000002E-002    -2.3412834933265049E-014
  -5.8799999999999998E-002    -1.3531330614822381E-014
  -5.7950000000000002E-002     3.3212313600107028E-015
  -5.7099999999999998E-002     2.6541153841563112E-014
  -5.6249999999999994E-002     5.4021214642430262E-014
  -5.5400000000000005E-002     8.2033870866709728E-014
  -5.4550000000000001E-002     1.0539219551762716E-013
  -5.3699999999999998E-002     1.1794209965702529E-013
  -5.2849999999999994E-002     1.1339226882603903E-013
  -5.2000000000000005E-002     8.6427910120742345E-014
  -5.1150000000000001E-002     3.3989220077306467E-014
  -5.0299999999999997E-002    -4.3465422348782436E-014
  -4.9449999999999994E-002    -1.4093537318398940E-013
  -4.8600000000000004E-002    -2.4833547302234287E-013
  -4.7750000000000001E-002    -3.5066079012642021E-013
  -4.6899999999999997E-002    -4.2902616499919308E-013
  -4.6049999999999994E-002    -4.6265099630055520E-013
  -4.5200000000000004E-002    -4.3172373998943887E-013
  -4.4350000000000001E-002    -3.2092307654169863E-013
  -4.3499999999999997E-002    -1.2320462831977601E-013
  -4.2649999999999993E-002     1.5668536316675277E-013
  -4.1800000000000004E-002     4.9961152219035524E-013
  -4.0950000000000000E-002     8.7103493062896426E-013
  -4.0099999999999997E-002     1.2221691274124162E-012
  -3.9249999999999993E-002     1.4937035578526804E-012
  -3.8400000000000004E-002     1.6221674487306177E-012
  -3.7550000000000000E-002     1.5485867637669036E-012
  -3.6699999999999997E-002     1.2286314042129136E-012
  -3.5850000000000007E-002     6.4299219521965006E-013
  -3.5000000000000003E-002    -1.9359734566611359E-013
  -3.4150000000000000E-002    -1.2264363832335770E-012
  -3.3299999999999996E-002    -2.3596280524120043E-012
  -3.2450000000000007E-002    -3.4607373449545659E-012
  -3.1600000000000003E-002    -4.3717895994614433E-012
  -3.0750000000000000E-002    -4.9261567425461711E-012
  -2.9899999999999996E-002    -4.9698797777844799E-012
  -2.9050000000000006E-002    -4.3850278353787243E-012
  -2.8200000000000003E-002    -3.1120617700411037E-012
  -2.7349999999999999E-002    -1.1679123789264440E-012
  -2.6499999999999996E-002     1.3433028767905001E-012
  -2.5650000000000006E-002     4.2292577322559362E-012
  -2.4800000000000003E-002     7.2192826332599322E-012
  -2.3949999999999999E-002     9.9849588251638945E-012
  -2.3099999999999996E-002     1.2169897059746623E-011
  -2.2250000000000006E-002     1.3425974955716083E-011
  -2.1400000000000002E-002     1.3452464266509129E-011
  -2.0549999999999999E-002     1.2034095214434494E-011
  -1.9699999999999995E-002     9.0742334361436069E-012
  -1.8850000000000006E-002     4.6197290756684641E-012
  -1.8000000000000002E-002    -1.1252649802322450E-012
  -1.7149999999999999E-002    -7.7984985814857922E-012
  -1.6299999999999995E-002    -1.4893042447108412E-011
  -1.5450000000000005E-002    -2.1785308073782716E-011
  -1.4600000000000002E-002    -2.7777207461629030E-011
  -1.3749999999999998E-002    -3.2151069545314130E-011
  -1.2899999999999995E-002    -3.4234500560165535E-011
  -1.2050000000000005E-002    -3.3470896830138173E-011
  -1.1200000000000002E-002    -2.9489710401309951E-011
  -1.0349999999999998E-002    -2.2168974588175901E-011
  -9.5000000000000084E-003    -1.1681716737398365E-011
  -8.6500000000000049E-003     1.4817206055573958E-012
  -7.8000000000000014E-003     1.6522117031925668E-011
  -6.9499999999999978E-003     3.2373976924456363E-011
  -6.1000000000000082E-003     4.7781322033820717E-011
  -5.2500000000000047E-003     6.1400653241253815E-011
  -4.4000000000000011E-003     7.1920480364329479E-011
  -3.5499999999999976E-003     7.8183017213387613E-011
  -2.7000000000000079E-003     7.9292722603982829E-011
  -1.8500000000000044E-003     7.4697631410460611E-011
  -1.0000000000000009E-003     6.4233755701255208E-011
  -1.4999999999999736E-004     4.8129169292023706E-011
   6.9999999999999230E-004     2.6971630183614744E-011
   1.5499999999999958E-003     1.6497628711098424E-012
   2.3999999999999994E-003    -2.6718055573726897E-011
   3.2500000000000029E-003    -5.6851635503111214E-011
   4.0999999999999925E-003    -8.7362306935526767E-011
   4.9499999999999961E-003    -1.1678478945601353E-010
   5.7999999999999996E-003    -1.4358979226150116E-010
   6.6499999999999893E-003    -1.6618686149765741E-010
   7.5000000000000067E-003    -1.8293097177768360E-010
   8.3499999999999963E-003    -1.9214925586295400E-010
   9.1999999999999860E-003    -1.9220010442513374E-010
   1.0050000000000003E-002    -1.8157052338448337E-010
   1.0899999999999993E-002    -1.5900784127115838E-010
   1.1750000000000010E-002    -1.2367206766577279E-010
   1.2600000000000000E-002    -7.5290682224872435E-011
   1.3449999999999990E-002    -1.4293135588261038E-011
   1.4300000000000007E-002     5.8093298986094914E-011
   1.5149999999999997E-002     1.3979725266234700E-010
   1.5999999999999986E-002     2.2790951234122138E-010
   1.6850000000000004E-002     3.1873471673757622E-010
   1.7699999999999994E-002     4.0787432714918480E-010
   1.8549999999999983E-002     4.9033111081330919E-010
   1.9400000000000001E-002     5.6062762172370243E-010
   2.0249999999999990E-002     6.1294292468225414E-010
   2.1100000000000008E-002     6.4128115146245412E-010
   2.1949999999999997E-002     6.3969650339208105E-010
   2.2799999999999987E-002     6.0259248433398549E-010
   2.3650000000000004E-002     5.2511387369028529E-010
   2.4499999999999994E-002     4.0362679939385693E-010
   2.5349999999999984E-002     2.3625561870804945E-010
   2.6200000000000001E-002     2.3428933381979820E-011
   2.7049999999999991E-002    -2.3163338519258258E-010
   2.7900000000000008E-002    -5.2256899366319585E-010
   2.8749999999999998E-002    -8.3972502811474572E-010
   2.9599999999999987E-002    -1.1702502064708073E-009
   3.0450000000000005E-002    -1.4984392033413698E-009
   3.1299999999999994E-002    -1.8062985862504275E-009
   3.2149999999999984E-002    -2.0742691775752087E-009
   3.3000000000000002E-002    -2.2820400123304850E-009
   3.3849999999999991E-002    -2.4093870562447657E-009
   3.4700000000000009E-002    -2.4369864200693170E-009
   3.5549999999999998E-002    -2.3471921405116018E-009
   3.6399999999999988E-002    -2.1248219769891327E-009
   3.7250000000000005E-002    -1.7580122548670378E-009
   3.8099999999999995E-002    -1.2392024749489265E-009
   3.8949999999999985E-002    -5.6629499578313711E-010
   3.9800000000000002E-002     2.5601857913813859E-010
   4.0649999999999992E-002     1.2148464801579409E-009
   4.1500000000000009E-002     2.2877682433434403E-009
   4.2349999999999999E-002     3.4418424498171514E-009
   4.3199999999999988E-002     4.6331957947584017E-009
   4.4050000000000006E-002     5.8074317147727135E-009
   4.4899999999999995E-002     6.9010701661993646E-009
   4.5749999999999985E-002     7.8440743024521632E-009
   4.6600000000000003E-002     8.5633899090387470E-009
   4.7449999999999992E-002     8.9872962885284076E-009
   4.8299999999999982E-002     9.0502122619244908E-009
   4.9149999999999999E-002     8.6975605330228865E-009
   4.9999999999999989E-002     7.8902586151758587E-009
   5.0850000000000006E-002     6.6085045771552045E-009
   5.1699999999999996E-002     4.8544919408933755E-009
   5.2549999999999986E-002     2.6540299118975701E-009
   5.3400000000000003E-002     5.7143287730859579E-011
   5.4249999999999993E-002    -2.8625455873611878E-009
   5.5099999999999982E-002    -6.0091632004277948E-009
   5.5950000000000000E-002    -9.2664538784307254E-009
   5.6799999999999989E-002    -1.2500188234191238E-008
   5.7650000000000007E-002    -1.5560640353054248E-008
   5.8499999999999996E-002    -1.8285174725848371E-008
   5.9349999999999986E-002    -2.0501148579712115E-008
   6.0200000000000004E-002    -2.2028513861392206E-008
   6.1049999999999993E-002    -2.2682179224937545E-008
   6.1899999999999983E-002    -2.2274546656304130E-008
   6.2750000000000000E-002    -2.0617339918459733E-008
   6.3599999999999990E-002    -1.7522116384404635E-008
   6.4450000000000007E-002    -1.2801160899363762E-008
   6.5299999999999997E-002    -6.2665723019425444E-009
   6.6149999999999987E-002     2.2726172197001205E-009
   6.7000000000000004E-002     1.3013966186108487E-008
   6.7849999999999994E-002     2.6165935096156080E-008
   6.8699999999999983E-002     4.1956269833339778E-008
   6.9550000000000001E-002     6.0639753924412990E-008
   7.0399999999999990E-002     8.2504826099625779E-008
   7.1249999999999980E-002     1.0788570906943420E-007
   7.2099999999999997E-002     1.3717507236432971E-007
   7.2949999999999987E-002     1.7083739799628994E-007
   7.3800000000000004E-002     2.0942481880767248E-007
   7.4649999999999994E-002     2.5359160378924045E-007
   7.5499999999999984E-002     3.0411371679173543E-007
   7.6350000000000001E-002     3.6191014125128939E-007
   7.7199999999999991E-002     4.2806715519106877E-007
   7.8049999999999981E-002     5.0385712489968183E-007
   7.8899999999999998E-002     5.9077294800562900E-007
   7.9749999999999988E-002     6.9056063391685983E-007
   8.0600000000000005E-002     8.0524635905521942E-007
   8.1449999999999995E-002     9.3718890830821761E-007
   8.2299999999999984E-002     1.0891213184342966E-006
   8.3150000000000002E-002     1.2641945600421444E-006
   8.3999999999999991E-002     1.4660532739073100E-006
   8.4849999999999981E-002     1.6988994450291595E-006
   8.5699999999999998E-002     1.9675636649563459E-006
   8.6549999999999988E-002     2.2775843914242295E-006
   8.7400000000000005E-002     2.6353083231793921E-006
   8.8249999999999995E-002     3.0479784227624331E-006
   8.9099999999999985E-002     3.5238265817751705E-006
   8.9950000000000002E-002     4.0721474168128276E-006
   9.0799999999999992E-002     4.7034509039570103E-006
   9.1649999999999981E-002     5.4294920322312884E-006
   9.2499999999999999E-002     6.2634617700012691E-006
   9.3349999999999989E-002     7.2200847878995224E-006
   9.4200000000000006E-002     8.3157503882428868E-006
   9.5049999999999996E-002     9.5686844248257409E-006
   9.5899999999999985E-002     1.0999013663209874E-005
   9.6750000000000003E-002     1.2629081254373324E-005
   9.7599999999999992E-002     1.4483547326270884E-005
   9.8449999999999982E-002     1.6589409070326535E-005
   9.9299999999999999E-002     1.8976383626919825E-005
  0.10014999999999999          2.1676823545427559E-005
  0.10099999999999998          2.4725819124281768E-005
  0.10185000000000000          2.8161678549114809E-005
  0.10269999999999999          3.2025807111122354E-005
  0.10355000000000000          3.6362988555943961E-005
  0.10439999999999999          4.1221439174034003E-005
  0.10524999999999998          4.6652928665869790E-005
  0.10610000000000000          5.2712467968957807E-005
  0.10694999999999999          5.9458627112352199E-005
  0.10779999999999998          6.6953534763262285E-005
  0.10865000000000000          7.5262437397944780E-005
  0.10949999999999999          8.4454000809707852E-005
  0.11035000000000000          9.4599282824237669E-005
  0.11119999999999999          1.0577147144325060E-004
  0.11204999999999998          1.1804598076484065E-004
  0.11290000000000000          1.3149945619915450E-004
  0.11374999999999999          1.4620858017584313E-004
  0.11459999999999998          1.6225009626238897E-004
  0.11545000000000000          1.7969892332983365E-004
  0.11629999999999999          1.9862743180736400E-004
  0.11715000000000000          2.1910414410948836E-004
  0.11799999999999999          2.4119058667858143E-004
  0.11884999999999998          2.6494196568583000E-004
  0.11970000000000000          2.9040347493486146E-004
  0.12054999999999999          3.1761059886442492E-004
  0.12139999999999998          3.4658466087840543E-004
  0.12225000000000000          3.7733338445944528E-004
  0.12309999999999999          4.0984818485396719E-004
  0.12395000000000000          4.4409722104424808E-004
  0.12479999999999999          4.8002997888669900E-004
  0.12564999999999998          5.1757219185305471E-004
  0.12650000000000000          5.5662057814649798E-004
  0.12734999999999999          5.9704129288298737E-004
  0.12819999999999998          6.3867300573115099E-004
  0.12905000000000000          6.8132201663518785E-004
  0.12989999999999999          7.2475575165622391E-004
  0.13074999999999998          7.6870067988072614E-004
  0.13159999999999999          8.1284383180195343E-004
  0.13245000000000001          8.5683657258565742E-004
  0.13329999999999997          9.0029122087270305E-004
  0.13414999999999999          9.4277456748922961E-004
  0.13500000000000001          9.8380582830541029E-004
  0.13584999999999997          1.0228668257449575E-003
  0.13669999999999999          1.0594065339791150E-003
  0.13755000000000001          1.0928300973024659E-003
  0.13839999999999997          1.1225073025524952E-003
  0.13924999999999998          1.1477858113300259E-003
  0.14010000000000000          1.1679734512662892E-003
  0.14094999999999996          1.1823479009398907E-003
  0.14179999999999998          1.1901701768345044E-003
  0.14265000000000000          1.1906824963642294E-003
  0.14350000000000002          1.1831237235217732E-003
  0.14434999999999998          1.1667576194619722E-003
  0.14520000000000000          1.1408525262077245E-003
  0.14605000000000001          1.1046950466284365E-003
  0.14689999999999998          1.0576154453185976E-003
  0.14774999999999999          9.9898958554692566E-004
  0.14860000000000001          9.2822232112855715E-004
  0.14944999999999997          8.4477795250609451E-004
  0.15029999999999999          7.4821789168835924E-004
  0.15115000000000001          6.3819781788912108E-004
  0.15199999999999997          5.1444770123456295E-004
  0.15284999999999999          3.7683335385172313E-004
  0.15370000000000000          2.2538311862019614E-004
  0.15454999999999997          6.0234947199856899E-005
  0.15539999999999998         -1.1835664822718505E-004
  0.15625000000000000         -3.0998546141270712E-004
  0.15709999999999996         -5.1409978957452432E-004
  0.15794999999999998         -7.2998651011172387E-004
  0.15880000000000000         -9.5678463818284210E-004
  0.15965000000000001         -1.1934518891357094E-003
  0.16049999999999998         -1.4387656062650449E-003
  0.16134999999999999         -1.6913268803812227E-003
  0.16220000000000001         -1.9495348387475967E-003
  0.16304999999999997         -2.2116162428067535E-003
  0.16389999999999999         -2.4756870751354784E-003
  0.16475000000000001         -2.7397513002120136E-003
  0.16559999999999997         -3.0017159325998674E-003
  0.16644999999999999         -3.2593798869498015E-003
  0.16730000000000000         -3.5104235861646224E-003
  0.16814999999999997         -3.7525035474559598E-003
  0.16899999999999998         -3.9832121239552730E-003
  0.16985000000000000         -4.2001071088795840E-003
  0.17069999999999996         -4.4007399402152120E-003
  0.17154999999999998         -4.5826580385282742E-003
  0.17240000000000000         -4.7434843552257647E-003
  0.17325000000000002         -4.8808988029905714E-003
  0.17409999999999998         -4.9926840274467435E-003
  0.17494999999999999         -5.0768214792790076E-003
  0.17580000000000001         -5.1314755854920055E-003
  0.17664999999999997         -5.1550063469242569E-003
  0.17749999999999999         -5.1460209268253676E-003
  0.17835000000000001         -5.1033483454180351E-003
  0.17919999999999997         -5.0260504974719775E-003
  0.18004999999999999         -4.9134979008168059E-003
  0.18090000000000001         -4.7653677261156671E-003
  0.18174999999999997         -4.5816342474410132E-003
  0.18259999999999998         -4.3626281068998643E-003
  0.18345000000000000         -4.1089916006026642E-003
  0.18429999999999996         -3.8217351978081029E-003
  0.18514999999999998         -3.5021996797953703E-003
  0.18600000000000000         -3.1520231202715465E-003
  0.18684999999999996         -2.7732053279883734E-003
  0.18769999999999998         -2.3680921953259798E-003
  0.18855000000000000         -1.9392829176678658E-003
  0.18940000000000001         -1.4896687083296584E-003
  0.19024999999999997         -1.0223943775382674E-003
  0.19109999999999999         -5.4080064324302929E-004
  0.19195000000000001         -4.8438132853956609E-005
  0.19279999999999997          4.5102592902173007E-004
  0.19364999999999999          9.5379913531222060E-004
  0.19450000000000001          1.4559923937563556E-003
  0.19534999999999997          1.9537042820372179E-003
  0.19619999999999999          2.4430001492476957E-003
  0.19705000000000000          2.9199857627125337E-003
  0.19789999999999996          3.3808891358867166E-003
  0.19874999999999998          3.8221118793283250E-003
  0.19960000000000000          4.2401722564267171E-003
  0.20044999999999996          4.6317119777021173E-003
  0.20129999999999998          4.9936196333262919E-003
  0.20215000000000000          5.3230966589302986E-003
  0.20300000000000001          5.6177045164517228E-003
  0.20384999999999998          5.8753092453460373E-003
  0.20469999999999999          6.0941419116203946E-003
  0.20555000000000001          6.2727530124985012E-003
  0.20639999999999997          6.4099900214540859E-003
  0.20724999999999999          6.5051159420797533E-003
  0.20810000000000001          6.5578004842653248E-003
  0.20894999999999997          6.5680876959272258E-003
  0.20979999999999999          6.5364668632289513E-003
  0.21065000000000000          6.4638120213744779E-003
  0.21149999999999997          6.3513727061897049E-003
  0.21234999999999998          6.2007507787289334E-003
  0.21320000000000000          6.0138886680772760E-003
  0.21404999999999996          5.7929966207556846E-003
  0.21489999999999998          5.5404830002169850E-003
  0.21575000000000000          5.2589645595709292E-003
  0.21659999999999996          4.9512499891288114E-003
  0.21744999999999998          4.6203254371390348E-003
  0.21829999999999999          4.2693538508363979E-003
  0.21915000000000001          3.9016369633164960E-003
  0.21999999999999997          3.5205110819114538E-003
  0.22084999999999999          3.1293059012971053E-003
  0.22170000000000001          2.7314191779171867E-003
  0.22254999999999997          2.3302285123917021E-003
  0.22339999999999999          1.9289556877427547E-003
  0.22425000000000000          1.5306870144445837E-003
  0.22509999999999997          1.1384118454025108E-003
  0.22594999999999998          7.5493891594745691E-004
  0.22680000000000000          3.8289168526831931E-004
  0.22764999999999996          2.4667252889145307E-005
  0.22849999999999998         -3.1756951147596420E-004
  0.22935000000000000         -6.4192801250002960E-004
  0.23019999999999996         -9.4680202923117245E-004
  0.23104999999999998         -1.2307501688481400E-003
  0.23190000000000000         -1.4925959451987320E-003
  0.23275000000000001         -1.7314695956295763E-003
  0.23359999999999997         -1.9467376551917728E-003
  0.23444999999999999         -2.1380078572638111E-003
  0.23530000000000001         -2.3051111011540906E-003
  0.23614999999999997         -2.4480907446430104E-003
  0.23699999999999999         -2.5672090391625178E-003
  0.23785000000000001         -2.6629283326932013E-003
  0.23869999999999997         -2.7359175090388224E-003
  0.23954999999999999         -2.7870099144372724E-003
  0.24040000000000000         -2.8172022733821203E-003
  0.24124999999999996         -2.8276380414246419E-003
  0.24209999999999998         -2.8195813305195751E-003
  0.24295000000000000         -2.7944058771336988E-003
  0.24379999999999996         -2.7535350103461524E-003
  0.24464999999999998         -2.6984449708259486E-003
  0.24550000000000000         -2.6306210572919070E-003
  0.24634999999999996         -2.5515466509234246E-003
  0.24719999999999998         -2.4626824263732500E-003
  0.24804999999999999         -2.3654488158730454E-003
  0.24890000000000001         -2.2612152779427283E-003
  0.24974999999999997         -2.1513088598932029E-003
  0.25059999999999999         -2.0370035338431354E-003
  0.25145000000000001         -1.9195234548691972E-003
  0.25229999999999997         -1.8000431275604634E-003
  0.25314999999999999         -1.6796641919411062E-003
  0.25400000000000000         -1.5594161049713208E-003
  0.25484999999999997         -1.4402480144454360E-003
  0.25569999999999998         -1.3230143125923018E-003
  0.25655000000000000         -1.2084655207506359E-003
  0.25739999999999996         -1.0972378115796742E-003
  0.25824999999999998         -9.8987339344950437E-004
  0.25910000000000000         -8.8680314884337016E-004
  0.25994999999999996         -7.8835070459955768E-004
  0.26079999999999998         -6.9476438892294642E-004
  0.26164999999999999         -6.0621083516185746E-004
  0.26249999999999996         -5.2278939889382169E-004
  0.26334999999999997         -4.4455420714964618E-004
  0.26419999999999999         -3.7151972070969836E-004
  0.26505000000000001         -3.0366637855001096E-004
  0.26589999999999997         -2.4094998711352619E-004
  0.26674999999999999         -1.8328762370961073E-004
  0.26760000000000000         -1.3055853920375783E-004
  0.26844999999999997         -8.2625630418569577E-005
  0.26929999999999998         -3.9307453178559276E-005
  0.27015000000000000         -3.8253057294316238E-007
  0.27099999999999996          3.4398037545437399E-005
  0.27184999999999998          6.5298028697971202E-005
  0.27270000000000000          9.2590777787942782E-005
  0.27354999999999996          1.1654962758510180E-004
  0.27439999999999998          1.3743860254274241E-004
  0.27524999999999999          1.5550601666296563E-004
  0.27609999999999996          1.7098045796196180E-004
  0.27694999999999997          1.8407483690286450E-004
  0.27779999999999999          1.9498641280126937E-004
  0.27865000000000001          2.0389030810857422E-004
  0.27949999999999997          2.1095028168307737E-004
  0.28034999999999999          2.1632232642191588E-004
  0.28120000000000001          2.2015147756214177E-004
  0.28204999999999997          2.2256910496005989E-004
  0.28289999999999998          2.2369317613553873E-004
  0.28375000000000000          2.2363743757339771E-004
  0.28459999999999996          2.2250765024018986E-004
  0.28544999999999998          2.2040756116129380E-004
  0.28630000000000000          2.1744095072840654E-004
  0.28714999999999996          2.1371108258404236E-004
  0.28799999999999998          2.0931832351643261E-004
  0.28885000000000000          2.0435736482641545E-004
  0.28969999999999996          1.9891625877258186E-004
  0.29054999999999997          1.9306134424179914E-004
  0.29139999999999999          1.8683989633733384E-004
  0.29224999999999995          1.8028898635037206E-004
  0.29309999999999997          1.7342752335258011E-004
  0.29394999999999999          1.6626308064481032E-004
  0.29480000000000001          1.5880127038437469E-004
  0.29564999999999997          1.5105465643335285E-004
  0.29649999999999999          1.4304967696472811E-004
  0.29735000000000000          1.3483167049883459E-004
  0.29819999999999997          1.2646884757505574E-004
  0.29904999999999998          1.1803644344684963E-004
  0.29990000000000000          1.0961148923257049E-004
  0.30074999999999996          1.0126956538532067E-004
  0.30159999999999998          9.3068895959898474E-005
  0.30245000000000000          8.5045834734073377E-005
  0.30329999999999996          7.7216784176754850E-005
  0.30414999999999998          6.9580378141666818E-005
  0.30499999999999999          6.2128757403649183E-005
  0.30584999999999996          5.4858688089355428E-005
  0.30669999999999997          4.7778017412008415E-005
  0.30754999999999999          4.0915333333449151E-005
  0.30840000000000001          3.4323464173212294E-005
  0.30924999999999997          2.8072031293316976E-005
  0.31009999999999999          2.2240210872141665E-005
  0.31095000000000000          1.6904621829732548E-005
  0.31179999999999997          1.2127607551490143E-005
  0.31264999999999998          7.9507309069412569E-006
  0.31350000000000000          4.3923149795251906E-006
  0.31434999999999996          1.4501658582602396E-006
  0.31519999999999998         -8.9227294159494822E-007
  0.31605000000000000         -2.6546700148186294E-006
  0.31689999999999996         -3.8505019219002676E-006
  0.31774999999999998         -4.4824577516086063E-006
  0.31859999999999999         -4.5431689934931905E-006
  0.31944999999999996         -4.0202614400027361E-006
  0.32029999999999997         -2.9028597621478082E-006
  0.32114999999999999         -1.1919876260176932E-006
  0.32199999999999995          1.0926535502771653E-006
  0.32284999999999997          3.9086798585167637E-006
  0.32369999999999999          7.1911290066140185E-006
  0.32455000000000001          1.0860895606850903E-005
  0.32539999999999997          1.4832877701360752E-005
  0.32624999999999998          1.9023884128320696E-005
  0.32710000000000000          2.3360978849138429E-005
  0.32794999999999996          2.7785590276679998E-005
  0.32879999999999998          3.2249557697376516E-005
  0.32965000000000000          3.6706332795450550E-005
  0.33049999999999996          4.1103691268149767E-005
  0.33134999999999998          4.5376834541003408E-005
  0.33220000000000000          4.9445174746016822E-005
  0.33304999999999996          5.3212852491074977E-005
  0.33389999999999997          5.6577187883402030E-005
  0.33474999999999999          5.9438894364647821E-005
  0.33559999999999995          6.1714865407119717E-005
  0.33644999999999997          6.3349986533311307E-005
  0.33729999999999999          6.4318405929490084E-005
  0.33815000000000001          6.4621138059212313E-005
  0.33899999999999997          6.4279960598990501E-005
  0.33984999999999999          6.3324481008234591E-005
  0.34070000000000000          6.1780279135101773E-005
  0.34154999999999996          5.9661764591968294E-005
  0.34239999999999998          5.6968277088247272E-005