 -0.12000000000000000          0.0000000000000000
 -0.11914999999999999          0.0000000000000000
 -0.11830000000000000          0.0000000000000000
 -0.11745000000000000          0.0000000000000000
 -0.11660000000000000          0.0000000000000000
 -0.11574999999999999          0.0000000000000000
 -0.11490000000000000          0.0000000000000000
 -0.11405000000000000          0.0000000000000000
 -0.11320000000000000          0.0000000000000000
 -0.11234999999999999          0.0000000000000000
 -0.11150000000000000          0.0000000000000000
 -0.11065000000000000          0.0000000000000000
 -0.10979999999999999          0.0000000000000000
 -0.10894999999999999          0.0000000000000000
 -0.10810000000000000          0.0000000000000000
 -0.10725000000000000          0.0000000000000000
 -0.10639999999999999          0.0000000000000000
 -0.10554999999999999         -6.6726140436009738E-040
 -0.10470000000000000         -2.9021298486301827E-039
 -0.10385000000000000         -1.1523666146708547E-038
 -0.10299999999999999         -3.6704990839251417E-038
 -0.10214999999999999         -1.0347007091889987E-037
 -0.10130000000000000         -2.5870050941690178E-037
 -0.10045000000000000         -5.7279704320660284E-037
  -9.9599999999999994E-002    -1.1118834450029615E-036
  -9.8750000000000004E-002    -1.8402967127657221E-036
  -9.7900000000000001E-002    -2.4010195398055356E-036
  -9.7049999999999997E-002    -1.7448645844831706E-036
  -9.6199999999999994E-002     2.3185618336128101E-036
  -9.5349999999999990E-002     1.3350352025185042E-035
  -9.4500000000000001E-002     3.5649615150527839E-035
  -9.3649999999999997E-002     7.1768818286343451E-035
  -9.2799999999999994E-002     1.1714430280850148E-034
  -9.1950000000000004E-002     1.5156907186240624E-034
  -9.1100000000000000E-002     1.2935685538889030E-034
  -9.0249999999999997E-002    -2.6225665706915216E-035
  -8.9399999999999993E-002    -4.1399953404238188E-034
  -8.8549999999999990E-002    -1.1176327672631379E-033
  -8.7700000000000000E-002    -2.1279993725672541E-033
  -8.6849999999999997E-002    -3.2247209226461882E-033
  -8.5999999999999993E-002    -3.8421620817213942E-033
  -8.5150000000000003E-002    -2.9841497275465536E-033
  -8.4300000000000000E-002     7.0577015416319961E-034
  -8.3449999999999996E-002     8.5870156019609491E-033
  -8.2600000000000007E-002     2.1270995086212780E-032
  -8.1749999999999989E-002     3.7478010709585038E-032
  -8.0900000000000000E-002     5.2713947052348828E-032
  -8.0049999999999996E-002     5.8272245335089414E-032
  -7.9199999999999993E-002     4.1365496453084206E-032
  -7.8350000000000003E-002    -1.2647147876276700E-032
  -7.7499999999999999E-002    -1.1513421645208837E-031
  -7.6649999999999996E-002    -2.6603673425163173E-031
  -7.5800000000000006E-002    -4.4380844796464736E-031
  -7.4949999999999989E-002    -5.9629320011068193E-031
  -7.4099999999999999E-002    -6.3715372364288611E-031
  -7.3249999999999996E-002    -4.5358290896942692E-031
  -7.2399999999999992E-002     6.9400937168277952E-032
  -7.1550000000000002E-002     1.0055421748540278E-030
  -7.0699999999999999E-002     2.3279434976829889E-030
  -6.9849999999999995E-002     3.8447621848428592E-030
  -6.9000000000000006E-002     5.1501085214518504E-030
  -6.8149999999999988E-002     5.6176576066684290E-030
  -6.7299999999999999E-002     4.4667257302346696E-030
  -6.6449999999999995E-002     9.2438075240868021E-031
  -6.5599999999999992E-002    -5.5105955057818938E-030
  -6.4750000000000002E-002    -1.4724865248509964E-029
  -6.3899999999999998E-002    -2.5630407761363900E-029
  -6.3049999999999995E-002    -3.5888710410887527E-029
  -6.2199999999999998E-002    -4.1853552598693009E-029
  -6.1350000000000002E-002    -3.8876198637269027E-029
  -6.0499999999999998E-002    -2.2092848077244644E-029
  -5.9650000000000002E-002     1.2260172479300235E-029
  -5.8799999999999998E-002     6.5084222291661951E-029
  -5.7950000000000002E-002     1.3245977564764026E-028
  -5.7099999999999998E-002     2.0394195847403286E-028
  -5.6249999999999994E-002     2.6173751686671847E-028
  -5.5400000000000005E-002     2.8148104244764851E-028
  -5.4550000000000001E-002     2.3528554172354434E-028
  -5.3699999999999998E-002     9.7456905125695303E-029
  -5.2849999999999994E-002    -1.4728665136279175E-028
  -5.2000000000000005E-002    -4.9402488796651642E-028
  -5.1150000000000001E-002    -9.0814034862140124E-028
  -5.0299999999999997E-002    -1.3188843472682010E-027
  -4.9449999999999994E-002    -1.6192376794833783E-027
  -4.8600000000000004E-002    -1.6751901401330067E-027
  -4.7750000000000001E-002    -1.3464024810533634E-027
  -4.6899999999999997E-002    -5.1801679931720927E-028
  -4.6049999999999994E-002     8.5960741344296025E-028
  -4.5200000000000004E-002     2.7299901478619199E-027
  -4.4350000000000001E-002     4.8977732462888970E-027
  -4.3499999999999997E-002     7.0152031336734032E-027
  -4.2649999999999993E-002     8.5971896604467262E-027
  -4.1800000000000004E-002     9.0705390338663750E-027
  -4.0950000000000000E-002     7.8568634195044132E-027
  -4.0099999999999997E-002     4.4800086322587687E-027
  -3.9249999999999993E-002    -1.3159160797477154E-027
  -3.8400000000000004E-002    -9.4557038381166911E-027
  -3.7550000000000000E-002    -1.9445054639038330E-026
  -3.6699999999999997E-002    -3.0314380914194972E-026
  -3.5850000000000007E-002    -4.0593210523951382E-026
  -3.5000000000000003E-002    -4.8311910089846395E-026
  -3.4150000000000000E-002    -5.1028268855839284E-026
  -3.3299999999999996E-002    -4.5895027085022397E-026
  -3.2450000000000007E-002    -2.9820151821121625E-026
  -3.1600000000000003E-002     1.9450175437206127E-028
  -3.0750000000000000E-002     4.6415459605480167E-026
  -2.9899999999999996E-002     1.0934689608275202E-025
  -2.9050000000000006E-002     1.8625847381377851E-025
  -2.8200000000000003E-002     2.6940722409593368E-025
  -2.7349999999999999E-002     3.4429817594989500E-025
  -2.6499999999999996E-002     3.8863644124945855E-025
  -2.5650000000000006E-002     3.7282649279612022E-025
  -2.4800000000000003E-002     2.6302293935917931E-025
  -2.3949999999999999E-002     2.7531697728647510E-026
  -2.3099999999999996E-002    -3.5316647641532917E-025
  -2.2250000000000006E-002    -8.7343831896868572E-025
  -2.1400000000000002E-002    -1.4886130116318194E-024
  -2.0549999999999999E-002    -2.1035913542005694E-024
  -1.9699999999999995E-002    -2.5686259230862101E-024
  -1.8850000000000006E-002    -2.6874461174736381E-024
  -1.8000000000000002E-002    -2.2421169478322843E-024
  -1.7149999999999999E-002    -1.0368082046333351E-024
  -1.6299999999999995E-002     1.0413322471648416E-024
  -1.5450000000000005E-002     3.9516541989608761E-024
  -1.4600000000000002E-002     7.4329616456687142E-024
  -1.3749999999999998E-002     1.0958663997134312E-023
  -1.2899999999999995E-002     1.3735512249997058E-023
  -1.2050000000000005E-002     1.4766318832176102E-023
  -1.1200000000000002E-002     1.2989897188841951E-023
  -1.0349999999999998E-002     7.4991046038778575E-024
  -9.5000000000000084E-003    -2.1809692995757455E-024
  -8.6500000000000049E-003    -1.5793828810168622E-023
  -7.8000000000000014E-003    -3.2091985482965615E-023
  -6.9499999999999978E-003    -4.8692255882959097E-023
  -6.1000000000000082E-003    -6.2125737343984316E-023
  -5.2500000000000047E-003    -6.8148815807102688E-023
  -4.4000000000000011E-003    -6.2351651142611693E-023
  -3.5499999999999976E-003    -4.1044992591233480E-023
  -2.7000000000000079E-003    -2.3430133934735038E-024
  -1.8500000000000044E-003     5.2718989191140252E-023
  -1.0000000000000009E-003     1.1925811459163890E-022
  -1.4999999999999736E-004     1.8807942257081598E-022
   6.9999999999999230E-004     2.4593918446076095E-022
   1.5499999999999958E-003     2.7676351297383828E-022
   2.3999999999999994E-003     2.6390637740709614E-022
   3.2500000000000029E-003     1.9336602179570250E-022
   4.0999999999999925E-003     5.7622229904207966E-023
   4.9499999999999961E-003    -1.4045024881959876E-022
   5.7999999999999996E-003    -3.8439440420665134E-022
   6.6499999999999893E-003    -6.4261938856203961E-022
   7.5000000000000067E-003    -8.6936079963563580E-022
   8.3499999999999963E-003    -1.0088633785932436E-021
   9.1999999999999860E-003    -1.0030163980344279E-021
   1.0050000000000003E-002    -8.0210963072530865E-022
   1.0899999999999993E-002    -3.7753381482185508E-022
   1.1750000000000010E-002     2.6540263369702596E-022
   1.2600000000000000E-002     1.0771467223036349E-021
   1.3449999999999990E-002     1.9589434155268647E-021
   1.4300000000000007E-002     2.7659445411594226E-021
   1.5149999999999997E-002     3.3204492951187705E-021
   1.5999999999999986E-002     3.4357269149818376E-021
   1.6850000000000004E-002     2.9491501794327325E-021
   1.7699999999999994E-002     1.7610153809983509E-021
   1.8549999999999983E-002    -1.2699059296339005E-022
   1.9400000000000001E-002    -2.5809958587293156E-021
   2.0249999999999990E-002    -5.3204538278724075E-021
   2.1100000000000008E-002    -7.9272859014623232E-021
   2.1949999999999997E-002    -9.8837664373437657E-021
   2.2799999999999987E-002    -1.0640190956911931E-020
   2.3650000000000004E-002    -9.7079170380687309E-021
   2.4499999999999994E-002    -6.7670113618256869E-021
   2.5349999999999984E-002    -1.7722483404103072E-021
   2.6200000000000001E-002     4.9623337961978881E-021
   2.7049999999999991E-002     1.2722879211304780E-020
   2.7900000000000008E-002     2.0416491296731562E-020
   2.8749999999999998E-002     2.6667153220663018E-020
   2.9599999999999987E-002     2.9987051124389910E-020
   3.0450000000000005E-002     2.9012142027901269E-020
   3.1299999999999994E-002     2.2775311306867334E-020
   3.2149999999999984E-002     1.0977226881713680E-020
   3.3000000000000002E-002    -5.7941654338079297E-021
   3.3849999999999991E-002    -2.5944243326176999E-020
   3.4700000000000009E-002    -4.6900164551740369E-020
   3.5549999999999998E-002    -6.5315205288822033E-020
   3.6399999999999988E-002    -7.7453079449552912E-020
   3.7250000000000005E-002    -7.9728649557339103E-020
   3.8099999999999995E-002    -6.9350279859571842E-020
   3.8949999999999985E-002    -4.4971427775034206E-020
   3.9800000000000002E-002    -7.2507834210649596E-021
   4.0649999999999992E-002     4.0796908079630582E-020
   4.1500000000000009E-002     9.3762744238883634E-020
   4.2349999999999999E-002     1.4419242409494644E-019
   4.3199999999999988E-002     1.8334668570979251E-019
   4.4050000000000006E-002     2.0233358437385754E-019
   4.4899999999999995E-002     1.9351648676580233E-019
   4.5749999999999985E-002     1.5200850910930893E-019
   4.6600000000000003E-002     7.7051820980598979E-020
   4.7449999999999992E-002    -2.6988757551368352E-020
   4.8299999999999982E-002    -1.5022890725110645E-019
   4.9149999999999999E-002    -2.7766811525092648E-019
   4.9999999999999989E-002    -3.9048466647188107E-019
   5.0850000000000006E-002    -4.6818628861017273E-019
   5.1699999999999996E-002    -4.9145698794278669E-019
   5.2549999999999986E-002    -4.4536118402574134E-019
   5.3400000000000003E-002    -3.2251094465397229E-019
   5.4249999999999993E-002    -1.2565353460627367E-019
   5.5099999999999982E-002     1.3079809104469188E-019
   5.5950000000000000E-002     4.2073044304423122E-019
   5.6799999999999989E-002     7.0807711735640921E-019
   5.7650000000000007E-002     9.5034901703514254E-019
   5.8499999999999996E-002     1.1037848859805144E-018
   5.9349999999999986E-002     1.1295188770529696E-018
   6.0200000000000004E-002     1.0001037429065110E-018
   6.1049999999999993E-002     7.0542281297906184E-019
   6.1899999999999983E-002     2.5698520272480715E-019
   6.2750000000000000E-002    -3.1018694751627536E-019
   6.3599999999999990E-002    -9.3868170939694432E-019
   6.4450000000000007E-002    -1.5533114114425632E-018
   6.5299999999999997E-002    -2.0686950905649603E-018
   6.6149999999999987E-002    -2.3994124988808719E-018
   6.7000000000000004E-002    -2.4715217448361420E-018
   6.7849999999999994E-002    -2.2340073552747964E-018
   6.8699999999999983E-002    -1.6686444750415483E-018
   6.9550000000000001E-002    -7.9676439812838998E-019
   7.0399999999999990E-002     3.1824743955244180E-019
   7.1249999999999980E-002     1.5735915446300701E-018
   7.2099999999999997E-002     2.8349409922108431E-018
   7.2949999999999987E-002     3.9490700468194024E-018
   7.3800000000000004E-002     4.7600162512327919E-018
   7.4649999999999994E-002     5.1273454824946995E-018
   7.5499999999999984E-002     4.9444848217585422E-018
   7.6350000000000001E-002     4.1551944749792253E-018
   7.7199999999999991E-002     2.7651876053802033E-018
   7.8049999999999981E-002     8.4902533325210232E-019
   7.8899999999999998E-002    -1.4500904619483056E-018
   7.9749999999999988E-002    -3.9284723168715868E-018
   8.0600000000000005E-002    -6.3365701697583769E-018
   8.1449999999999995E-002    -8.4002269867052256E-018
   8.2299999999999984E-002    -9.8467170757888172E-018
   8.3150000000000002E-002    -1.0433142704296318E-017
   8.3999999999999991E-002    -9.9755547292566541E-018
   8.4849999999999981E-002    -8.3746715789318474E-018
   8.5699999999999998E-002    -5.6372225649275282E-018
   8.6549999999999988E-002    -1.8897074914415697E-018
   8.7400000000000005E-002     2.6207841159218952E-018
   8.8249999999999995E-002     7.5337758094774466E-018
   8.9099999999999985E-002     1.2395565994775664E-017
   8.9950000000000002E-002     1.6693120241476349E-017
   9.0799999999999992E-002     1.9896480932878538E-017
   9.1649999999999981E-002     2.1509369026718348E-017
   9.2499999999999999E-002     2.1123434899376856E-017
   9.3349999999999989E-002     1.8472725599210051E-017
   9.4200000000000006E-002     1.3480195107925972E-017
   9.5049999999999996E-002     6.2958346106017742E-018
   9.5899999999999985E-002    -2.6854260627306190E-018
   9.6750000000000003E-002    -1.2821182969926279E-017
   9.7599999999999992E-002    -2.3247163742923771E-017
   9.8449999999999982E-002    -3.2929350017659286E-017
   9.9299999999999999E-002    -4.0737617248545836E-017
  0.10014999999999999         -4.5542065703410673E-017
  0.10099999999999998         -4.6331983862390535E-017
  0.10185000000000000         -4.2336832547644824E-017
  0.10269999999999999         -3.3151920413288770E-017
  0.10355000000000000         -1.8847459574282105E-017
  0.10439999999999999         -4.8014162152443076E-020
  0.10524999999999998          2.2026907034585723E-017
  0.10610000000000000          4.5584568933496550E-017
  0.10694999999999999          6.8340409700116664E-017
  0.10779999999999998          8.7667832168384272E-017
  0.10865000000000000          1.0082029365017130E-016
  0.10949999999999999          1.0523274155888572E-016
  0.11035000000000000          9.8806509272213849E-017
  0.11119999999999999          8.0257159721209422E-017
  0.11204999999999998          4.9412624757208797E-017
  0.11290000000000000          7.4239918837269724E-018
  0.11374999999999999         -4.3092307768267588E-017
  0.11459999999999998         -9.8101501893731879E-017
  0.11545000000000000         -1.5232744103214750E-016
  0.11629999999999999         -1.9960892951916827E-016
  0.11715000000000000         -2.3346378595992042E-016
  0.11799999999999999         -2.4771987836674162E-016
  0.11884999999999998         -2.3723207322594465E-016
  0.11970000000000000         -1.9865933205473819E-016
  0.12054999999999999         -1.3114881403475373E-016
  0.12139999999999998         -3.6858336621243933E-017
  0.12225000000000000          7.8854099386707328E-017
  0.12309999999999999          2.0739639272591521E-016
  0.12395000000000000          3.3729877180663702E-016
  0.12479999999999999          4.5501064743766555E-016
  0.12564999999999998          5.4596803665613383E-016
  0.12650000000000000          5.9590599980828529E-016
  0.12734999999999999          5.9245847810039735E-016
  0.12819999999999998          5.2670329247334149E-016
  0.12905000000000000          3.9459690014231160E-016
  0.12989999999999999          1.9823992455132654E-016
  0.13074999999999998         -5.3313293690327870E-017
  0.13159999999999999         -3.4411530733021131E-016
  0.13245000000000001         -6.5136460282234509E-016
  0.13329999999999997         -9.4726040600872143E-016
  0.13414999999999999         -1.2004085283989512E-015
  0.13500000000000001         -1.3787618181041732E-015
  0.13584999999999997         -1.4524523816466617E-015
  0.13669999999999999         -1.3974344925841556E-015
  0.13755000000000001         -1.1984501485406645E-015
  0.13839999999999997         -8.5195423036649925E-016
  0.13924999999999998         -3.6828678826858610E-016
  0.14010000000000000          2.2740413693926362E-016
  0.14094999999999996          8.9543619390212661E-016
  0.14179999999999998          1.5837655527125046E-015
  0.14265000000000000          2.2300747438590850E-015
  0.14350000000000002          2.7679084714207984E-015
  0.14434999999999998          3.1321248974366951E-015
  0.14520000000000000          3.2646371783423365E-015
  0.14605000000000001          3.1215535237861550E-015
  0.14689999999999998          2.6785775086992251E-015
  0.14774999999999999          1.9369496644490107E-015
  0.14860000000000001          9.2485830846251810E-016
  0.14944999999999997         -3.0006833182783614E-016
  0.15029999999999999         -1.6545738927516159E-015
  0.15115000000000001         -3.0330830478562604E-015
  0.15199999999999997         -4.3153981212820846E-015
  0.15284999999999999         -5.3766931819955440E-015
  0.15370000000000000         -6.0978962319642532E-015
  0.15454999999999997         -6.3776520602286973E-015
  0.15539999999999998         -6.1430320421253455E-015
  0.15625000000000000         -5.3613714627942253E-015
  0.15709999999999996         -4.0434639596555412E-015
  0.15794999999999998         -2.2502002027844882E-015
  0.15880000000000000         -9.3810553976862136E-017
  0.15965000000000001          2.2709623976857753E-015
  0.16049999999999998          4.6536126264201482E-015
  0.16134999999999999          6.8470566021913644E-015
  0.16220000000000001          8.6388756552801305E-015
  0.16304999999999997          9.8293235649702618E-015
  0.16389999999999999          1.0259833450915667E-014
  0.16475000000000001          9.8241266413456622E-015
  0.16559999999999997          8.4857332311426589E-015
  0.16644999999999999          6.2899083806731807E-015
  0.16730000000000000          3.3632498252431068E-015
  0.16814999999999997         -8.5056325875672402E-017
  0.16899999999999998         -3.7729146762489395E-015
  0.16985000000000000         -7.3779321207547466E-015
  0.17069999999999996         -1.0542480127623842E-014
  0.17154999999999998         -1.2921619436261262E-014
  0.17240000000000000         -1.4207201628376724E-014
  0.17325000000000002         -1.4168333858002501E-014
  0.17409999999999998         -1.2664164188640398E-014
  0.17494999999999999         -9.7001877428037189E-015
  0.17580000000000001         -5.4049377348429372E-015
  0.17664999999999997         -6.5342607384033815E-017
  0.17749999999999999          5.8978221833964592E-015
  0.17835000000000001          1.1979618727679954E-014
  0.17919999999999997          1.7576544323294160E-014
  0.18004999999999999          2.2055536619225372E-014
  0.18090000000000001          2.4816499367493081E-014
  0.18174999999999997          2.5339177965546600E-014
  0.18259999999999998          2.3248162542662079E-014
  0.18345000000000000          1.8354442746377641E-014
  0.18429999999999996          1.0712667727337976E-014
  0.18514999999999998          6.5522716971997954E-016
  0.18600000000000000         -1.1296917148130211E-014
  0.18684999999999996         -2.4270681773337187E-014
  0.18769999999999998         -3.7282409105031246E-014
  0.18855000000000000         -4.9126494448854536E-014
  0.18940000000000001         -5.8527330249291221E-014
  0.19024999999999997         -6.4311726752339660E-014
  0.19109999999999999         -6.5324675252861440E-014
  0.19195000000000001         -6.0810798312894537E-014
  0.19279999999999997         -5.0295090273914933E-014
  0.19364999999999999         -3.3632542645941461E-014
  0.19450000000000001         -1.1262131915688050E-014
  0.19534999999999997          1.5917200291942044E-014
  0.19619999999999999          4.6574606712256542E-014
  0.19705000000000000          7.8940182909430906E-014
  0.19789999999999996          1.1089210255786999E-013
  0.19874999999999998          1.4021075728143778E-013
  0.19960000000000000          1.6443441610337450E-013
  0.20044999999999996          1.8136344629463467E-013
  0.20129999999999998          1.8931019183063244E-013
  0.20215000000000000          1.8688980829887944E-013
  0.20300000000000001          1.7338525054664887E-013
  0.20384999999999998          1.4901233901108745E-013
  0.20469999999999999          1.1487654757374925E-013
  0.20555000000000001          7.3323369423894170E-014
  0.20639999999999997          2.7312374194328476E-014
  0.20724999999999999         -1.8914362480312517E-014
  0.20810000000000001         -6.0763520919684293E-014
  0.20894999999999997         -9.2937623114307748E-014
  0.20979999999999999         -1.1005810863392196E-013
  0.21065000000000000         -1.0736985259805040E-013
  0.21149999999999997         -7.9402961753765492E-014
  0.21234999999999998         -2.4080225571060941E-014
  0.21320000000000000          6.0812148664700724E-014
  0.21404999999999996          1.7718939929191323E-013
  0.21489999999999998          3.2318138839862373E-013
  0.21575000000000000          4.9762937041726170E-013
  0.21659999999999996          6.9586972254936857E-013
  0.21744999999999998          9.1173005503791305E-013
  0.21829999999999999          1.1445014291754125E-012
  0.21915000000000001          1.3841683465222193E-012
  0.21999999999999997          1.6253248137676080E-012
  0.22084999999999999          1.8640058952255098E-012
  0.22170000000000001          2.0991628069627598E-012
  0.22254999999999997          2.3151489990247631E-012
  0.22339999999999999          2.5215651655746236E-012
  0.22425000000000000          2.7095241258427019E-012
  0.22509999999999997          2.8693918919340973E-012
  0.22594999999999998          3.0376208933668159E-012
  0.22680000000000000          3.2164712689811970E-012
  0.22764999999999996          3.4273713518475509E-012
  0.22849999999999998          3.6788970893662769E-012
  0.22935000000000000          4.0428754977786861E-012
  0.23019999999999996          4.5358967521530827E-012
  0.23104999999999998          5.1617930738853807E-012
  0.23190000000000000          5.9488810848133968E-012
  0.23275000000000001          6.9006223337833073E-012
  0.23359999999999997          8.0112597484726613E-012
  0.23444999999999999          9.3214392766168322E-012
  0.23530000000000001          1.0751518901365943E-011
  0.23614999999999997          1.2499409215087248E-011
  0.23699999999999999          1.4409006010457127E-011
  0.23785000000000001          1.6480856643448348E-011
  0.23869999999999997          1.8649192215379149E-011
  0.23954999999999999          2.1133260861375384E-011
  0.24040000000000000          2.3547029539187391E-011
  0.24124999999999996          2.6110783186096839E-011
  0.24209999999999998          2.8416286878153374E-011
  0.24295000000000000          3.0928041040187863E-011
  0.24379999999999996          3.3678595508401622E-011
  0.24464999999999998          3.6392035591140264E-011
  0.24550000000000000          3.9784373162167830E-011
  0.24634999999999996          4.2804945457592904E-011
  0.24719999999999998          4.5984813190957577E-011
  0.24804999999999999          4.9788987451292275E-011
  0.24890000000000001          5.4107356425402012E-011
  0.24974999999999997          5.9115858702342487E-011
  0.25059999999999999          6.4456632640470617E-011
  0.25145000000000001          6.9663398503559334E-011
  0.25229999999999997          7.5292882627765929E-011
  0.25314999999999999          8.1731858181717943E-011
  0.25400000000000000          8.7568413463054592E-011
  0.25484999999999997          9.2456864076055699E-011
  0.25569999999999998          9.7803000122798620E-011
  0.25655000000000000          1.0411911454725028E-010
  0.25739999999999996          1.0904140178698919E-010
  0.25824999999999998          1.1513161543989553E-010
  0.25910000000000000          1.2255624376198500E-010
  0.25994999999999996          1.3371075005434512E-010
  0.26079999999999998          1.3341210738077969E-010
  0.26164999999999999          1.3430296393061771E-010
  0.26249999999999996          1.2981041232604424E-010
  0.26334999999999997          1.2998107077428697E-010
  0.26419999999999999          1.2366360496382511E-010
  0.26505000000000001          1.1984259439858092E-010
  0.26589999999999997          1.1743748901059370E-010
  0.26674999999999999          1.1942379568162954E-010
  0.26760000000000000          1.2161215062389996E-010
  0.26844999999999997          1.2129457464468696E-010
  0.26929999999999998          1.2206170439565847E-010
  0.27015000000000000          1.0991079678267473E-010
  0.27099999999999996          9.4390346480930721E-011
  0.27184999999999998          7.2254268022132811E-011
  0.27270000000000000          4.8920729792156000E-011
  0.27354999999999996          4.8657213993347475E-011
  0.27439999999999998          4.5562076572518151E-011
  0.27524999999999999          3.8918090592646865E-011
  0.27609999999999996          3.6805865802770187E-011
  0.27694999999999997          1.0449420706970178E-011
  0.27779999999999999          4.8242284055336968E-012
  0.27865000000000001         -3.4284972776109975E-011
  0.27949999999999997         -1.0028210185674237E-010
  0.28034999999999999         -1.2817776738415594E-010
  0.28120000000000001         -1.5256172480247699E-010
  0.28204999999999997         -1.5941740389249261E-010
  0.28289999999999998         -1.7673930452700081E-010
  0.28375000000000000         -1.8016486893812416E-010
  0.28459999999999996         -2.1600381945201036E-010
  0.28544999999999998         -2.9546932343296403E-010
  0.28630000000000000         -3.4194869750022632E-010
  0.28714999999999996         -3.7374647585239514E-010
  0.28799999999999998         -4.2064844503150213E-010
  0.28885000000000000         -4.9521045354932337E-010
  0.28969999999999996         -5.6120299088467749E-010
  0.29054999999999997         -5.7021689036122411E-010
  0.29139999999999999         -6.9960488487466610E-010
  0.29224999999999995         -6.9311942185626245E-010
  0.29309999999999997         -7.0120479774449674E-010
  0.29394999999999999         -7.6873357072321236E-010
  0.29480000000000001         -8.1536335447057393E-010
  0.29564999999999997         -9.0735252391259142E-010
  0.29649999999999999         -8.8908731578677368E-010
  0.29735000000000000         -9.2024825414888469E-010
  0.29819999999999997         -8.9792309836979854E-010
  0.29904999999999998         -8.5097802609296748E-010
  0.29990000000000000         -8.0538000066967381E-010
  0.30074999999999996         -7.5187423539783971E-010
  0.30159999999999998         -7.0023493010194630E-010
  0.30245000000000000         -6.5397958093313008E-010
  0.30329999999999996         -5.5342532157899479E-010
  0.30414999999999998         -5.0639780024078478E-010
  0.30499999999999999         -5.1796239807665916E-010
  0.30584999999999996         -4.5983599261369352E-010
  0.30669999999999997         -3.4459175405021593E-010
  0.30754999999999999         -3.0075264199506740E-010
  0.30840000000000001         -3.0749912098765927E-010
  0.30924999999999997         -2.6463625131452903E-010
  0.31009999999999999         -1.2682920502943371E-010
  0.31095000000000000         -3.7824279556434963E-011
  0.31179999999999997          8.5969928333325119E-011
  0.31264999999999998          2.2294756767463324E-010
  0.31350000000000000          3.4263374022779416E-010
  0.31434999999999996          4.4957881344055879E-010
  0.31519999999999998          5.7893276416841506E-010
  0.31605000000000000          7.3352216599484495E-010
  0.31689999999999996          8.5621804873199040E-010
  0.31774999999999998          1.0015506925870575E-009
  0.31859999999999999          1.1498224546156819E-009
  0.31944999999999996          1.2856686660385128E-009
  0.32029999999999997          1.4049170795097602E-009
  0.32114999999999999          1.4987781106262296E-009
  0.32199999999999995          1.5593172482397666E-009
  0.32284999999999997          1.5820902106293035E-009
  0.32369999999999999          1.5600091234264663E-009
  0.32455000000000001          1.5157718427855418E-009
  0.32539999999999997          1.4592738173163557E-009
  0.32624999999999998          1.3699361951368012E-009
  0.32710000000000000          1.2910779152318277E-009
  0.32794999999999996          1.2040822666454110E-009
  0.32879999999999998          9.7280748541828284E-010
  0.32965000000000000          8.4364014851703167E-010
  0.33049999999999996          7.2251033278523773E-010
  0.33134999999999998          5.6460993237521240E-010
  0.33220000000000000          4.2400339185857949E-010
  0.33304999999999996          2.9541181408357636E-010
  0.33389999999999997          1.5132107687113733E-010
  0.33474999999999999          8.9721486723438534E-011
  0.33559999999999995         -1.5555549497158275E-011
  0.33644999999999997         -1.8829107327131278E-010
  0.33729999999999999         -3.2292059076646090E-010
  0.33815000000000001         -3.5852926445029912E-010
  0.33899999999999997         -5.6792649635151833E-010
  0.33984999999999999         -6.2705893157376539E-010
  0.34070000000000000         -5.9235250661785963E-010
  0.34154999999999996         -5.2620661809753776E-010
  0.34239999999999998         -5.7789452222048801E-010
  0.34325000000000000         -3.9564345049405053E-010
  0.34409999999999996         -2.7378866254918946E-010