 -0.12000000000000000          0.0000000000000000     
 -0.11914999999999999          0.0000000000000000     
 -0.11830000000000000          0.0000000000000000     
 -0.11745000000000000          0.0000000000000000     
 -0.11660000000000000          0.0000000000000000     
 -0.11574999999999999          2.3736874454692120E-021
 -0.11490000000000000          2.2194081538363869E-020
 -0.11405000000000000          1.0813840240320989E-019
 -0.11320000000000000          3.5934450524380334E-019
 -0.11234999999999999          8.9313807841169876E-019
 -0.11150000000000000          1.6966263065511383E-018
 -0.11065000000000000          2.3258422607954838E-018
 -0.10979999999999999          1.5454266441511775E-018
 -0.10894999999999999         -2.7683286527112683E-018
 -0.10810000000000000         -1.2902774914989778E-017
 -0.10725000000000000         -2.9185070819031186E-017
 -0.10639999999999999         -4.6365060796455557E-017
 -0.10554999999999999         -4.9596534900412143E-017
 -0.10470000000000000         -1.2853626666524575E-017
 -0.10385000000000000          9.5780369495244066E-017
 -0.10299999999999999          2.9735289812311863E-016
 -0.10214999999999999          5.7207541932320690E-016
 -0.10130000000000000          8.2131631677469444E-016
 -0.10045000000000000          8.3727276416651598E-016
  -9.9599999999999994E-002     3.0710207255436536E-016
  -9.8750000000000004E-002    -1.1158218837817407E-015
  -9.7900000000000001E-002    -3.6478180588298453E-015
  -9.7049999999999997E-002    -7.1187093519693985E-015
  -9.6199999999999994E-002    -1.0672291443000651E-014
  -9.5349999999999990E-002    -1.2534630533986585E-014
  -9.4500000000000001E-002    -1.0019682966995771E-014
  -9.3649999999999997E-002     3.3389198347282448E-017
  -9.2799999999999994E-002     2.0239688621746904E-014
  -9.1950000000000004E-002     5.1051029802653613E-014
  -9.1100000000000000E-002     8.8766072590254416E-014
  -9.0249999999999997E-002     1.2370166254313319E-013
  -8.9399999999999993E-002     1.3936197803556123E-013
  -8.8549999999999990E-002     1.1362271282663040E-013
  -8.7700000000000000E-002     2.2863281130557741E-014
  -8.6849999999999997E-002    -1.5048334072432657E-013
  -8.5999999999999993E-002    -4.0740242875159557E-013
  -8.5150000000000003E-002    -7.2052990446883104E-013
  -8.4300000000000000E-002    -1.0243054320541836E-012
  -8.3449999999999996E-002    -1.2114707318729733E-012
  -8.2600000000000007E-002    -1.1407915070923121E-012
  -8.1749999999999989E-002    -6.6014033222643183E-013
  -8.0900000000000000E-002     3.5336450418432291E-013
  -8.0049999999999996E-002     1.9386869363635681E-012
  -7.9199999999999993E-002     3.9898193193521809E-012
  -7.8350000000000003E-002     6.2025806304287431E-012
  -7.7499999999999999E-002     8.0485376778688488E-012
  -7.6649999999999996E-002     8.7975354411398733E-012
  -7.5800000000000006E-002     7.6073652454526095E-012
  -7.4949999999999989E-002     3.6900758765624133E-012
  -7.4099999999999999E-002    -3.4515119655240609E-012
  -7.3249999999999996E-002    -1.3745073370268291E-011
  -7.2399999999999992E-002    -2.6279572949908906E-011
  -7.1550000000000002E-002    -3.9118509404258186E-011
  -7.0699999999999999E-002    -4.9279875689486786E-011
  -6.9849999999999995E-002    -5.2962936844667636E-011
  -6.9000000000000006E-002    -4.6075628291065607E-011
  -6.8149999999999988E-002    -2.5066440525073674E-011
  -6.7299999999999999E-002     1.2006853311881131E-011
  -6.6449999999999995E-002     6.4321502555271189E-011
  -6.5599999999999992E-002     1.2727748627732234E-010
  -6.4750000000000002E-002     1.9191616536232827E-010
  -6.3899999999999998E-002     2.4506813077576891E-010
  -6.3049999999999995E-002     2.7047945958966290E-010
  -6.2199999999999998E-002     2.5103763078608730E-010
  -6.1350000000000002E-002     1.7202678926478858E-010
  -6.0499999999999998E-002     2.5090923664036566E-011
  -5.9650000000000002E-002    -1.8767090359881362E-010
  -5.8799999999999998E-002    -4.5027792929098876E-010
  -5.7950000000000002E-002    -7.3103465079023991E-010
  -5.7099999999999998E-002    -9.8318040180405324E-010
  -5.6249999999999994E-002    -1.1486993760907437E-009
  -5.5400000000000005E-002    -1.1655373513396964E-009
  -5.4550000000000001E-002    -9.7788727340386296E-010
  -5.3699999999999998E-002    -5.4850369218596603E-010
  -5.2849999999999994E-002     1.2866573304179133E-010
  -5.2000000000000005E-002     1.0177750758349233E-009
  -5.1150000000000001E-002     2.0348067372770508E-009
  -5.0299999999999997E-002     3.0480341443236393E-009
  -4.9449999999999994E-002     3.8869753761771793E-009
  -4.8600000000000004E-002     4.3603836712292841E-009
  -4.7750000000000001E-002     4.2825158058040572E-009
  -4.6899999999999997E-002     3.5051581068912079E-009
  -4.6049999999999994E-002     1.9514261082266091E-009
  -4.5200000000000004E-002    -3.5387533790678673E-010
  -4.4350000000000001E-002    -3.2630962777405094E-009
  -4.3499999999999997E-002    -6.4991898690979453E-009
  -4.2649999999999993E-002    -9.6679273377054310E-009
  -4.1800000000000004E-002    -1.2290769067502727E-008
  -4.0950000000000000E-002    -1.3857474884253430E-008
  -4.0099999999999997E-002    -1.3893986716746929E-008
  -3.9249999999999993E-002    -1.2038403572036386E-008
  -3.8400000000000004E-002    -8.1147954543812121E-009
  -3.7550000000000000E-002    -2.1938829683304923E-009
  -3.6699999999999997E-002     5.3706716130037492E-009
  -3.5850000000000007E-002     1.3939309254729521E-008
  -3.5000000000000003E-002     2.2622532231907178E-008
  -3.4150000000000000E-002     3.0356238231291419E-008
  -3.3299999999999996E-002     3.6011392024561451E-008
  -3.2450000000000007E-002     3.8527580662212910E-008
  -3.1600000000000003E-002     3.7054762605566929E-008
  -3.0750000000000000E-002     3.1085957486878992E-008
  -2.9899999999999996E-002     2.0561768277240195E-008
  -2.9050000000000006E-002     5.9308039831770843E-009
  -2.8200000000000003E-002    -1.1845309429726873E-008
  -2.7349999999999999E-002    -3.1347615361158388E-008
  -2.6499999999999996E-002    -5.0812308928516376E-008
  -2.5650000000000006E-002    -6.8289814625376996E-008
  -2.4800000000000003E-002    -8.1832786450585483E-008
  -2.3949999999999999E-002    -8.9690942186111251E-008
  -2.3099999999999996E-002    -9.0491306386620444E-008
  -2.2250000000000006E-002    -8.3381771492535737E-008
  -2.1400000000000002E-002    -6.8124380212902549E-008
  -2.0549999999999999E-002    -4.5128993731545545E-008
  -1.9699999999999995E-002    -1.5429131928255252E-008
  -1.8850000000000006E-002     1.9392737137030601E-008
  -1.8000000000000002E-002     5.7316088772688002E-008
  -1.7149999999999999E-002     9.6012769237413922E-008
  -1.6299999999999995E-002     1.3297976673454921E-007
  -1.5450000000000005E-002     1.6566238290833630E-007
  -1.4600000000000002E-002     1.9156042482914791E-007
  -1.3749999999999998E-002     2.0831752493954548E-007
  -1.2899999999999995E-002     2.1379964278795565E-007
  -1.2050000000000005E-002     2.0617471250666937E-007
  -1.1200000000000002E-002     1.8400352632563042E-007
  -1.0349999999999998E-002     1.4635300752766752E-007
  -9.5000000000000084E-003     9.2933794050771232E-008
  -8.6500000000000049E-003     2.4258923427083850E-008
  -7.8000000000000014E-003    -5.8190680213816102E-008
  -6.9499999999999978E-003    -1.5181708310051909E-007
  -6.1000000000000082E-003    -2.5279675722557200E-007
  -5.2500000000000047E-003    -3.5604610621513252E-007
  -4.4000000000000011E-003    -4.5528377288865081E-007
  -3.5499999999999976E-003    -5.4321283313366414E-007
  -2.7000000000000079E-003    -6.1183460309948896E-007
  -1.8500000000000044E-003    -6.5288385300266086E-007
  -1.0000000000000009E-003    -6.5838043413615449E-007
  -1.4999999999999736E-004    -6.2126271933024381E-007
   6.9999999999999230E-004    -5.3606704731127512E-007
   1.5499999999999958E-003    -3.9960819542106022E-007
   2.3999999999999994E-003    -2.1160247081973400E-007
   3.2500000000000029E-003     2.4807974491274958E-008
   4.0999999999999925E-003     3.0269516183227403E-007
   4.9499999999999961E-003     6.1119079428658939E-007
   5.7999999999999996E-003     9.3558156751162308E-007
   6.6499999999999893E-003     1.2576828453843471E-006
   7.5000000000000067E-003     1.5565124416785462E-006
   8.3499999999999963E-003     1.8092494650768032E-006
   9.1999999999999860E-003     1.9924704739935857E-006
   1.0050000000000003E-002     2.0835960339657736E-006
   1.0899999999999993E-002     2.0624804191287350E-006
   1.1750000000000010E-002     1.9130571091071121E-006
   1.2600000000000000E-002     1.6249031471225758E-006
   1.3449999999999990E-002     1.1946423176061627E-006
   1.4300000000000007E-002     6.2702032784973396E-007
   1.5149999999999997E-002    -6.4409808258559107E-008
   1.5999999999999986E-002    -8.5709459156355747E-007
   1.6850000000000004E-002    -1.7198492174760852E-006
   1.7699999999999994E-002    -2.6136917380218064E-006
   1.8549999999999983E-002    -3.4933109712749729E-006
   1.9400000000000001E-002    -4.3088586306145084E-006
   2.0249999999999990E-002    -5.0081720476302879E-006
   2.1100000000000008E-002    -5.5391848360802800E-006
   2.1949999999999997E-002    -5.8524554241314929E-006
   2.2799999999999987E-002    -5.9037733412415025E-006
   2.3650000000000004E-002    -5.6564847980630507E-006
   2.4499999999999994E-002    -5.0838700715084003E-006
   2.5349999999999984E-002    -4.1710409150295138E-006
   2.6200000000000001E-002    -2.9166742865258258E-006
   2.7049999999999991E-002    -1.3344643916610522E-006
   2.7900000000000008E-002     5.4605110052815957E-007
   2.8749999999999998E-002     2.6788883739942955E-006
   2.9599999999999987E-002     5.0014858366213234E-006
   3.0450000000000005E-002     7.4355709461324004E-006
   3.1299999999999994E-002     9.8884109172349862E-006
   3.2149999999999984E-002     1.2255342280061569E-005
   3.3000000000000002E-002     1.4423045136588295E-005
   3.3849999999999991E-002     1.6274274887967292E-005
   3.4700000000000009E-002     1.7693473357351751E-005
   3.5549999999999998E-002     1.8573969618293879E-005
   3.6399999999999988E-002     1.8825277722659841E-005
   3.7250000000000005E-002     1.8381648706194826E-005
   3.8099999999999995E-002     1.7210322918531846E-005
   3.8949999999999985E-002     1.5318823544934143E-005
   3.9800000000000002E-002     1.2761194047617705E-005
   4.0649999999999992E-002     9.6425544399429859E-006
   4.1500000000000009E-002     6.1212933777647405E-006
   4.2349999999999999E-002     2.4052728336756228E-006
   4.3199999999999988E-002    -1.2513201406055252E-006
   4.4050000000000006E-002    -4.5566244456088365E-006
   4.4899999999999995E-002    -7.1936796778487390E-006
   4.5749999999999985E-002    -8.8288079280854047E-006
   4.6600000000000003E-002    -9.1374948186368034E-006
   4.7449999999999992E-002    -7.8087845284335812E-006
   4.8299999999999982E-002    -4.5657974080739192E-006
   4.9149999999999999E-002     8.2024237640149000E-007
   4.9999999999999989E-002     8.5163927087197143E-006
   5.0850000000000006E-002     1.8633505596137144E-005
   5.1699999999999996E-002     3.1197287126002315E-005
   5.2549999999999986E-002     4.6165188842660147E-005
   5.3400000000000003E-002     6.3434238529255256E-005
   5.4249999999999993E-002     8.2815677230329025E-005
   5.5099999999999982E-002     1.0407247545969855E-004
   5.5950000000000000E-002     1.2691454339701971E-004
   5.6799999999999989E-002     1.5102241530455182E-004
   5.7650000000000007E-002     1.7603212358155564E-004
   5.8499999999999996E-002     2.0157604111642604E-004
   5.9349999999999986E-002     2.2731641933795594E-004
   6.0200000000000004E-002     2.5288316375448401E-004
   6.1049999999999993E-002     2.7795593490472111E-004
   6.1899999999999983E-002     3.0226276647561656E-004
   6.2750000000000000E-002     3.2556142006827588E-004
   6.3599999999999990E-002     3.4772384935905561E-004
   6.4450000000000007E-002     3.6859349702043085E-004
   6.5299999999999997E-002     3.8814061459032235E-004
   6.6149999999999987E-002     4.0636971207126172E-004
   6.7000000000000004E-002     4.2336640056376564E-004
   6.7849999999999994E-002     4.3918770617767228E-004
   6.8699999999999983E-002     4.5384902300736997E-004
   6.9550000000000001E-002     4.6746068179552851E-004
   7.0399999999999990E-002     4.7984316559516191E-004
   7.1249999999999980E-002     4.9085310178471702E-004
   7.2099999999999997E-002     4.9992992127139281E-004
   7.2949999999999987E-002     5.0640032064210700E-004
   7.3800000000000004E-002     5.0917761773207532E-004
   7.4649999999999994E-002     5.0664943148498258E-004
   7.5499999999999984E-002     4.9665483364064677E-004
   7.6350000000000001E-002     4.7644791988310530E-004
   7.7199999999999991E-002     4.4251356381202469E-004
   7.8049999999999981E-002     3.9055725365559320E-004
   7.8899999999999998E-002     3.1538829381151656E-004
   7.9749999999999988E-002     2.1037608462737864E-004
   8.0600000000000005E-002     6.8212314547210114E-005
   8.1449999999999995E-002    -1.1953548245130551E-004
   8.2299999999999984E-002    -3.6282052009336808E-004
   8.3150000000000002E-002    -6.7259715579719886E-004
   8.3999999999999991E-002    -1.0613665342932405E-003
   8.4849999999999981E-002    -1.5432929687048198E-003
   8.5699999999999998E-002    -2.1332290044460498E-003
   8.6549999999999988E-002    -2.8477423236081970E-003
   8.7400000000000005E-002    -3.7053131792197363E-003
   8.8249999999999995E-002    -4.7251501915236555E-003
   8.9099999999999985E-002    -5.9288692895715523E-003
   8.9950000000000002E-002    -7.3378284176701305E-003
   9.0799999999999992E-002    -8.9768729127175373E-003
   9.1649999999999981E-002    -1.0869771645758832E-002
   9.2499999999999999E-002    -1.3042778877989585E-002
   9.3349999999999989E-002    -1.5524504553257948E-002
   9.4200000000000006E-002    -1.8342651645204065E-002
   9.5049999999999996E-002    -2.1527476702412431E-002
   9.5899999999999985E-002    -2.5110155363934412E-002
   9.6750000000000003E-002    -2.9121440291098089E-002
   9.7599999999999992E-002    -3.3595658733601708E-002
   9.8449999999999982E-002    -3.8561461028650254E-002
   9.9299999999999999E-002    -4.4058091671259056E-002
  0.10014999999999999         -5.0113974431206035E-002
  0.10099999999999998         -5.6763391219341985E-002
  0.10185000000000000         -6.4039794266908479E-002
  0.10269999999999999         -7.1973898525496877E-002
  0.10355000000000000         -8.0593632887579814E-002
  0.10439999999999999         -8.9933870573092961E-002
  0.10524999999999998        -0.10001065260938635     
  0.10610000000000000        -0.11085601411151458     
  0.10694999999999999        -0.12248739297760752     
  0.10779999999999998        -0.13491442593482661     
  0.10865000000000000        -0.14814710401752629     
  0.10949999999999999        -0.16219448798580399     
  0.11035000000000000        -0.17704180955547744     
  0.11119999999999999        -0.19268667392838890     
  0.11204999999999998        -0.20909505889872915     
  0.11290000000000000        -0.22624820866399165     
  0.11374999999999999        -0.24409004145854696     
  0.11459999999999998        -0.26257570325921409     
  0.11545000000000000        -0.28161824603607366     
  0.11629999999999999        -0.30114566239662832     
  0.11715000000000000        -0.32106604048068976     
  0.11799999999999999        -0.34125404972998008     
  0.11884999999999998        -0.36155078318188427     
  0.11970000000000000        -0.38183292933321344     
  0.12054999999999999        -0.40193035670770572     
  0.12139999999999998        -0.42161730204764081     
  0.12225000000000000        -0.44071607109852229     
  0.12309999999999999        -0.45896178295905976     
  0.12395000000000000        -0.47610784947023488     
  0.12479999999999999        -0.49186769856772239     
  0.12564999999999998        -0.50594480756672566     
  0.12650000000000000        -0.51801838180428805     
  0.12734999999999999        -0.52771340527652977     
  0.12819999999999998        -0.53474576098015203     
  0.12905000000000000        -0.53867734689255631     
  0.12989999999999999        -0.53913784040473578     
  0.13074999999999998        -0.53571352157751928     
  0.13159999999999999        -0.52796033019223509     
  0.13245000000000001        -0.51551214440455828     
  0.13329999999999997        -0.49791432207773667     
  0.13414999999999999        -0.47472952249251765     
  0.13500000000000001        -0.44553374167969739     
  0.13584999999999997        -0.40994611638444733     
  0.13669999999999999        -0.36753357388400687     
  0.13755000000000001        -0.31788469938778441     
  0.13839999999999997        -0.26072833550409458     
  0.13924999999999998        -0.19582354472419983     
  0.14010000000000000        -0.12277103033351566     
  0.14094999999999996         -4.1398382782149135E-002
  0.14179999999999998          4.8434100993814511E-002
  0.14265000000000000         0.14678437250649556     
  0.14350000000000002         0.25369300499033409     
  0.14434999999999998         0.36902553237426999     
  0.14520000000000000         0.49265710214254155     
  0.14605000000000001         0.62422509164607509     
  0.14689999999999998         0.76334105402800767     
  0.14774999999999999         0.90953576416705073     
  0.14860000000000001          1.0621374273599122     
  0.14944999999999997          1.2204103540438180     
  0.15029999999999999          1.3834163904131662     
  0.15115000000000001          1.5501199947092390     
  0.15199999999999997          1.7194687819964551     
  0.15284999999999999          1.8899774824247775     
  0.15370000000000000          2.0602437598519439     
  0.15454999999999997          2.2287701480869657     
  0.15539999999999998          2.3938891580380410     
  0.15625000000000000          2.5538149397782419     
  0.15709999999999996          2.7067458434952414     
  0.15794999999999998          2.8505027768812976     
  0.15880000000000000          2.9833107316313114     
  0.15965000000000001          3.1030640101487172     
  0.16049999999999998          3.2077912061708549     
  0.16134999999999999          3.2951595120456858     
  0.16220000000000001          3.3633680680134894     
  0.16304999999999997          3.4103289356632231     
  0.16389999999999999          3.4341242827776881     
  0.16475000000000001          3.4330487503684406     
  0.16559999999999997          3.4054121602472804     
  0.16644999999999999          3.3496526845106036     
  0.16730000000000000          3.2645861504199960     
  0.16814999999999997          3.1491912246157874     
  0.16899999999999998          3.0026215565947414     
  0.16985000000000000          2.8246592462078635     
  0.17069999999999996          2.6148647797018256     
  0.17154999999999998          2.3735975162887542     
  0.17240000000000000          2.1013303528412521     
  0.17325000000000002          1.7988948425200100     
  0.17409999999999998          1.4673394482520479     
  0.17494999999999999          1.1086062715081049     
  0.17580000000000001         0.72435284585878357     
  0.17664999999999997         0.31690211884322128     
  0.17749999999999999        -0.11064717678541003     
  0.17835000000000001        -0.55556599203289236     
  0.17919999999999997         -1.0144353530907759     
  0.18004999999999999         -1.4834976617659497     
  0.18090000000000001         -1.9589018685028772     
  0.18174999999999997         -2.4364014287541291     
  0.18259999999999998         -2.9117874751331829     
  0.18345000000000000         -3.3804600821785984     
  0.18429999999999996         -3.8379408809898496     
  0.18514999999999998         -4.2796919364995123     
  0.18600000000000000         -4.7011178403168419     
  0.18684999999999996         -5.0976876517504550     
  0.18769999999999998         -5.4650895064887521     
  0.18855000000000000         -5.7992514089041407     
  0.18940000000000001         -6.0961351427862596     
  0.19024999999999997         -6.3522130758681747     
  0.19109999999999999         -6.5642927353863811     
  0.19195000000000001         -6.7293170240836950     
  0.19279999999999997         -6.8449447520221085     
  0.19364999999999999         -6.9091509146831456     
  0.19450000000000001         -6.9206400635707723     
  0.19534999999999997         -6.8783547583608318     
  0.19619999999999999         -6.7818869634065209     
  0.19705000000000000         -6.6317241039410710     
  0.19789999999999996         -6.4284866625751818     
  0.19874999999999998         -6.1738007127006114     
  0.19960000000000000         -5.8691774394013088     
  0.20044999999999996         -5.5174338641746239     
  0.20129999999999998         -5.1214509226515439     
  0.20215000000000000         -4.6848396950288631     
  0.20300000000000001         -4.2113975919773914     
  0.20384999999999998         -3.7053919615319799     
  0.20469999999999999         -3.1716647005296323     
  0.20555000000000001         -2.6150207044977485     
  0.20639999999999997         -2.0407966953772618     
  0.20724999999999999         -1.4543713922322521     
  0.20810000000000001        -0.86110591448560747     
  0.20894999999999997        -0.26642311931172635     
  0.20979999999999999         0.32429929461448825     
  0.21065000000000000         0.90537444555612101     
  0.21149999999999997          1.4718294834833363     
  0.21234999999999998          2.0184231226393541     
  0.21320000000000000          2.5405451798927561     
  0.21404999999999996          3.0338776187350858     
  0.21489999999999998          3.4941950518334233     
  0.21575000000000000          3.9178763457919317     
  0.21659999999999996          4.3017121285626896     
  0.21744999999999998          4.6431295457317834     
  0.21829999999999999          4.9400842660124979     
  0.21915000000000001          5.1907687596690835     
  0.21999999999999997          5.3941998014913359     
  0.22084999999999999          5.5497634505171405     
  0.22170000000000001          5.6573529443226001     
  0.22254999999999997          5.7175281764832313     
  0.22339999999999999          5.7310054208302716     
  0.22425000000000000          5.6993839566643310     
  0.22509999999999997          5.6242963222537092     
  0.22594999999999998          5.5078678752985546     
  0.22680000000000000          5.3528991256782170     
  0.22764999999999996          5.1621201617653902     
  0.22849999999999998          4.9388053611057892     
  0.22935000000000000          4.6863889734286914     
  0.23019999999999996          4.4083247288106051     
  0.23104999999999998          4.1083913391353093     
  0.23190000000000000          3.7903712062144166     
  0.23275000000000001          3.4580673543886959     
  0.23359999999999997          3.1153048401533354     
  0.23444999999999999          2.7658266856962239     
  0.23530000000000001          2.4131235158405442     
  0.23614999999999997          2.0607499597709520     
  0.23699999999999999          1.7119759560610337     
  0.23785000000000001          1.3698335727772086     
  0.23869999999999997          1.0371705059023082     
  0.23954999999999999         0.71648272500580479     
  0.24040000000000000         0.41009069887109195     
  0.24124999999999996         0.12000858644258816     
  0.24209999999999998        -0.15212297564551314     
  0.24295000000000000        -0.40482023914527532     
  0.24379999999999996        -0.63706053374662519     
  0.24464999999999998        -0.84795111450128213     
  0.24550000000000000         -1.0368875848405599     
  0.24634999999999996         -1.2036788636623679     
  0.24719999999999998         -1.3482482380115051     
  0.24804999999999999         -1.4709380521051481     
  0.24890000000000001         -1.5721820859086870     
  0.24974999999999997         -1.6527950806084020     
  0.25059999999999999         -1.7136069648740877     
  0.25145000000000001         -1.7557322514407590     
  0.25229999999999997         -1.7803394494402101     
  0.25314999999999999         -1.7887294383577634     
  0.25400000000000000         -1.7822928439986496     
  0.25484999999999997         -1.7624390128705718     
  0.25569999999999998         -1.7305035019145762     
  0.25655000000000000         -1.6880178775540555     
  0.25739999999999996         -1.6362953537723097     
  0.25824999999999998         -1.5767228911106503     
  0.25910000000000000         -1.5106760259892464     
  0.25994999999999996         -1.4394614423844017     
  0.26079999999999998         -1.3642883548780489     
  0.26164999999999999         -1.2863605314974027     
  0.26249999999999996         -1.2067372876543150     
  0.26334999999999997         -1.1264006168764418     
  0.26419999999999999         -1.0462074305484377     
  0.26505000000000001        -0.96686572854366126     
  0.26589999999999997        -0.88897176059735195     
  0.26674999999999999        -0.81311250274248792     
  0.26760000000000000        -0.73966358383637720     
  0.26844999999999997        -0.66894434349001619     
  0.26929999999999998        -0.60124943290941424     
  0.27015000000000000        -0.53677484020727029     
  0.27099999999999996        -0.47564102004950071     
  0.27184999999999998        -0.41794221577412527     
  0.27270000000000000        -0.36370908487751841     
  0.27354999999999996        -0.31297483977329943     
  0.27439999999999998        -0.26563251199040860     
  0.27524999999999999        -0.22165066671000622     
  0.27609999999999996        -0.18089379795485949     
  0.27694999999999997        -0.14323698515898720     
  0.27779999999999999        -0.10853850192260706     
  0.27865000000000001         -7.6691945957294561E-002
  0.27949999999999997         -4.7542469936290410E-002
  0.28034999999999999         -2.0987177112773980E-002
  0.28120000000000001          3.0670735496183595E-003
  0.28204999999999997          2.4731857880270519E-002
  0.28289999999999998          4.4083684987100830E-002
  0.28375000000000000          6.1182068010277604E-002
  0.28459999999999996          7.6128171768802932E-002
  0.28544999999999998          8.8977741023825663E-002
  0.28630000000000000          9.9809527858733482E-002
  0.28714999999999996         0.10870261279666860     
  0.28799999999999998         0.11569315172619399     
  0.28885000000000000         0.12087075432672006     
  0.28969999999999996         0.12430139505233356     
  0.29054999999999997         0.12608658341866197     
  0.29139999999999999         0.12633205343032455     
  0.29224999999999995         0.12515914665527128     
  0.29309999999999997         0.12270653128691317     
  0.29394999999999999         0.11912790489819375     
  0.29480000000000001         0.11459369801909669     
  0.29564999999999997         0.10925360987717631     
  0.29649999999999999         0.10327127901720334     
  0.29735000000000000          9.6790984876063579E-002
  0.29819999999999997          8.9949636591511117E-002
  0.29904999999999998          8.2894971497353809E-002
  0.29990000000000000          7.5755562358894468E-002
  0.30074999999999996          6.8657912424074374E-002
  0.30159999999999998          6.1741234126337419E-002
  0.30245000000000000          5.5123574180564461E-002
  0.30329999999999996          4.8943808648337417E-002
  0.30414999999999998          4.3329472969900112E-002
  0.30499999999999999          3.8356321806416876E-002
  0.30584999999999996          3.4097800766803105E-002
  0.30669999999999997          3.0596372931024823E-002
  0.30754999999999999          2.7823358104470453E-002
  0.30840000000000001          2.5744465936095390E-002
  0.30924999999999997          2.4279421297909831E-002
  0.31009999999999999          2.3329861988441031E-002
  0.31095000000000000          2.2801964336727543E-002
  0.31179999999999997          2.2588063999600130E-002
  0.31264999999999998          2.2599491758351659E-002
  0.31350000000000000          2.2773320453299009E-002
  0.31434999999999996          2.3039382228905642E-002
  0.31519999999999998          2.3356629458105072E-002
  0.31605000000000000          2.3679679777472484E-002
  0.31689999999999996          2.3966169682044805E-002
  0.31774999999999998          2.4165039991440262E-002
  0.31859999999999999          2.4224050921783050E-002
  0.31944999999999996          2.4090650757042115E-002
  0.32029999999999997          2.3711210611308070E-002
  0.32114999999999999          2.3036456090836641E-002
  0.32199999999999995          2.2030083101535841E-002
  0.32284999999999997          2.0679191964516577E-002
  0.32369999999999999          1.8987750030569031E-002
  0.32455000000000001          1.6982102625363593E-002
  0.32539999999999997          1.4696887930795072E-002
  0.32624999999999998          1.2182581492323180E-002
  0.32710000000000000          9.5081593527412758E-003
  0.32794999999999996          6.7572136048401760E-003
  0.32879999999999998          4.0180621162337962E-003
  0.32965000000000000          1.3891826246106020E-003
  0.33049999999999996         -1.0339163870823655E-003
  0.33134999999999998         -3.1447006684493552E-003
  0.33220000000000000         -4.8562086078051160E-003
  0.33304999999999996         -6.0905947928071927E-003
  0.33389999999999997         -6.7992572563549871E-003
  0.33474999999999999         -6.9585070625532708E-003
  0.33559999999999995         -6.5801194444040992E-003
  0.33644999999999997         -5.7065304444111412E-003
  0.33729999999999999         -4.4045421642086476E-003
  0.33815000000000001         -2.7514065339875066E-003
  0.33899999999999997         -8.3304875947840668E-004
  0.33984999999999999          1.2784334851491806E-003
  0.34070000000000000          3.5123924115271921E-003
  0.34154999999999996          5.8278399105082014E-003
  0.34239999999999998          8.1874853201129964E-003