 -0.12000000000000000          0.0000000000000000     
 -0.11914999999999999          0.0000000000000000     
 -0.11830000000000000          0.0000000000000000     
 -0.11745000000000000          0.0000000000000000     
 -0.11660000000000000          0.0000000000000000     
 -0.11574999999999999          0.0000000000000000     
 -0.11490000000000000          0.0000000000000000     
 -0.11405000000000000          0.0000000000000000     
 -0.11320000000000000          0.0000000000000000     
 -0.11234999999999999         -4.4752859578429087E-036
 -0.11150000000000000         -7.6192599355100540E-035
 -0.11065000000000000         -6.7220950587570359E-034
 -0.10979999999999999         -4.0817792891911666E-033
 -0.10894999999999999         -1.9114458375368176E-032
 -0.10810000000000000         -7.3317894287934321E-032
 -0.10725000000000000         -2.3880597244870282E-031
 -0.10639999999999999         -6.7554710660013426E-031
 -0.10554999999999999         -1.6823842690647281E-030
 -0.10470000000000000         -3.7113194034391932E-030
 -0.10385000000000000         -7.2382258555768433E-030
 -0.10299999999999999         -1.2302750512327178E-029
 -0.10214999999999999         -1.7475753917763479E-029
 -0.10130000000000000         -1.8079226982593387E-029
 -0.10045000000000000         -3.8163241892345714E-030
  -9.9599999999999994E-002     4.3280195660842229E-029
  -9.8750000000000004E-002     1.4844946701542999E-028
  -9.7900000000000001E-002     3.3773860891314718E-028
  -9.7049999999999997E-002     6.2079315931013871E-028
  -9.6199999999999994E-002     9.5883956077491225E-028
  -9.5349999999999990E-002     1.2178421796633376E-027
  -9.4500000000000001E-002     1.1160124298431496E-027
  -9.3649999999999997E-002     1.8977630569251746E-028
  -9.2799999999999994E-002    -2.1790057684683709E-027
  -9.1950000000000004E-002    -6.6156078388340130E-027
  -9.1100000000000000E-002    -1.3423566656910853E-026
  -9.0249999999999997E-002    -2.2040416805732765E-026
  -8.9399999999999993E-002    -3.0316851916572279E-026
  -8.8549999999999990E-002    -3.3785416628479242E-026
  -8.7700000000000000E-002    -2.5257049091206512E-026
  -8.6849999999999997E-002     4.7364048019000540E-027
  -8.5999999999999993E-002     6.6024183290296687E-026
  -8.5150000000000003E-002     1.6483836306878230E-025
  -8.4300000000000000E-002     2.9761635770744686E-025
  -8.3449999999999996E-002     4.4312659878880462E-025
  -8.2600000000000007E-002     5.5465155616344906E-025
  -8.1749999999999989E-002     5.5539591895240642E-025
  -8.0900000000000000E-002     3.4163246444551262E-025
  -8.0049999999999996E-002    -2.0123492482679997E-025
  -7.9199999999999993E-002    -1.1652684367513658E-024
  -7.8350000000000003E-002    -2.5677703482503741E-024
  -7.7499999999999999E-002    -4.2843629418214883E-024
  -7.6649999999999996E-002    -5.9797081808685173E-024
  -7.5800000000000006E-002    -7.0578344667646244E-024
  -7.4949999999999989E-002    -6.6630194132749172E-024
  -7.4099999999999999E-002    -3.7668088205933352E-024
  -7.3249999999999996E-002     2.6269210242222727E-024
  -7.2399999999999992E-002     1.3143298161949608E-023
  -7.1550000000000002E-002     2.7579981231095080E-023
  -7.0699999999999999E-002     4.4395030404262250E-023
  -6.9849999999999995E-002     6.0256858337314621E-023
  -6.9000000000000006E-002     6.9828517798172216E-023
  -6.8149999999999988E-002     6.5995155555273878E-023
  -6.7299999999999999E-002     4.0741244418219141E-023
  -6.6449999999999995E-002    -1.3176553706260705E-023
  -6.5599999999999992E-002    -9.9750763987432674E-023
  -6.4750000000000002E-002    -2.1664162830848851E-022
  -6.3899999999999998E-002    -3.5197002954296712E-022
  -6.3049999999999995E-002    -4.8175642628779740E-022
  -6.2199999999999998E-002    -5.6902913514610966E-022
  -6.1350000000000002E-002    -5.6574182497468221E-022
  -6.0499999999999998E-002    -4.1853444486956965E-022
  -5.9650000000000002E-002    -7.8952573695686699E-023
  -5.8799999999999998E-002     4.8203217693138060E-022
  -5.7950000000000002E-002     1.2564726365712766E-021
  -5.7099999999999998E-002     2.1814795908818713E-021
  -5.6249999999999994E-002     3.1248374345936026E-021
  -5.5400000000000005E-002     3.8792649557959809E-021
  -5.4550000000000001E-002     4.1708577808107770E-021
  -5.3699999999999998E-002     3.6866257239968806E-021
  -5.2849999999999994E-002     2.1241090724553485E-021
  -5.2000000000000005E-002    -7.3741916418405369E-022
  -5.1150000000000001E-002    -4.9495020545432232E-021
  -5.0299999999999997E-002    -1.0301932044731533E-020
  -4.9449999999999994E-002    -1.6242213285883180E-020
  -4.8600000000000004E-002    -2.1828945526339588E-020
  -4.7750000000000001E-002    -2.5743620284939752E-020
  -4.6899999999999997E-002    -2.6383778993291339E-020
  -4.6049999999999994E-002    -2.2053803933164428E-020
  -4.5200000000000004E-002    -1.1257282068353465E-020
  -4.4350000000000001E-002     6.9232368195335410E-021
  -4.3499999999999997E-002     3.2395687036425006E-020
  -4.2649999999999993E-002     6.3637726996972887E-020
  -4.1800000000000004E-002     9.7368602597736276E-020
  -4.0950000000000000E-002     1.2841108838545802E-019
  -4.0099999999999997E-002     1.4984457585155527E-019
  -3.9249999999999993E-002     1.5353593398527256E-019
  -3.8400000000000004E-002     1.3110050422738105E-019
  -3.7550000000000000E-002     7.5290178196968673E-020
  -3.6699999999999997E-002    -1.8271400692789272E-020
  -3.5850000000000007E-002    -1.4917358105052621E-019
  -3.5000000000000003E-002    -3.1038474928797892E-019
  -3.4150000000000000E-002    -4.8684043945861835E-019
  -3.3299999999999996E-002    -6.5484678610980236E-019
  -3.2450000000000007E-002    -7.8269993919032633E-019
  -3.1600000000000003E-002    -8.3286470363911933E-019
  -3.0750000000000000E-002    -7.6591988116556882E-019
  -2.9899999999999996E-002    -5.4627074291624435E-019
  -2.9050000000000006E-002    -1.4933974170574248E-019
  -2.8200000000000003E-002     4.3038540121250084E-019
  -2.7349999999999999E-002     1.1714226584267854E-018
  -2.6499999999999996E-002     2.0187725594112818E-018
  -2.5650000000000006E-002     2.8803159793939558E-018
  -2.4800000000000003E-002     3.6276978089684138E-018
  -2.3949999999999999E-002     4.1031084277940466E-018
  -2.3099999999999996E-002     4.1329249212255594E-018
  -2.2250000000000006E-002     3.5484652365564116E-018
  -2.1400000000000002E-002     2.2130949103283851E-018
  -2.0549999999999999E-002     5.3722003741099897E-020
  -1.9699999999999995E-002    -2.9065603691124532E-018
  -1.8850000000000006E-002    -6.5191560440060377E-018
  -1.8000000000000002E-002    -1.0489355149746627E-017
  -1.7149999999999999E-002    -1.4370236961492845E-017
  -1.6299999999999995E-002    -1.7576547568898831E-017
  -1.5450000000000005E-002    -1.9422795954120580E-017
  -1.4600000000000002E-002    -1.9187674136909530E-017
  -1.3749999999999998E-002    -1.6203643747430597E-017
  -1.2899999999999995E-002    -9.9667484856718883E-018
  -1.2050000000000005E-002    -2.5735393859486260E-019
  -1.1200000000000002E-002     1.2741672336600163E-017
  -1.0349999999999998E-002     2.8346275123506658E-017
  -9.5000000000000084E-003     4.5311062733910376E-017
  -8.6500000000000049E-003     6.1826670337869662E-017
  -7.8000000000000014E-003     7.5591181076675151E-017
  -6.9499999999999978E-003     8.3966317391949275E-017
  -6.1000000000000082E-003     8.4221268686245725E-017
  -5.2500000000000047E-003     7.3855761164911582E-017
  -4.4000000000000011E-003     5.0981866941870883E-017
  -3.5499999999999976E-003     1.4731330965963934E-017
  -2.7000000000000079E-003    -3.4356308929579869E-017
  -1.8500000000000044E-003    -9.4017915940910544E-017
  -1.0000000000000009E-003    -1.6007989591068797E-016
  -1.4999999999999736E-004    -2.2645446522582321E-016
   6.9999999999999230E-004    -2.8536333182802699E-016
   1.5499999999999958E-003    -3.2781594006604098E-016
   2.3999999999999994E-003    -3.4434487783396037E-016
   3.2500000000000029E-003    -3.2597231489490374E-016
   4.0999999999999925E-003    -2.6534855567910834E-016
   4.9499999999999961E-003    -1.5797260227164775E-016
   5.7999999999999996E-003    -3.3770140976803063E-018
   6.6499999999999893E-003     1.9385996676664600E-016
   7.5000000000000067E-003     4.2342038347650963E-016
   8.3499999999999963E-003     6.6900793616148249E-016
   9.1999999999999860E-003     9.0868260967984803E-016
   1.0050000000000003E-002     1.1158464023245282E-015
   1.0899999999999993E-002     1.2609084490417642E-015
   1.1750000000000010E-002     1.3135932157558074E-015
   1.2600000000000000E-002     1.2457910406711056E-015
   1.3449999999999990E-002     1.0347774037782654E-015
   1.4300000000000007E-002     6.6657006297040879E-016
   1.5149999999999997E-002     1.3913742818417068E-016
   1.5999999999999986E-002    -5.3485266970130888E-016
   1.6850000000000004E-002    -1.3260773558513426E-015
   1.7699999999999994E-002    -2.1877018454446439E-015
   1.8549999999999983E-002    -3.0558919398498862E-015
   1.9400000000000001E-002    -3.8519052171127746E-015
   2.0249999999999990E-002    -4.4858648111223383E-015
   2.1100000000000008E-002    -4.8622221826207876E-015
   2.1949999999999997E-002    -4.8867728332332922E-015
   2.2799999999999987E-002    -4.4749659948305931E-015
   2.3650000000000004E-002    -3.5610878874923572E-015
   2.4499999999999994E-002    -2.1077776133133351E-015
   2.5349999999999984E-002    -1.1519367834352128E-016
   2.6200000000000001E-002     2.3709370858379694E-015
   2.7049999999999991E-002     5.2532468450380165E-015
   2.7900000000000008E-002     8.3794736787422684E-015
   2.8749999999999998E-002     1.1542889101695465E-014
   2.9599999999999987E-002     1.4487098041708788E-014
   3.0450000000000005E-002     1.6915796036516799E-014
   3.1299999999999994E-002     1.8507731115442315E-014
   3.2149999999999984E-002     1.8936850862019605E-014
   3.3000000000000002E-002     1.7897157174496965E-014
   3.3849999999999991E-002     1.5131357655499636E-014
   3.4700000000000009E-002     1.0461897124771647E-014
   3.5549999999999998E-002     3.8224711504443556E-015
   3.6399999999999988E-002    -4.7122878514700434E-015
   3.7250000000000005E-002    -1.4901673912515660E-014
   3.8099999999999995E-002    -2.6321128712309963E-014
   3.8949999999999985E-002    -3.8354882128633843E-014
   3.9800000000000002E-002    -5.0201525634844358E-014
   4.0649999999999992E-002    -6.0895035269659822E-014
   4.1500000000000009E-002    -6.9342619494608050E-014
   4.2349999999999999E-002    -7.4380139872423453E-014
   4.3199999999999988E-002    -7.4844419305371760E-014
   4.4050000000000006E-002    -6.9660624245804228E-014
   4.4899999999999995E-002    -5.7941162711881280E-014
   4.5749999999999985E-002    -3.9091173484965618E-014
   4.6600000000000003E-002    -1.2914351187800502E-014
   4.7449999999999992E-002     2.0288677977294961E-014
   4.8299999999999982E-002     5.9637714406816093E-014
   4.9149999999999999E-002     1.0361516916668600E-013
   4.9999999999999989E-002     1.5004193613397621E-013
   5.0850000000000006E-002     1.9609496118007310E-013
   5.1699999999999996E-002     2.3837357490429582E-013
   5.2549999999999986E-002     2.7301901353624568E-013
   5.3400000000000003E-002     2.9588917055449520E-013
   5.4249999999999993E-002     3.0278732633231315E-013
   5.5099999999999982E-002     2.8973935670995061E-013
   5.5950000000000000E-002     2.5331034563418511E-013
   5.6799999999999989E-002     1.9094648113923168E-013
   5.7650000000000007E-002     1.0132542724682183E-013
   5.8499999999999996E-002    -1.5307297475659473E-014
   5.9349999999999986E-002    -1.5683962600570027E-013
   6.0200000000000004E-002    -3.1905789374775590E-013
   6.1049999999999993E-002    -4.9550357226584728E-013
   6.1899999999999983E-002    -6.7744623124943096E-013
   6.2750000000000000E-002    -8.5399682071074993E-013
   6.3599999999999990E-002    -1.0123802608431216E-012
   6.4450000000000007E-002    -1.1383782435264716E-012
   6.5299999999999997E-002    -1.2169474393720286E-012
   6.6149999999999987E-002    -1.2330057222379530E-012
   6.7000000000000004E-002    -1.1723691078127103E-012
   6.7849999999999994E-002    -1.0228110353756788E-012
   6.8699999999999983E-002    -7.7519841267819468E-013
   6.9550000000000001E-002    -4.2465507245941599E-013
   7.0399999999999990E-002     2.8317414462338497E-014
   7.1249999999999980E-002     5.7683081228463622E-013
   7.2099999999999997E-002     1.2067961327292722E-012
   7.2949999999999987E-002     1.8963838978239829E-012
   7.3800000000000004E-002     2.6158431755186145E-012
   7.4649999999999994E-002     3.3277440370664180E-012
   7.5499999999999984E-002     3.9877173200911075E-012
   7.6350000000000001E-002     4.5457238707277656E-012
   7.7199999999999991E-002     4.9478828238943476E-012
   7.8049999999999981E-002     5.1388527753985028E-012
   7.8899999999999998E-002     5.0647234381885889E-012
   7.9749999999999988E-002     4.6763545335522536E-012
   8.0600000000000005E-002     3.9330526579210953E-012
   8.1449999999999995E-002     2.8064399898940011E-012
   8.2299999999999984E-002     1.2843393843783686E-012
   8.3150000000000002E-002    -6.2552553560534140E-013
   8.3999999999999991E-002    -2.8922559017808307E-012
   8.4849999999999981E-002    -5.4591626375060930E-012
   8.5699999999999998E-002    -8.2420802614220598E-012
   8.6549999999999988E-002    -1.1128834948978686E-011
   8.7400000000000005E-002    -1.3980102207166711E-011
   8.8249999999999995E-002    -1.6631833354832969E-011
   8.9099999999999985E-002    -1.8899396152390668E-011
   8.9950000000000002E-002    -2.0583494424488206E-011
   9.0799999999999992E-002    -2.1477855419125323E-011
   9.1649999999999981E-002    -2.1378594512331768E-011
   9.2499999999999999E-002    -2.0095050653268845E-011
   9.3349999999999989E-002    -1.7461806906068581E-011
   9.4200000000000006E-002    -1.3351460389136232E-011
   9.5049999999999996E-002    -7.6876822454448855E-012
   9.5899999999999985E-002    -4.5793786417342096E-013
   9.6750000000000003E-002     8.2747895582999107E-012
   9.7599999999999992E-002     1.8361972326415567E-011
   9.8449999999999982E-002     2.9561996810722072E-011
   9.9299999999999999E-002     4.1535803795037046E-011
  0.10014999999999999          5.3846425500669165E-011
  0.10099999999999998          6.5963050815826189E-011
  0.10185000000000000          7.7270141628750174E-011
  0.10269999999999999          8.7081918470864273E-011
  0.10355000000000000          9.4662327041034315E-011
  0.10439999999999999          9.9250558324812881E-011
  0.10524999999999998          1.0009158300581603E-010
  0.10610000000000000          9.6471312349062294E-011
  0.10694999999999999          8.7755299733536836E-011
  0.10779999999999998          7.3429866673144498E-011
  0.10865000000000000          5.3144224473574471E-011
  0.10949999999999999          2.6751768859925657E-011
  0.11035000000000000         -5.6511766183340514E-012
  0.11119999999999999         -4.3691567610552388E-011
  0.11204999999999998         -8.6692657819655262E-011
  0.11290000000000000         -1.3365625523509579E-010
  0.11374999999999999         -1.8325615396518796E-010
  0.11459999999999998         -2.3384497154386918E-010
  0.11545000000000000         -2.8347560314324366E-010
  0.11629999999999999         -3.2993942882456755E-010
  0.11715000000000000         -3.7082146028971893E-010
  0.11799999999999999         -4.0357336389926516E-010
  0.11884999999999998         -4.2560423912613505E-010
  0.11970000000000000         -4.3438824570225372E-010
  0.12054999999999999         -4.2758816684273617E-010
  0.12139999999999998         -4.0319305316373787E-010
  0.12225000000000000         -3.5966752934694480E-010
  0.12309999999999999         -2.9611021162572649E-010
  0.12395000000000000         -2.1241817731980938E-010
  0.12479999999999999         -1.0945444911129283E-010
  0.12564999999999998          1.0785317374905342E-011
  0.12650000000000000          1.4500852956101066E-010
  0.12734999999999999          2.8846826603350444E-010
  0.12819999999999998          4.3481320686288351E-010
  0.12905000000000000          5.7594692149352680E-010
  0.12989999999999999          7.0189669195545255E-010
  0.13074999999999998          8.0068984852178141E-010
  0.13159999999999999          8.5823628037237769E-010
  0.13245000000000001          8.5821258370420690E-010
  0.13329999999999997          7.8194205528478313E-010
  0.13414999999999999          6.0826194233208031E-010
  0.13500000000000001          3.1336971276613646E-010
  0.13584999999999997         -1.2936487487602288E-010
  0.13669999999999999         -7.4963556337901800E-010
  0.13755000000000001         -1.5804955255064241E-009
  0.13839999999999997         -2.6587387970079817E-009
  0.13924999999999998         -4.0253778687540756E-009
  0.14010000000000000         -5.7262465535698661E-009
  0.14094999999999996         -7.8127454887372628E-009
  0.14179999999999998         -1.0342763816387362E-008
  0.14265000000000000         -1.3381787216087045E-008
  0.14350000000000002         -1.7004241509370081E-008
  0.14434999999999998         -2.1295094430249079E-008
  0.14520000000000000         -2.6351715753629468E-008
  0.14605000000000001         -3.2286096702430797E-008
  0.14689999999999998         -3.9227379247673528E-008
  0.14774999999999999         -4.7324801969459286E-008
  0.14860000000000001         -5.6751046696010173E-008
  0.14944999999999997         -6.7706093066059058E-008
  0.15029999999999999         -8.0421476494602293E-008
  0.15115000000000001         -9.5165213341055166E-008
  0.15199999999999997         -1.1224723298644038E-007
  0.15284999999999999         -1.3202545041980608E-007
  0.15370000000000000         -1.5491264909045142E-007
  0.15454999999999997         -1.8138385855848942E-007
  0.15539999999999998         -2.1198477395705858E-007
  0.15625000000000000         -2.4734100035591384E-007
  0.15709999999999996         -2.8816801822422834E-007
  0.15794999999999998         -3.3528238964292094E-007
  0.15880000000000000         -3.8961372288286049E-007
  0.15965000000000001         -4.5221835650615780E-007
  0.16049999999999998         -5.2429316677928332E-007
  0.16134999999999999         -6.0719181933617611E-007
  0.16220000000000001         -7.0244137766056743E-007
  0.16304999999999997         -8.1176054534063581E-007
  0.16389999999999999         -9.3707979217881729E-007
  0.16475000000000001         -1.0805623165407640E-006
  0.16559999999999997         -1.2446258937653558E-006
  0.16644999999999999         -1.4319677087816761E-006
  0.16730000000000000         -1.6455889671667133E-006
  0.16814999999999997         -1.8888213769879374E-006
  0.16899999999999998         -2.1653549340286423E-006
  0.16985000000000000         -2.4792661247362212E-006
  0.17069999999999996         -2.8350473992273873E-006
  0.17154999999999998         -3.2376373715659284E-006
  0.17240000000000000         -3.6924492901718497E-006
  0.17325000000000002         -4.2054018491631689E-006
  0.17409999999999998         -4.7829480877891154E-006
  0.17494999999999999         -5.4321017488835850E-006
  0.17580000000000001         -6.1604629222175127E-006
  0.17664999999999997         -6.9762445300419084E-006
  0.17749999999999999         -7.8882855355250131E-006
  0.17835000000000001         -8.9060734069918049E-006
  0.17919999999999997         -1.0039746136809545E-005
  0.18004999999999999         -1.1300105041308392E-005
  0.18090000000000001         -1.2698605525532261E-005
  0.18174999999999997         -1.4247344790660083E-005
  0.18259999999999998         -1.5959043621902573E-005
  0.18345000000000000         -1.7847014169784707E-005
  0.18429999999999996         -1.9925107964878316E-005
  0.18514999999999998         -2.2207663137438390E-005
  0.18600000000000000         -2.4709434080847029E-005
  0.18684999999999996         -2.7445502654245855E-005
  0.18769999999999998         -3.0431161650112967E-005
  0.18855000000000000         -3.3681796842244916E-005
  0.18940000000000001         -3.7212750924857230E-005
  0.19024999999999997         -4.1039151495974651E-005
  0.19109999999999999         -4.5175725210789682E-005
  0.19195000000000001         -4.9636607522418308E-005
  0.19279999999999997         -5.4435094836163556E-005
  0.19364999999999999         -5.9583422966968845E-005
  0.19450000000000001         -6.5092465572308997E-005
  0.19534999999999997         -7.0971502592329932E-005
  0.19619999999999999         -7.7227845375952208E-005
  0.19705000000000000         -8.3866567209979926E-005
  0.19789999999999996         -9.0890157231906686E-005
  0.19874999999999998         -9.8298156750538059E-005
  0.19960000000000000         -1.0608680796257605E-004
  0.20044999999999996         -1.1424867667491201E-004
  0.20129999999999998         -1.2277234752554932E-004
  0.20215000000000000         -1.3164198433390911E-004
  0.20300000000000001         -1.4083701310577143E-004
  0.20384999999999998         -1.5033181312299951E-004
  0.20469999999999999         -1.6009532385945918E-004
  0.20555000000000001         -1.7009081381494663E-004
  0.20639999999999997         -1.8027558111181406E-004
  0.20724999999999999         -1.9060077599113796E-004
  0.20810000000000001         -2.0101116543585969E-004
  0.20894999999999997         -2.1144502849013250E-004
  0.20979999999999999         -2.2183412820727777E-004
  0.21065000000000000         -2.3210370774902583E-004
  0.21149999999999997         -2.4217250214798619E-004
  0.21234999999999998         -2.5195294469485127E-004
  0.21320000000000000         -2.6135145599291926E-004
  0.21404999999999996         -2.7026869172366733E-004
  0.21489999999999998         -2.7859998332414258E-004
  0.21575000000000000         -2.8623599732685692E-004
  0.21659999999999996         -2.9306312657569289E-004
  0.21744999999999998         -2.9896438827492554E-004
  0.21829999999999999         -3.0382018230804410E-004
  0.21915000000000001         -3.0750938738356579E-004
  0.21999999999999997         -3.0991015388589664E-004
  0.22084999999999999         -3.1090115360400130E-004
  0.22170000000000001         -3.1036281141574228E-004
  0.22254999999999997         -3.0817830709250685E-004
  0.22339999999999999         -3.0423538832193773E-004
  0.22425000000000000         -2.9842735595572706E-004
  0.22509999999999997         -2.9065481518821977E-004
  0.22594999999999998         -2.8082698675657578E-004
  0.22680000000000000         -2.6886308766728933E-004
  0.22764999999999996         -2.5469414704475563E-004
  0.22849999999999998         -2.3826401785235625E-004
  0.22935000000000000         -2.1953115192193919E-004
  0.23019999999999996         -1.9846998017710344E-004
  0.23104999999999998         -1.7507176297564529E-004
  0.23190000000000000         -1.4934596904237187E-004
  0.23275000000000001         -1.2132166467528359E-004
  0.23359999999999997         -9.1047642590780077E-005
  0.23444999999999999         -5.8593795297446537E-005
  0.23530000000000001         -2.4051290159331638E-005
  0.23614999999999997          1.2467042488752692E-005
  0.23699999999999999          5.0826423452053428E-005
  0.23785000000000001          9.0870397062101815E-005
  0.23869999999999997          1.3242120886219070E-004
  0.23954999999999999          1.7528046205110212E-004
  0.24040000000000000          2.1922977975077587E-004
  0.24124999999999996          2.6403212969585359E-004
  0.24209999999999998          3.0943301869370827E-004
  0.24295000000000000          3.5516219121187463E-004
  0.24379999999999996          4.0093540155591059E-004
  0.24464999999999998          4.4645662572708101E-004
  0.24550000000000000          4.9142040242649383E-004
  0.24634999999999996          5.3551411847586254E-004
  0.24719999999999998          5.7842099841427742E-004
  0.24804999999999999          6.1982232466182392E-004
  0.24890000000000001          6.5940090259643583E-004
  0.24974999999999997          6.9684382690775575E-004
  0.25059999999999999          7.3184540669735283E-004
  0.25145000000000001          7.6411066546282571E-004
  0.25229999999999997          7.9335772890937574E-004
  0.25314999999999999          8.1932140897283197E-004
  0.25400000000000000          8.4175556383320432E-004
  0.25484999999999997          8.6043628323221428E-004
  0.25569999999999998          8.7516429573470278E-004
  0.25655000000000000          8.8576723031010419E-004
  0.25739999999999996          8.9210202634647836E-004
  0.25824999999999998          8.9405659673993682E-004
  0.25910000000000000          8.9155134644201947E-004
  0.25994999999999996          8.8454080230144431E-004
  0.26079999999999998          8.7301390299074398E-004
  0.26164999999999999          8.5699526475469044E-004
  0.26249999999999996          8.3654483053508097E-004
  0.26334999999999997          8.1175785384909156E-004
  0.26419999999999999          7.8276436861956903E-004
  0.26505000000000001          7.4972826803401129E-004
  0.26589999999999997          7.1284596339201171E-004
  0.26674999999999999          6.7234489418662921E-004
  0.26760000000000000          6.2848113839076387E-004
  0.26844999999999997          5.8153740117316373E-004
  0.26929999999999998          5.3182061578623072E-004
  0.27015000000000000          4.7965862161664753E-004
  0.27099999999999996          4.2539743734952849E-004
  0.27184999999999998          3.6939796966913442E-004
  0.27270000000000000          3.1203217560234642E-004
  0.27354999999999996          2.5368041906692385E-004
  0.27439999999999998          1.9472708808502442E-004
  0.27524999999999999          1.3555733054710216E-004
  0.27609999999999996          7.6553352461083754E-005
  0.27694999999999997          1.8091597781335517E-005
  0.27779999999999999         -3.9461928015930642E-005
  0.27865000000000001         -9.5753686132295907E-005
  0.27949999999999997         -1.5044668101464709E-004
  0.28034999999999999         -2.0322203912467288E-004
  0.28120000000000001         -2.5378262614504080E-004
  0.28204999999999997         -3.0185551375184387E-004
  0.28289999999999998         -3.4719288647163012E-004
  0.28375000000000000         -3.8957490393678112E-004
  0.28459999999999996         -4.2881039680671271E-004
  0.28544999999999998         -4.6473795036554338E-004
  0.28630000000000000         -4.9722693112205405E-004
  0.28714999999999996         -5.2617725613055921E-004
  0.28799999999999998         -5.5152001592636472E-004
  0.28885000000000000         -5.7321695628357542E-004
  0.28969999999999996         -5.9125949104403813E-004
  0.29054999999999997         -6.0566791872833966E-004
  0.29139999999999999         -6.1649039811675758E-004
  0.29224999999999995         -6.2380157687889979E-004
  0.29309999999999997         -6.2770041578811295E-004
  0.29394999999999999         -6.2830839282586011E-004
  0.29480000000000001         -6.2576812454543827E-004
  0.29564999999999997         -6.2023988533735244E-004
  0.29649999999999999         -6.1190046622350356E-004
  0.29735000000000000         -6.0093984641568633E-004
  0.29819999999999997         -5.8755994368905797E-004
  0.29904999999999998         -5.7197096958725227E-004
  0.29990000000000000         -5.5438968672908524E-004
  0.30074999999999996         -5.3503694456768819E-004
  0.30159999999999998         -5.1413540203525923E-004
  0.30245000000000000         -4.9190718562934727E-004
  0.30329999999999996         -4.6857228037987470E-004
  0.30414999999999998         -4.4434602449805791E-004
  0.30499999999999999         -4.1943773732882938E-004
  0.30584999999999996         -3.9404912526014898E-004
  0.30669999999999997         -3.6837261274652648E-004
  0.30754999999999999         -3.4259049646412126E-004
  0.30840000000000001         -3.1687364293295147E-004
  0.30924999999999997         -2.9138084680357203E-004
  0.31009999999999999         -2.6625799795043420E-004
  0.31095000000000000         -2.4163775301853119E-004
  0.31179999999999997         -2.1763921988938632E-004
  0.31264999999999998         -1.9436779853502297E-004
  0.31350000000000000         -1.7191529200738756E-004
  0.31434999999999996         -1.5036005932960494E-004
  0.31519999999999998         -1.2976732554329637E-004
  0.31605000000000000         -1.1018970254274239E-004
  0.31689999999999996         -9.1667585035071089E-005
  0.31774999999999998         -7.4229935985002839E-005
  0.31859999999999999         -5.7894935803022731E-005
  0.31944999999999996         -4.2670663625655577E-005
  0.32029999999999997         -2.8556045273824971E-005
  0.32114999999999999         -1.5541594395837342E-005
  0.32199999999999995         -3.6103258584380054E-006
  0.32284999999999997          7.2614330590704463E-006
  0.32369999999999999          1.7103278722978385E-005
  0.32455000000000001          2.5949690672194511E-005
  0.32539999999999997          3.3839389410602009E-005
  0.32624999999999998          4.0814499155133221E-005
  0.32710000000000000          4.6919942797999985E-005
  0.32794999999999996          5.2202551039273184E-005
  0.32879999999999998          5.6710682052375235E-005
  0.32965000000000000          6.0493507707544516E-005
  0.33049999999999996          6.3600511282398595E-005
  0.33134999999999998          6.6081108352510510E-005
  0.33220000000000000          6.7984097172456989E-005
  0.33304999999999996          6.9357428949151989E-005
  0.33389999999999997          7.0247855170254035E-005
  0.33474999999999999          7.0700675304162413E-005
  0.33559999999999995          7.0759575221298278E-005
  0.33644999999999997          7.0466422448782105E-005
  0.33729999999999999          6.9861164620373689E-005
  0.33815000000000001          6.8981670473776280E-005
  0.33899999999999997          6.7863711765180510E-005
  0.33984999999999999          6.6540985125216072E-005
  0.34070000000000000          6.5044957835311957E-005
  0.34154999999999996          6.3405013778516475E-005
  0.34239999999999998          6.1648317406989936E-005