 -0.12000000000000000          0.0000000000000000     
 -0.11914999999999999          0.0000000000000000     
 -0.11830000000000000          0.0000000000000000     
 -0.11745000000000000          0.0000000000000000     
 -0.11660000000000000          0.0000000000000000     
 -0.11574999999999999         -2.6775592675057620E-017
 -0.11490000000000000         -1.9433818527866857E-016
 -0.11405000000000000         -6.5717866540411560E-016
 -0.11320000000000000         -1.1852988299459792E-015
 -0.11234999999999999         -3.8487132034861779E-016
 -0.11150000000000000          4.4664794598831532E-015
 -0.11065000000000000          1.5055256181415059E-014
 -0.10979999999999999          2.5960872513311190E-014
 -0.10894999999999999          1.7672888200000631E-014
 -0.10810000000000000         -4.2177930437566159E-014
 -0.10725000000000000         -1.7669064715777647E-013
 -0.10639999999999999         -3.5136236589066198E-013
 -0.10554999999999999         -4.1800902331572128E-013
 -0.10470000000000000         -1.0369875316119424E-013
 -0.10385000000000000          8.8066987704722360E-013
 -0.10299999999999999          2.5633119184697966E-012
 -0.10214999999999999          4.3182986094379841E-012
 -0.10130000000000000          4.5742078642561082E-012
 -0.10045000000000000          9.9843432918904527E-013
  -9.9599999999999994E-002    -8.4589924922459693E-012
  -9.8750000000000004E-002    -2.3558847941726096E-011
  -9.7900000000000001E-002    -3.9327959550136234E-011
  -9.7049999999999997E-002    -4.4532909705208792E-011
  -9.6199999999999994E-002    -2.3063936585914769E-011
  -9.5349999999999990E-002     3.9929802244832214E-011
  -9.4500000000000001E-002     1.4679409907625342E-010
  -9.3649999999999997E-002     2.7359104733192413E-010
  -9.2799999999999994E-002     3.6010124538782900E-010
  -9.1950000000000004E-002     3.1284609416704224E-010
  -9.1100000000000000E-002     3.0219679859251906E-011
  -9.0249999999999997E-002    -5.4654226317930911E-010
  -8.9399999999999993E-002    -1.3641296104921196E-009
  -8.8549999999999990E-002    -2.1925717112436925E-009
  -8.7700000000000000E-002    -2.6024066146229730E-009
  -8.6849999999999997E-002    -2.0258729187787070E-009
  -8.5999999999999993E-002     6.7759466968968387E-011
  -8.5150000000000003E-002     3.8870310516013128E-009
  -8.4300000000000000E-002     8.9819266763453034E-009
  -8.3449999999999996E-002     1.3976075626825120E-008
  -8.2600000000000007E-002     1.6532292989356263E-008
  -8.1749999999999989E-002     1.3716034689436271E-008
  -8.0900000000000000E-002     2.8511246273618974E-009
  -8.0049999999999996E-002    -1.7187565242258102E-008
  -7.9199999999999993E-002    -4.4509717484142353E-008
  -7.8350000000000003E-002    -7.3057205323230915E-008
  -7.7499999999999999E-002    -9.2393571700472907E-008
  -7.6649999999999996E-002    -8.9046958460070786E-008
  -7.5800000000000006E-002    -4.9761712826146809E-008
  -7.4949999999999989E-002     3.3500536494861451E-008
  -7.4099999999999999E-002     1.5767626111199193E-007
  -7.3249999999999996E-002     3.0344096543161578E-007
  -7.2399999999999992E-002     4.3292027389085353E-007
  -7.1550000000000002E-002     4.9247322640601944E-007
  -7.0699999999999999E-002     4.2211472788767333E-007
  -6.9849999999999995E-002     1.7170963426258976E-007
  -6.9000000000000006E-002    -2.7799702293181112E-007
  -6.8149999999999988E-002    -8.9380954207322866E-007
  -6.7299999999999999E-002    -1.5742857056332997E-006
  -6.6449999999999995E-002    -2.1469738519158752E-006
  -6.5599999999999992E-002    -2.3851772520528914E-006
  -6.4750000000000002E-002    -2.0478344076383766E-006
  -6.3899999999999998E-002    -9.4107167312252610E-007
  -6.3049999999999995E-002     1.0064670161246068E-006
  -6.2199999999999998E-002     3.6690976941586294E-006
  -6.1350000000000002E-002     6.6703200987852073E-006
  -6.0499999999999998E-002     9.3717389885219044E-006
  -5.9650000000000002E-002     1.0924051253267265E-005
  -5.8799999999999998E-002     1.0391204775381218E-005
  -5.7950000000000002E-002     6.9452368749054915E-006
  -5.7099999999999998E-002     1.1196342735186802E-007
  -5.6249999999999994E-002    -9.9709708527358858E-006
  -5.5400000000000005E-002    -2.2337936951944053E-005
  -5.4550000000000001E-002    -3.5084396814123869E-005
  -5.3699999999999998E-002    -4.5423259062396605E-005
  -5.2849999999999994E-002    -4.9955194373633236E-005
  -5.2000000000000005E-002    -4.5171133414239459E-005
  -5.1150000000000001E-002    -2.8162698145065283E-005
  -5.0299999999999997E-002     2.5330658441360357E-006
  -4.9449999999999994E-002     4.6079364502069346E-005
  -4.8600000000000004E-002     9.8643355782239631E-005
  -4.7750000000000001E-002     1.5304886089620104E-004
  -4.6899999999999997E-002     1.9896455845530572E-004
  -4.6049999999999994E-002     2.2377192286637403E-004
  -4.5200000000000004E-002     2.1417550783124151E-004
  -4.4350000000000001E-002     1.5849879372372520E-004
  -4.3499999999999997E-002     4.9462521675762791E-005
  -4.2649999999999993E-002    -1.1291066329238583E-004
  -4.1800000000000004E-002    -3.1875679687518792E-004
  -4.0950000000000000E-002    -5.4677293093000046E-004
  -4.0099999999999997E-002    -7.6414637540018863E-004
  -3.9249999999999993E-002    -9.2849200053537551E-004
  -3.8400000000000004E-002    -9.9207038515286257E-004
  -3.7550000000000000E-002    -9.0823033203668742E-004
  -3.6699999999999997E-002    -6.3961735881455932E-004
  -3.5850000000000007E-002    -1.6726096802532767E-004
  -3.5000000000000003E-002     5.0073811593843054E-004
  -3.4150000000000000E-002     1.3224595420262587E-003
  -3.3299999999999996E-002     2.2189560422770141E-003
  -3.2450000000000007E-002     3.0759940263025178E-003
  -3.1600000000000003E-002     3.7516831418821436E-003
  -3.0750000000000000E-002     4.0902064496044013E-003
  -2.9899999999999996E-002     3.9409457276193705E-003
  -2.9050000000000006E-002     3.1813533336524412E-003
  -2.8200000000000003E-002     1.7410080012020368E-003
  -2.7349999999999999E-002    -3.7630372528437263E-004
  -2.6499999999999996E-002    -3.0759408808441000E-003
  -2.5650000000000006E-002    -6.1643725608243622E-003
  -2.4800000000000003E-002    -9.3523146360169635E-003
  -2.3949999999999999E-002    -1.2270360034005466E-002
  -2.3099999999999996E-002    -1.4497017658702187E-002
  -2.2250000000000006E-002    -1.5597497672950655E-002
  -2.1400000000000002E-002    -1.5170167521653316E-002
  -2.0549999999999999E-002    -1.2896346770209540E-002
  -1.9699999999999995E-002    -8.5885123585067707E-003
  -1.8850000000000006E-002    -2.2318335552220670E-003
  -1.8000000000000002E-002     5.9856361913211836E-003
  -1.7149999999999999E-002     1.5657748693502376E-002
  -1.6299999999999995E-002     2.6162680849653355E-002
  -1.5450000000000005E-002     3.6683952666752090E-002
  -1.4600000000000002E-002     4.6249829073988571E-002
  -1.3749999999999998E-002     5.3789728374159254E-002
  -1.2899999999999995E-002     5.8205099669371096E-002
  -1.2050000000000005E-002     5.8451745448506405E-002
  -1.1200000000000002E-002     5.3629719377795371E-002
  -1.0349999999999998E-002     4.3076710977403294E-002
  -9.5000000000000084E-003     2.6459915526682511E-002
  -8.6500000000000049E-003     3.8609484098388533E-003
  -7.8000000000000014E-003    -2.4152626180290113E-002
  -6.9499999999999978E-003    -5.6475986907228784E-002
  -6.1000000000000082E-003    -9.1443726715479012E-002
  -5.2500000000000047E-003   -0.12684192762150182     
  -4.4000000000000011E-003   -0.15996240082312871     
  -3.5499999999999976E-003   -0.18770525285200340     
  -2.7000000000000079E-003   -0.20673026240656639     
  -1.8500000000000044E-003   -0.21365798606765651     
  -1.0000000000000009E-003   -0.20531255312530128     
  -1.4999999999999736E-004   -0.17899652483000189     
   6.9999999999999230E-004   -0.13277995359310535     
   1.5499999999999958E-003    -6.5784357566406187E-002
   2.3999999999999994E-003     2.1563154754878563E-002
   3.2500000000000029E-003    0.12733020370577641     
   4.0999999999999925E-003    0.24795254402591027     
   4.9499999999999961E-003    0.37820903516088877     
   5.7999999999999996E-003    0.51129445433411691     
   6.6499999999999893E-003    0.63901435130174677     
   7.5000000000000067E-003    0.75206292912554273     
   8.3499999999999963E-003    0.84040680421512626     
   9.1999999999999860E-003    0.89370048554467030     
   1.0050000000000003E-002    0.90173532590924266     
   1.0899999999999993E-002    0.85486324365193200     
   1.1750000000000010E-002    0.74435456502680120     
   1.2600000000000000E-002    0.56266006127896517     
   1.3449999999999990E-002    0.30355317043000835     
   1.4300000000000007E-002    -3.7906721458502379E-002
   1.5149999999999997E-002   -0.46549956732734210     
   1.5999999999999986E-002   -0.98221654913810452     
   1.6850000000000004E-002    -1.5906468007102874     
   1.7699999999999994E-002    -2.2935915299259002     
   1.8549999999999983E-002    -3.0946887787102497     
   1.9400000000000001E-002    -3.9991503671325974     
   2.0249999999999990E-002    -5.0145212260468819     
   2.1100000000000008E-002    -6.1514645870403211     
   2.1949999999999997E-002    -7.4246635154474099     
   2.2799999999999987E-002    -8.8536898543973752     
   2.3650000000000004E-002    -10.464014194466372     
   2.4499999999999994E-002    -12.287997103059048     
   2.5349999999999984E-002    -14.365982033703471     
   2.6200000000000001E-002    -16.747644752777049     
   2.7049999999999991E-002    -19.492942886950221     
   2.7900000000000008E-002    -22.673837809721960     
   2.8749999999999998E-002    -26.375241318639169     
   2.9599999999999987E-002    -30.696689413401259     
   3.0450000000000005E-002    -35.753426813971856     
   3.1299999999999994E-002    -41.677899934285776     
   3.2149999999999984E-002    -48.621114702335120     
   3.3000000000000002E-002    -56.753789390110015     
   3.3849999999999991E-002    -66.267594626663794     
   3.4700000000000009E-002    -77.377125320236416     
   3.5549999999999998E-002    -90.320600112856354     
   3.6399999999999988E-002    -105.36311357847308     
   3.7250000000000005E-002    -122.79701504273649     
   3.8099999999999995E-002    -142.94591961616837     
   3.8949999999999985E-002    -166.16686295510701     
   3.9800000000000002E-002    -192.85273006737896     
   4.0649999999999992E-002    -223.43656263195845     
   4.1500000000000009E-002    -258.39563215475306     
   4.2349999999999999E-002    -298.25359417996162     
   4.3199999999999988E-002    -343.58538643483507     
   4.4050000000000006E-002    -395.02036595487266     
   4.4899999999999995E-002    -453.24709834014175     
   4.5749999999999985E-002    -519.01512402402864     
   4.6600000000000003E-002    -593.13892456657413     
   4.7449999999999992E-002    -676.50057861998459     
   4.8299999999999982E-002    -770.04907453778299     
   4.9149999999999999E-002    -874.80665573505007     
   4.9999999999999989E-002    -991.86572589163825     
   5.0850000000000006E-002    -1122.3886941875960     
   5.1699999999999996E-002    -1267.6086967918516     
   5.2549999999999986E-002    -1428.8244346890640     
   5.3400000000000003E-002    -1607.3954837161591     
   5.4249999999999993E-002    -1804.7383071139966     
   5.5099999999999982E-002    -2022.3210446499465     
   5.5950000000000000E-002    -2261.6451175803782     
   5.6799999999999989E-002    -2524.2402532385959     
   5.7650000000000007E-002    -2811.6402760079400     
   5.8499999999999996E-002    -3125.3821123144212     
   5.9349999999999986E-002    -3466.9706347035435     
   6.0200000000000004E-002    -3837.8589523876526     
   6.1049999999999993E-002    -4239.4403166343582     
   6.1899999999999983E-002    -4672.9863718189954     
   6.2750000000000000E-002    -5139.6425754001802     
   6.3599999999999990E-002    -5640.4022584669292     
   6.4450000000000007E-002    -6176.0427291747974     
   6.5299999999999997E-002    -6747.1212137974871     
   6.6149999999999987E-002    -7353.9295732361752     
   6.7000000000000004E-002    -7996.4171665447011     
   6.7849999999999994E-002    -8674.1938071152508     
   6.8699999999999983E-002    -9386.4626582546971     
   6.9550000000000001E-002    -10131.988429887902     
   7.0399999999999990E-002    -10909.015917760184     
   7.1249999999999980E-002    -11715.271889128622     
   7.2099999999999997E-002    -12547.906050128644     
   7.2949999999999987E-002    -13403.307295259594     
   7.3800000000000004E-002    -14277.352293159585     
   7.4649999999999994E-002    -15165.079413297608     
   7.5499999999999984E-002    -16060.773810420584     
   7.6350000000000001E-002    -16957.928385035906     
   7.7199999999999991E-002    -17849.197584068643     
   7.8049999999999981E-002    -18726.443242943977     
   7.8899999999999998E-002    -19580.595440797661     
   7.9749999999999988E-002    -20401.759926869549     
   8.0600000000000005E-002    -21179.273088988146     
   8.1449999999999995E-002    -21901.519498953770     
   8.2299999999999984E-002    -22556.194757969199     
   8.3150000000000002E-002    -23130.264955264451     
   8.3999999999999991E-002    -23609.982404020306     
   8.4849999999999981E-002    -23981.124532059985     
   8.5699999999999998E-002    -24228.954005729807     
   8.6549999999999988E-002    -24338.284587478192     
   8.7400000000000005E-002    -24293.937753162285     
   8.8249999999999995E-002    -24080.396394683092     
   8.9099999999999985E-002    -23682.475507053990     
   8.9950000000000002E-002    -23084.953484191316     
   9.0799999999999992E-002    -22273.366550472514     
   9.1649999999999981E-002    -21233.794384785881     
   9.2499999999999999E-002    -19953.122252424364     
   9.3349999999999989E-002    -18419.607964059167     
   9.4200000000000006E-002    -16622.620070827474     
   9.5049999999999996E-002    -14553.443190633023     
   9.5899999999999985E-002    -12204.828806922340     
   9.6750000000000003E-002    -9571.6342705182597     
   9.7599999999999992E-002    -6651.1633782851841     
   9.8449999999999982E-002    -3443.4288513371912     
   9.9299999999999999E-002     49.180022069489496     
  0.10014999999999999          3821.1803564095117     
  0.10099999999999998          7864.0602280673738     
  0.10185000000000000          12165.790201408636     
  0.10269999999999999          16711.212219764955     
  0.10355000000000000          21481.403439276863     
  0.10439999999999999          26454.193910991795     
  0.10524999999999998          31603.831085660458     
  0.10610000000000000          36900.704336703464     
  0.10694999999999999          42312.468786218102     
  0.10779999999999998          47802.915892352175     
  0.10865000000000000          53333.090574881091     
  0.10949999999999999          58860.597155711417     
  0.11035000000000000          64341.219258655452     
  0.11119999999999999          69727.705595273204     
  0.11204999999999998          74971.315171658818     
  0.11290000000000000          80021.719480193307     
  0.11374999999999999          84827.798043347255     
  0.11459999999999998          89337.708590071852     
  0.11545000000000000          93499.172429978411     
  0.11629999999999999          97261.445750757033     
  0.11715000000000000          100574.01444703914     
  0.11799999999999999          103389.03161493278     
  0.11884999999999998          105660.17512315793     
  0.11970000000000000          107344.73262456188     
  0.12054999999999999          108403.12208382411     
  0.12139999999999998          108800.23342360303     
  0.12225000000000000          108505.43610448827     
  0.12309999999999999          107493.45865586516     
  0.12395000000000000          105744.74137427661     
  0.12479999999999999          103245.75166035948     
  0.12564999999999998          99989.584957475003     
  0.12650000000000000          95976.102757790984     
  0.12734999999999999          91212.176454246131     
  0.12819999999999998          85711.816470608537     
  0.12905000000000000          79496.500332614523     
  0.12989999999999999          72594.744198958331     
  0.13074999999999998          65042.249437526210     
  0.13159999999999999          56881.827568704364     
  0.13245000000000001          48162.802700680732     
  0.13329999999999997          38940.977061560960     
  0.13414999999999999          29277.933265300573     
  0.13500000000000001          19240.574165457165     
  0.13584999999999997          8900.7327816218294     
  0.13669999999999999         -1665.6058375495850     
  0.13755000000000001         -12379.548393884197     
  0.13839999999999997         -23159.721702038973     
  0.13924999999999998         -33922.584243850848     
  0.14010000000000000         -44584.181214696880     
  0.14094999999999996         -55059.960876384517     
  0.14179999999999998         -65266.873613872216     
  0.14265000000000000         -75123.644425004386     
  0.14350000000000002         -84551.706910232519     
  0.14434999999999998         -93475.846245378314     
  0.14520000000000000         -101825.08013704882     
  0.14605000000000001         -109533.68140603803     
  0.14689999999999998         -116541.76226018267     
  0.14774999999999999         -122795.63137435814     
  0.14860000000000001         -128248.88809443687     
  0.14944999999999997         -132862.47975222161     
  0.15029999999999999         -136605.21775996810     
  0.15115000000000001         -139453.55863756360     
  0.15199999999999997         -141393.12604415463     
  0.15284999999999999         -142417.15259031311     
  0.15370000000000000         -142527.66003016115     
  0.15454999999999997         -141735.01293768903     
  0.15539999999999998         -140056.99591767837     
  0.15625000000000000         -137520.22456312858     
  0.15709999999999996         -134157.98107672270     
  0.15794999999999998         -130010.80883999076     
  0.15880000000000000         -125125.25651411715     
  0.15965000000000001         -119554.55129640912     
  0.16049999999999998         -113356.31964235648     
  0.16134999999999999         -106592.45549909837     
  0.16220000000000001         -99329.099637050298     
  0.16304999999999997         -91635.051592822463     
  0.16389999999999999         -83581.112300967405     
  0.16475000000000001         -75239.365365375066     
  0.16559999999999997         -66682.806211276140     
  0.16644999999999999         -57983.712436739348     
  0.16730000000000000         -49213.421980384664     
  0.16814999999999997         -40441.571805832980     
  0.16899999999999998         -31735.843502852767     
  0.16985000000000000         -23160.356685407205     
  0.17069999999999996         -14776.116837164909     
  0.17154999999999998         -6639.7060830789469     
  0.17240000000000000          1196.3181313678488     
  0.17325000000000002          8684.6872120472490     
  0.17409999999999998          15783.168858777841     
  0.17494999999999999          22454.977761071899     
  0.17580000000000001          28668.704266108638     
  0.17664999999999997          34398.844489812109     
  0.17749999999999999          39625.333937043280     
  0.17835000000000001          44333.725835836303     
  0.17919999999999997          48514.971522243635     
  0.18004999999999999          52165.519236266948     
  0.18090000000000001          55286.468756878821     
  0.18174999999999997          57883.781139851737     
  0.18259999999999998          59968.089928611837     
  0.18345000000000000          61553.693496968583     
  0.18429999999999996          62658.809016294166     
  0.18514999999999998          63304.840497896272     
  0.18600000000000000          63516.010468249369     
  0.18684999999999996          63318.919222905133     
  0.18769999999999998          62742.350572552015     
  0.18855000000000000          61816.337011072144     
  0.18940000000000001          60572.247381765555     
  0.19024999999999997          59042.134812806478     
  0.19109999999999999          57258.250607419861     
  0.19195000000000001          55252.990124873955     
  0.19279999999999997          53058.212963506667     
  0.19364999999999999          50705.131815355686     
  0.19450000000000001          48224.124857874478     
  0.19534999999999997          45644.134394642002     
  0.19619999999999999          42992.774767198694     
  0.19705000000000000          40295.970283923547     
  0.19789999999999996          37577.923488175365     
  0.19874999999999998          34860.841723759731     
  0.19960000000000000          32165.153676504662     
  0.20044999999999996          29509.139424944267     
  0.20129999999999998          26909.156313019088     
  0.20215000000000000          24379.458631650505     
  0.20300000000000001          21932.521945550874     
  0.20384999999999998          19578.836114532165     
  0.20469999999999999          17327.075355540292     
  0.20555000000000001          15184.170510677586     
  0.20639999999999997          13155.290686860659     
  0.20724999999999999          11244.185205707981     
  0.20810000000000001          9453.0454070064334     
  0.20894999999999997          7782.8432307377516     
  0.20979999999999999          6233.3231877581529     
  0.21065000000000000          4803.1533679041440     
  0.21149999999999997          3490.2056099934525     
  0.21234999999999998          2291.5119319572755     
  0.21320000000000000          1203.4361703315299     
  0.21404999999999996          221.81369354274170     
  0.21489999999999998         -657.83944384243296     
  0.21575000000000000         -1440.4566063087084     
  0.21659999999999996         -2131.2041420527639     
  0.21744999999999998         -2735.3946315657636     
  0.21829999999999999         -3258.4577939213063     
  0.21915000000000001         -3705.8462515950569     
  0.21999999999999997         -4083.0154051880481     
  0.22084999999999999         -4395.3801133264169     
  0.22170000000000001         -4648.2059173529078     
  0.22254999999999997         -4846.6695334903443     
  0.22339999999999999         -4995.7004742892041     
  0.22425000000000000         -5100.0325766736178     
  0.22509999999999997         -5164.2797235404032     
  0.22594999999999998         -5192.7431006658380     
  0.22680000000000000         -5189.5469135489675     
  0.22764999999999996         -5158.5292938245184     
  0.22849999999999998         -5103.3322283674979     
  0.22935000000000000         -5027.3120527734118     
  0.23019999999999996         -4933.5771630017716     
  0.23104999999999998         -4825.0169583551206     
  0.23190000000000000         -4704.1883637406745     
  0.23275000000000001         -4573.4979582031419     
  0.23359999999999997         -4435.0537901442030     
  0.23444999999999999         -4290.7147706092837     
  0.23530000000000001         -4142.1887256267582     
  0.23614999999999997         -3990.9223600120686     
  0.23699999999999999         -3838.2332551090431     
  0.23785000000000001         -3685.2108167173174     
  0.23869999999999997         -3532.7558179499292     
  0.23954999999999999         -3381.6634177447095     
  0.24040000000000000         -3232.5301803803131     
  0.24124999999999996         -3085.7895111386179     
  0.24209999999999998         -2941.7542771076751     
  0.24295000000000000         -2800.6165184503220     
  0.24379999999999996         -2662.4652174085140     
  0.24464999999999998         -2527.3166560483642     
  0.24550000000000000         -2395.1249043369839     
  0.24634999999999996         -2265.8453777639952     
  0.24719999999999998         -2139.3955353853435     
  0.24804999999999999         -2015.7036080662028     
  0.24890000000000001         -1894.7004125289395     
  0.24974999999999997         -1776.3429038403399     
  0.25059999999999999         -1660.5805965880886     
  0.25145000000000001         -1547.4207412772525     
  0.25229999999999997         -1436.8943507818331     
  0.25314999999999999         -1329.0480770508207     
  0.25400000000000000         -1223.9867083214517     
  0.25484999999999997         -1121.8647983901201     
  0.25569999999999998         -1022.8872190598322     
  0.25655000000000000         -927.30615803357102     
  0.25739999999999996         -835.42492367961029     
  0.25824999999999998         -747.60130117536960     
  0.25910000000000000         -664.18701238805943     
  0.25994999999999996         -585.56735897882811     
  0.26079999999999998         -512.11887385720695     
  0.26164999999999999         -444.19995768969028     
  0.26249999999999996         -382.14292306604557     
  0.26334999999999997         -326.25293913961104     
  0.26419999999999999         -276.79404109511302     
  0.26505000000000001         -233.97666004924068     
  0.26589999999999997         -197.95171391800710     
  0.26674999999999999         -168.80339191983472     
  0.26760000000000000         -146.55049664696492     
  0.26844999999999997         -131.09819451264013     
  0.26929999999999998         -122.27354980523685     
  0.27015000000000000         -119.79433959018975     
  0.27099999999999996         -123.28453867479257     
  0.27184999999999998         -132.26511030406948     
  0.27270000000000000         -146.19730496121414     
  0.27354999999999996         -164.48423485917857     
  0.27439999999999998         -186.51343906769392     
  0.27524999999999999         -211.63006793321583     
  0.27609999999999996         -239.20092363411521     
  0.27694999999999997         -268.58628131336059     
  0.27779999999999999         -299.16956401752475     
  0.27865000000000001         -330.35101948392906     
  0.27949999999999997         -361.53716524789434     
  0.28034999999999999         -392.16188346232212     
  0.28120000000000001         -421.67636715703719     
  0.28204999999999997         -449.56481347200327     
  0.28289999999999998         -475.35621247712834     
  0.28375000000000000         -498.64218722817907     
  0.28459999999999996         -519.08879305741448     
  0.28544999999999998         -536.44592072459716     
  0.28630000000000000         -550.54919768886384     
  0.28714999999999996         -561.32583840984091     
  0.28799999999999998         -568.78805602982811     
  0.28885000000000000         -573.00802532929345     
  0.28969999999999996         -574.11048431037659     
  0.29054999999999997         -572.26902728140806     
  0.29139999999999999         -567.66940813052247     
  0.29224999999999995         -560.51642414894786     
  0.29309999999999997         -551.01251630568959     
  0.29394999999999999         -539.35849701914651     
  0.29480000000000001         -525.75238528559646     
  0.29564999999999997         -510.36374683645528     
  0.29649999999999999         -493.35520087306628     
  0.29735000000000000         -474.85113618655373     
  0.29819999999999997         -454.95760745781286     
  0.29904999999999998         -433.74277372926912     
  0.29990000000000000         -411.25124958020621     
  0.30074999999999996         -387.50154363271304     
  0.30159999999999998         -362.49429328877449     
  0.30245000000000000         -336.22988849376634     
  0.30329999999999996         -308.71888584922164     
  0.30414999999999998         -279.97638471449238     
  0.30499999999999999         -250.04259647714125     
  0.30584999999999996         -218.99108828687150     
  0.30669999999999997         -186.89328298185612     
  0.30754999999999999         -153.85907008313944     
  0.30840000000000001         -120.00805067844638     
  0.30924999999999997         -85.468755582552191     
  0.31009999999999999         -50.388349846650563     
  0.31095000000000000         -14.950597602741805     
  0.31179999999999997          20.632032198930155     
  0.31264999999999998          56.096900671250424     
  0.31350000000000000          91.128679958244149     
  0.31434999999999996          125.34815340141222     
  0.31519999999999998          158.32122909481794     
  0.31605000000000000          189.57732747877219     
  0.31689999999999996          218.61590329309035     
  0.31774999999999998          244.94608065908648     
  0.31859999999999999          268.09412238223331     
  0.31944999999999996          287.64315844657369     
  0.32029999999999997          303.23792498084492     
  0.32114999999999999          314.59502059199883     
  0.32199999999999995          321.50788399773148     
  0.32284999999999997          323.84579032396147     
  0.32369999999999999          321.54411429993900     
  0.32455000000000001          314.60266670317242     
  0.32539999999999997          303.08423563582483     
  0.32624999999999998          287.10936985976423     
  0.32710000000000000          266.86487003135557     
  0.32794999999999996          242.60136795674791     
  0.32879999999999998          214.64091002030381     
  0.32965000000000000          183.37935839693765     
  0.33049999999999996          149.26869694290204     
  0.33134999999999998          112.81952655598430     
  0.33220000000000000          74.578370929255726     
  0.33304999999999996          35.117413096294925     
  0.33389999999999997         -4.9835037079923481     
  0.33474999999999999         -45.152848301894707     
  0.33559999999999995         -84.834518537285476     
  0.33644999999999997         -123.49634726074714     
  0.33729999999999999         -160.63973154256593     
  0.33815000000000001         -195.79762491949543     
  0.33899999999999997         -228.54725236786220     
  0.33984999999999999         -258.50983834091687     
  0.34070000000000000         -285.36603622850970     
  0.34154999999999996         -308.86956482586368     
  0.34239999999999998         -328.84300092467907     