 -0.12000000000000000          0.0000000000000000
 -0.11914999999999999          0.0000000000000000
 -0.11830000000000000          0.0000000000000000
 -0.11745000000000000          0.0000000000000000
 -0.11660000000000000          0.0000000000000000
 -0.11574999999999999          0.0000000000000000
 -0.11490000000000000          0.0000000000000000
 -0.11405000000000000          0.0000000000000000
 -0.11320000000000000          0.0000000000000000
 -0.11234999999999999          0.0000000000000000
 -0.11150000000000000          0.0000000000000000
 -0.11065000000000000          0.0000000000000000
 -0.10979999999999999          0.0000000000000000
 -0.10894999999999999          0.0000000000000000
 -0.10810000000000000          0.0000000000000000
 -0.10725000000000000          0.0000000000000000
 -0.10639999999999999          0.0000000000000000
 -0.10554999999999999         -4.2951405101013773E-041
 -0.10470000000000000         -2.1253949232980895E-040
 -0.10385000000000000         -2.9977292619677899E-040
 -0.10299999999999999          1.9877089796435590E-040
 -0.10214999999999999          2.3183101901151478E-039
 -0.10130000000000000          8.9082243997776932E-039
 -0.10045000000000000          2.3220732203681573E-038
  -9.9599999999999994E-002     5.2318260834520130E-038
  -9.8750000000000004E-002     1.0507358800227261E-037
  -9.7900000000000001E-002     1.2237291465370377E-037
  -9.7049999999999997E-002    -1.2777683519610224E-038
  -9.6199999999999994E-002    -5.3269117424981433E-037
  -9.5349999999999990E-002    -1.7136975429868432E-036
  -9.4500000000000001E-002    -3.6584555963524869E-036
  -9.3649999999999997E-002    -5.6981147469548414E-036
  -9.2799999999999994E-002    -5.5359848711832020E-036
  -9.1950000000000004E-002     1.5186100816937406E-036
  -9.1100000000000000E-002     2.2127755219149120E-035
  -9.0249999999999997E-002     6.1526565458436843E-035
  -8.9399999999999993E-002     1.1525419498525508E-034
  -8.8549999999999990E-002     1.5580198711906902E-034
  -8.7700000000000000E-002     1.1853966822403716E-034
  -8.6849999999999997E-002    -1.0087168542786382E-034
  -8.5999999999999993E-002    -6.1662591689664837E-034
  -8.5150000000000003E-002    -1.4662088404561157E-033
  -8.4300000000000000E-002    -2.4556596733739509E-033
  -8.3449999999999996E-002    -2.9659062179101302E-033
  -8.2600000000000007E-002    -1.8228609447726773E-033
  -8.1749999999999989E-002     2.5746213139611148E-033
  -8.0900000000000000E-002     1.1612874069101580E-032
  -8.0049999999999996E-002     2.5103146829362775E-032
  -7.9199999999999993E-002     3.9265984999555251E-032
  -7.8350000000000003E-002     4.4676459011037999E-032
  -7.7499999999999999E-002     2.5575005758984534E-032
  -7.6649999999999996E-002    -3.7295166404948644E-032
  -7.5800000000000006E-002    -1.5798330332309678E-031
  -7.4949999999999989E-002    -3.2957597045763288E-031
  -7.4099999999999999E-002    -5.0341818974174803E-031
  -7.3249999999999996E-002    -5.7078190244141160E-031
  -7.2399999999999992E-002    -3.6111663484784402E-031
  -7.1550000000000002E-002     3.2386249245261734E-031
  -7.0699999999999999E-002     1.6220161365396516E-030
  -6.9849999999999995E-002     3.4630144775792650E-030
  -6.9000000000000006E-002     5.3839750506522281E-030
  -6.8149999999999988E-002     6.3751989534150764E-030
  -6.7299999999999999E-002     4.8718455386947233E-030
  -6.6449999999999995E-002    -9.5941528640407729E-031
  -6.5599999999999992E-002    -1.2504741324182013E-029
  -6.4750000000000002E-002    -2.9523209266926469E-029
  -6.3899999999999998E-002    -4.8674016524338264E-029
  -6.3049999999999995E-002    -6.2226892321966611E-029
  -6.2199999999999998E-002    -5.7768653907212333E-029
  -6.1350000000000002E-002    -1.9951492975184396E-029
  -6.0499999999999998E-002     6.4742084856725697E-029
  -5.9650000000000002E-002     1.9983375380262076E-028
  -5.8799999999999998E-002     3.6816153013378060E-028
  -5.7950000000000002E-002     5.2144564572887655E-028
  -5.7099999999999998E-002     5.7507221191476354E-028
  -5.6249999999999994E-002     4.1479140091257152E-028
  -5.5400000000000005E-002    -7.7792795143229650E-029
  -5.4550000000000001E-002    -9.7671832609734276E-028
  -5.3699999999999998E-002    -2.2424229704145846E-027
  -5.2849999999999994E-002    -3.6445627469328989E-027
  -5.2000000000000005E-002    -4.7028765875228109E-027
  -5.1150000000000001E-002    -4.6845518966243699E-027
  -5.0299999999999997E-002    -2.7027500426399921E-027
  -4.9449999999999994E-002     2.0460274061339605E-027
  -4.8600000000000004E-002     9.8949111271756925E-027
  -4.7750000000000001E-002     2.0209536161890795E-026
  -4.6899999999999997E-002     3.0891569453086165E-026
  -4.6049999999999994E-002     3.8073186835141468E-026
  -4.5200000000000004E-002     3.6256954184337857E-026
  -4.4350000000000001E-002     1.9170192852787347E-026
  -4.3499999999999997E-002    -1.8471102562999704E-026
  -4.2649999999999993E-002    -7.8288334860470711E-026
  -4.1800000000000004E-002    -1.5498350583517613E-025
  -4.0950000000000000E-002    -2.3325794521219214E-025
  -4.0099999999999997E-002    -2.8611883298575857E-025
  -3.9249999999999993E-002    -2.7611860123423230E-025
  -3.8400000000000004E-002    -1.6109316366695600E-025
  -3.7550000000000000E-002     9.4534932738701754E-026
  -3.6699999999999997E-002     5.0300582599487895E-025
  -3.5850000000000007E-002     1.0330472823304792E-024
  -3.5000000000000003E-002     1.5907502211872373E-024
  -3.4150000000000000E-002     2.0085057585848907E-024
  -3.3299999999999996E-002     2.0508631252794477E-024
  -3.2450000000000007E-002     1.4463127175049062E-024
  -3.1600000000000003E-002    -4.8654065817372551E-026
  -3.0750000000000000E-002    -2.5531474496100558E-024
  -2.9899999999999996E-002    -5.9432416470556629E-024
  -2.9050000000000006E-002    -9.7343551938745186E-024
  -2.8200000000000003E-002    -1.3001782672896262E-023
  -2.7349999999999999E-002    -1.4387275301078137E-023
  -2.6499999999999996E-002    -1.2242177382748971E-023
  -2.5650000000000006E-002    -4.9464717910469239E-024
  -2.4800000000000003E-002     8.5862130047754552E-024
  -2.3949999999999999E-002     2.8256849485493023E-023
  -2.3099999999999996E-002     5.2087619403262336E-023
  -2.2250000000000006E-002     7.5664738017638870E-023
  -2.1400000000000002E-002     9.1957639525636074E-023
  -2.0549999999999999E-002     9.1783156145825885E-023
  -1.9699999999999995E-002     6.5151212561827075E-023
  -1.8850000000000006E-002     3.6126822860891914E-024
  -1.8000000000000002E-002    -9.6482484061284802E-023
  -1.7149999999999999E-002    -2.3021058715567649E-022
  -1.6299999999999995E-002    -3.8053136735099742E-022
  -1.5450000000000005E-002    -5.1606544861769071E-022
  -1.4600000000000002E-002    -5.9150594838097477E-022
  -1.3749999999999998E-002    -5.5197100821344823E-022
  -1.2899999999999995E-002    -3.4224884155988906E-022
  -1.2050000000000005E-002     7.8898234659591538E-023
  -1.1200000000000002E-002     7.2042993352938851E-022
  -1.0349999999999998E-002     1.5393491687796682E-021
  -9.5000000000000084E-003     2.4239512883906091E-021
  -8.6500000000000049E-003     3.1857205636669899E-021
  -7.8000000000000014E-003     3.5662682674598510E-021
  -6.9499999999999978E-003     3.2651368626790077E-021
  -6.1000000000000082E-003     1.9920022264294775E-021
  -5.2500000000000047E-003    -4.5740854947763590E-022
  -4.4000000000000011E-003    -4.1084075263544526E-021
  -3.5499999999999976E-003    -8.7114243361474995E-021
  -2.7000000000000079E-003    -1.3664325273114325E-020
  -1.8500000000000044E-003    -1.7979861782170476E-020
  -1.0000000000000009E-003    -2.0327042315793587E-020
  -1.4999999999999736E-004    -1.9171386198979003E-020
   6.9999999999999230E-004    -1.3027729439472954E-020
   1.5499999999999958E-003    -8.1994052780282262E-022
   2.3999999999999994E-003     1.7684617113443530E-020
   3.2500000000000029E-003     4.1428830686901557E-020
   4.0999999999999925E-003     6.7700854708115530E-020
   4.9499999999999961E-003     9.1965972121382292E-020
   5.7999999999999996E-003     1.0801781869058831E-019
   6.6499999999999893E-003     1.0855485613650150E-019
   7.5000000000000067E-003     8.6242151627765642E-020
   8.3499999999999963E-003     3.5240704278979983E-020
   9.1999999999999860E-003    -4.6918045742783407E-020
   1.0050000000000003E-002    -1.5735723656916979E-019
   1.0899999999999993E-002    -2.8614303786071476E-019
   1.1750000000000010E-002    -4.1529281262372989E-019
   1.2600000000000000E-002    -5.1899486904199030E-019
   1.3449999999999990E-002    -5.6548180628128730E-019
   1.4300000000000007E-002    -5.2084203903360860E-019
   1.5149999999999997E-002    -3.5478314800633047E-019
   1.5999999999999986E-002    -4.7981832233813506E-020
   1.6850000000000004E-002     3.9978795343725725E-019
   1.7699999999999994E-002     9.6200897326200489E-019
   1.8549999999999983E-002     1.5798904267649069E-018
   1.9400000000000001E-002     2.1607834561398684E-018
   2.0249999999999990E-002     2.5822951320169235E-018
   2.1100000000000008E-002     2.7034196386818807E-018
   2.1949999999999997E-002     2.3831849859662340E-018
   2.2799999999999987E-002     1.5061063191407144E-018
   2.3650000000000004E-002     1.2273440039911635E-020
   2.4499999999999994E-002    -2.0716796234964419E-018
   2.5349999999999984E-002    -4.6058951257688880E-018
   2.6200000000000001E-002    -7.3210388543319628E-018
   2.7049999999999991E-002    -9.8188118701329037E-018
   2.7900000000000008E-002    -1.1594729442873789E-017
   2.8749999999999998E-002    -1.2086611362983701E-017
   2.9599999999999987E-002    -1.0748962262663445E-017
   3.0450000000000005E-002    -7.1491096621291792E-018
   3.1299999999999994E-002    -1.0760737667181082E-018
   3.2149999999999984E-002     7.3517247229516180E-018
   3.3000000000000002E-002     1.7597788938752113E-017
   3.3849999999999991E-002     2.8658011629967101E-017
   3.4700000000000009E-002     3.9069976056370107E-017
   3.5549999999999998E-002     4.6997115640092100E-017
   3.6399999999999988E-002     5.0396559886079888E-017
   3.7250000000000005E-002     4.7268856785466196E-017
   3.8099999999999995E-002     3.5974640523541497E-017
   3.8949999999999985E-002     1.5589035431200664E-017
   3.9800000000000002E-002    -1.3749040776658767E-017
   4.0649999999999992E-002    -5.0546002902066979E-017
   4.1500000000000009E-002    -9.1779785170780089E-017
   4.2349999999999999E-002    -1.3289935586704490E-016
   4.3199999999999988E-002    -1.6804313143837169E-016
   4.4050000000000006E-002    -1.9050129966947589E-016
   4.4899999999999995E-002    -1.9341884630085582E-016
   4.5749999999999985E-002    -1.7070105259414892E-016
   4.6600000000000003E-002    -1.1804653108736592E-016
   4.7449999999999992E-002    -3.3997586402705575E-017
   4.8299999999999982E-002     7.9129393567401850E-017
   4.9149999999999999E-002     2.1458499477191259E-016
   4.9999999999999989E-002     3.6094844879485262E-016
   5.0850000000000006E-002     5.0243490862608895E-016
   5.1699999999999996E-002     6.1982933985731969E-016
   5.2549999999999986E-002     6.9206516661271874E-016
   5.3400000000000003E-002     6.9838688011510010E-016
   5.4249999999999993E-002     6.2095327578448575E-016
   5.5099999999999982E-002     4.4765459908638671E-016
   5.5950000000000000E-002     1.7485180899204357E-016
   5.6799999999999989E-002    -1.9030102651925316E-016
   5.7650000000000007E-002    -6.2829889877706796E-016
   5.8499999999999996E-002    -1.1068135274747759E-015
   5.9349999999999986E-002    -1.5815596900820850E-015
   6.0200000000000004E-002    -1.9986461902272544E-015
   6.1049999999999993E-002    -2.2984187036049056E-015
   6.1899999999999983E-002    -2.4206483438991374E-015
   6.2750000000000000E-002    -2.3107511375028337E-015
   6.3599999999999990E-002    -1.9265821726783964E-015
   6.4450000000000007E-002    -1.2452149724868683E-015
   6.5299999999999997E-002    -2.6904896508118749E-016
   6.6149999999999987E-002     9.6945224464946334E-016
   6.7000000000000004E-002     2.4050421355081697E-015
   6.7849999999999994E-002     3.9395585510833473E-015
   6.8699999999999983E-002     5.4447863286153438E-015
   6.9550000000000001E-002     6.7685272838548209E-015
   7.0399999999999990E-002     7.7438572927423220E-015
   7.1249999999999980E-002     8.2012922667499577E-015
   7.2099999999999997E-002     7.9833250142266288E-015
   7.2949999999999987E-002     6.9605464830111875E-015
   7.3800000000000004E-002     5.0483354673269633E-015
   7.4649999999999994E-002     2.2229216684634239E-015
   7.5499999999999984E-002    -1.4645273781458225E-015
   7.6350000000000001E-002    -5.8772067761691105E-015
   7.7199999999999991E-002    -1.0786781870943830E-014
   7.8049999999999981E-002    -1.5873649035602554E-014
   7.8899999999999998E-002    -2.0734489221781267E-014
   7.9749999999999988E-002    -2.4897985990604505E-014
   8.0600000000000005E-002    -2.7849145025512606E-014
   8.1449999999999995E-002    -2.9062110781626082E-014
   8.2299999999999984E-002    -2.8040732771701086E-014
   8.3150000000000002E-002    -2.4365351791275383E-014
   8.3999999999999991E-002    -1.7743474561481595E-014
   8.4849999999999981E-002    -8.0611564990218023E-015
   8.5699999999999998E-002     4.5688525519069265E-015
   8.6549999999999988E-002     1.9766757500574329E-014
   8.7400000000000005E-002     3.6858146596970420E-014
   8.8249999999999995E-002     5.4864197756410608E-014
   8.9099999999999985E-002     7.2514330368059907E-014
   8.9950000000000002E-002     8.8285097329262339E-014
   9.0799999999999992E-002     1.0046772278561693E-013
   9.1649999999999981E-002     1.0726503354564034E-013
   9.2499999999999999E-002     1.0691585638656653E-013
   9.3349999999999989E-002     9.7842807525043461E-014
   9.4200000000000006E-002     7.8816251193425916E-014
   9.5049999999999996E-002     4.9124698942060712E-014
   9.5899999999999985E-002     8.7394808047344541E-015
   9.6750000000000003E-002    -4.1540311879271401E-014
   9.7599999999999992E-002    -9.9977820679290115E-014
   9.8449999999999982E-002    -1.6383848493127419E-013
   9.9299999999999999E-002    -2.2939411961167754E-013
  0.10014999999999999         -2.9200302906264027E-013
  0.10099999999999998         -3.4627361574276274E-013
  0.10185000000000000         -3.8631541625560197E-013
  0.10269999999999999         -4.0607450981926282E-013
  0.10355000000000000         -3.9974452980711596E-013
  0.10439999999999999         -3.6223681257034944E-013
  0.10524999999999998         -2.8968750432238551E-013
  0.10610000000000000         -1.7997229665522305E-013
  0.10694999999999999         -3.3194038455657192E-014
  0.10779999999999998          1.4789437147056552E-013
  0.10865000000000000          3.5757226174923035E-013
  0.10949999999999999          5.8697803347170086E-013
  0.11035000000000000          8.2411694609839340E-013
  0.11119999999999999          1.0540809554483849E-012
  0.11204999999999998          1.2595020358379453E-012
  0.11290000000000000          1.4212502738290148E-012
  0.11374999999999999          1.5193726612247211E-012
  0.11459999999999998          1.5342544887866962E-012
  0.11545000000000000          1.4479674767046154E-012
  0.11629999999999999          1.2457498911129049E-012
  0.11715000000000000          9.1755126440860353E-013
  0.11799999999999999          4.5955235568076448E-013
  0.11884999999999998         -1.2443437353515362E-013
  0.11970000000000000         -8.2179177577336701E-013
  0.12054999999999999         -1.6102633417131963E-012
  0.12139999999999998         -2.4575634448121973E-012
  0.12225000000000000         -3.3215320528688157E-012
  0.12309999999999999         -4.1509145496628241E-012
  0.12395000000000000         -4.8868267029768257E-012
  0.12479999999999999         -5.4649324612610491E-012
  0.12564999999999998         -5.8183233457700517E-012
  0.12650000000000000         -5.8810530119605635E-012
  0.12734999999999999         -5.5922244576942773E-012
  0.12819999999999998         -4.9004895910394259E-012
  0.12905000000000000         -3.7687745499709183E-012
  0.12989999999999999         -2.1789939567519935E-012
  0.13074999999999998         -1.3649457355455618E-013
  0.13159999999999999          2.3260739828957664E-012
  0.13245000000000001          5.1457557715473728E-012
  0.13329999999999997          8.2274704011325061E-012
  0.13414999999999999          1.1443658043525811E-011
  0.13500000000000001          1.4635651287579761E-011
  0.13584999999999997          1.7616968555586428E-011
  0.13669999999999999          2.0178659007884440E-011
  0.13755000000000001          2.2096728839017921E-011
  0.13839999999999997          2.3141601489500726E-011
  0.13924999999999998          2.3089419961459932E-011
  0.14010000000000000          2.1734872684132951E-011
  0.14094999999999996          1.8905156654658865E-011
  0.14179999999999998          1.4474484688016081E-011
  0.14265000000000000          8.3784918733372366E-012
  0.14350000000000002          6.2783155875030168E-013
  0.14434999999999998         -8.6799531552417060E-012
  0.14520000000000000         -1.9351012253386737E-011
  0.14605000000000001         -3.1089186837365030E-011
  0.14689999999999998         -4.3494184811874962E-011
  0.14774999999999999         -5.6064655315089455E-011
  0.14860000000000001         -6.8206774779952983E-011
  0.14944999999999997         -7.9248766834926225E-011
  0.15029999999999999         -8.8461491613815886E-011
  0.15115000000000001         -9.5085114393039742E-011
  0.15199999999999997         -9.8361434844500596E-011
  0.15284999999999999         -9.7571219813803258E-011
  0.15370000000000000         -9.2075553143900261E-011
  0.15454999999999997         -8.1359867299076261E-011
  0.15539999999999998         -6.5079095007829314E-011
  0.15625000000000000         -4.3102063042743234E-011
  0.15709999999999996         -1.5553063641165430E-011
  0.15794999999999998          1.7151699514631961E-011
  0.15880000000000000          5.4274869708778442E-011
  0.15965000000000001          9.4738285247031777E-011
  0.16049999999999998          1.3711496398089115E-010
  0.16134999999999999          1.7963468195437303E-010
  0.16220000000000001          2.2020450805901059E-010
  0.16304999999999997          2.5644573223161256E-010
  0.16389999999999999          2.8574749423988836E-010
  0.16475000000000001          3.0533748861158079E-010
  0.16559999999999997          3.1236877218201889E-010
  0.16644999999999999          3.0402224886794351E-010
  0.16730000000000000          2.7762224054400057E-010
  0.16814999999999997          2.3076344936650313E-010
  0.16899999999999998          1.6144610467806243E-010
  0.16985000000000000          6.8216481265682324E-011
  0.17069999999999996         -4.9691210638141291E-011
  0.17154999999999998         -1.9221420131607821E-010
  0.17240000000000000         -3.5832637785292331E-010
  0.17325000000000002         -5.4591137364368110E-010
  0.17409999999999998         -7.5164653797924044E-010
  0.17494999999999999         -9.7090007805165627E-010
  0.17580000000000001         -1.1976414660283838E-009
  0.17664999999999997         -1.4243655195356696E-009
  0.17749999999999999         -1.6420280221072462E-009
  0.17835000000000001         -1.8399898846095550E-009
  0.17919999999999997         -2.0059650760424493E-009
  0.18004999999999999         -2.1259678012886655E-009
  0.18090000000000001         -2.1842455704405321E-009
  0.18174999999999997         -2.1631952394461277E-009
  0.18259999999999998         -2.0432410487821122E-009
  0.18345000000000000         -1.8026720875163182E-009
  0.18429999999999996         -1.4174105531682243E-009
  0.18514999999999998         -8.6070659752098992E-010
  0.18600000000000000         -1.0272708650752670E-010
  0.18684999999999996          8.8996581703752457E-010
  0.18769999999999998          2.1550832200173127E-009
  0.18855000000000000          3.7354310901347067E-009
  0.18940000000000001          5.6799244791217522E-009
  0.19024999999999997          8.0448084049734288E-009
  0.19109999999999999          1.0895116058543263E-008
  0.19195000000000001          1.4306381129828583E-008
  0.19279999999999997          1.8366652725869189E-008
  0.19364999999999999          2.3178810343708531E-008
  0.19450000000000001          2.8863250266192576E-008
  0.19534999999999997          3.5560898821035915E-008
  0.19619999999999999          4.3436683099716856E-008
  0.19705000000000000          5.2683436727818357E-008
  0.19789999999999996          6.3526266083907899E-008
  0.19874999999999998          7.6227476840420946E-008
  0.19960000000000000          9.1092016507421226E-008
  0.20044999999999996          1.0847358532246661E-007
  0.20129999999999998          1.2878133422059262E-007
  0.20215000000000000          1.5248739496472366E-007
  0.20300000000000001          1.8013505493471915E-007
  0.20384999999999998          2.1234781026045306E-007
  0.20469999999999999          2.4983937630999313E-007
  0.20555000000000001          2.9342441477923533E-007
  0.20639999999999997          3.4403066545124306E-007
  0.20724999999999999          4.0271153116469325E-007
  0.20810000000000001          4.7066054459492775E-007
  0.20894999999999997          5.4922643598460321E-007
  0.20979999999999999          6.3992957355148052E-007
  0.21065000000000000          7.4447970456570016E-007
  0.21149999999999997          8.6479498350790856E-007
  0.21234999999999998          1.0030218506747228E-006
  0.21320000000000000          1.1615568054870212E-006
  0.21404999999999996          1.3430689420962243E-006
  0.21489999999999998          1.5505235686632109E-006
  0.21575000000000000          1.7872071997756482E-006
  0.21659999999999996          2.0567523044731578E-006
  0.21744999999999998          2.3631644477664564E-006
  0.21829999999999999          2.7108483869737291E-006
  0.21915000000000001          3.1046335620745773E-006
  0.21999999999999997          3.5498025671660870E-006
  0.22084999999999999          4.0521146304657729E-006
  0.22170000000000001          4.6178309851542787E-006
  0.22254999999999997          5.2537370042003379E-006
  0.22339999999999999          5.9671635052919141E-006
  0.22425000000000000          6.7660033893095139E-006
  0.22509999999999997          7.6587222048813951E-006
  0.22594999999999998          8.6543677097637054E-006
  0.22680000000000000          9.7625775075643943E-006
  0.22764999999999996          1.0993572710611375E-005
  0.22849999999999998          1.2358141189998245E-005
  0.22935000000000000          1.3867626267194218E-005
  0.23019999999999996          1.5533892683962187E-005
  0.23104999999999998          1.7369284450725841E-005
  0.23190000000000000          1.9386578661569217E-005
  0.23275000000000001          2.1598916756773650E-005
  0.23359999999999997          2.4019729662154077E-005
  0.23444999999999999          2.6662631501572270E-005
  0.23530000000000001          2.9541329597918396E-005
  0.23614999999999997          3.2669471164747844E-005
  0.23699999999999999          3.6060518019636820E-005
  0.23785000000000001          3.9727585174155356E-005
  0.23869999999999997          4.3683257157293230E-005
  0.23954999999999999          4.7939367407168955E-005
  0.24040000000000000          5.2506817735019911E-005
  0.24124999999999996          5.7395321367581894E-005
  0.24209999999999998          6.2613160108693019E-005
  0.24295000000000000          6.8166857766166199E-005
  0.24379999999999996          7.4061002072427294E-005
  0.24464999999999998          8.0297858373691198E-005
  0.24550000000000000          8.6877126487965245E-005
  0.24634999999999996          9.3795566196507762E-005
  0.24719999999999998          1.0104669076528939E-004
  0.24804999999999999          1.0862050845762106E-004
  0.24890000000000001          1.1650311802503397E-004
  0.24974999999999997          1.2467639400818255E-004
  0.25059999999999999          1.3311777187769195E-004
  0.25145000000000001          1.4179989433669356E-004
  0.25229999999999997          1.5069039948128468E-004
  0.25314999999999999          1.5975158796704324E-004
  0.25400000000000000          1.6894036403243033E-004
  0.25484999999999997          1.7820791398745993E-004
  0.25569999999999998          1.8749972341444411E-004
  0.25655000000000000          1.9675536574158096E-004
  0.25739999999999996          2.0590870416350608E-004
  0.25824999999999998          2.1488778186897438E-004
  0.25910000000000000          2.2361495856825981E-004
  0.25994999999999996          2.3200723077384150E-004
  0.26079999999999998          2.3997628300644915E-004
  0.26164999999999999          2.4742914260392137E-004
  0.26249999999999996          2.5426848224349637E-004
  0.26334999999999997          2.6039295885074378E-004
  0.26419999999999999          2.6569826807110983E-004
  0.26505000000000001          2.7007746708625636E-004
  0.26589999999999997          2.7342191869081920E-004
  0.26674999999999999          2.7562227341005610E-004
  0.26760000000000000          2.7656907244770978E-004
  0.26844999999999997          2.7615410483603631E-004
  0.26929999999999998          2.7427139838449903E-004
  0.27015000000000000          2.7081838925335756E-004
  0.27099999999999996          2.6569724080868139E-004
  0.27184999999999998          2.5881596507671794E-004
  0.27270000000000000          2.5008960534575930E-004
  0.27354999999999996          2.3944150652748620E-004
  0.27439999999999998          2.2680501462095739E-004
  0.27524999999999999          2.1212406907414701E-004
  0.27609999999999996          1.9535502808710263E-004
  0.27694999999999997          1.7646737696075287E-004
  0.27779999999999999          1.5544514909930055E-004
  0.27865000000000001          1.3228801193503580E-004
  0.27949999999999997          1.0701169050391163E-004
  0.28034999999999999          7.9649439114472075E-005
  0.28120000000000001          5.0251934970248206E-005
  0.28204999999999997          1.8888426357753186E-005
  0.28289999999999998         -1.4353276678054921E-005
  0.28375000000000000         -4.9366576755524444E-005
  0.28459999999999996         -8.6025950506032108E-005
  0.28544999999999998         -1.2418770051284575E-004
  0.28630000000000000         -1.6368950348223026E-004
  0.28714999999999996         -2.0435193117245113E-004
  0.28799999999999998         -2.4597892378543670E-004
  0.28885000000000000         -2.8835869174289095E-004
  0.28969999999999996         -3.3126526408566498E-004
  0.29054999999999997         -3.7445968519888342E-004
  0.29139999999999999         -4.1769193093570318E-004
  0.29224999999999995         -4.6070280222551671E-004
  0.29309999999999997         -5.0322532469584795E-004
  0.29394999999999999         -5.4498733900368507E-004
  0.29480000000000001         -5.8571365995933313E-004
  0.29564999999999997         -6.2512826105150005E-004
  0.29649999999999999         -6.6295708797284758E-004
  0.29735000000000000         -6.9892978680141009E-004
  0.29819999999999997         -7.3278286470918573E-004
  0.29904999999999998         -7.6426159509161414E-004
  0.29990000000000000         -7.9312265427358317E-004
  0.30074999999999996         -8.1913647226540629E-004
  0.30159999999999998         -8.4208936472023217E-004
  0.30245000000000000         -8.6178550369040677E-004
  0.30329999999999996         -8.7804898997755000E-004
  0.30414999999999998         -8.9072563871489291E-004
  0.30499999999999999         -8.9968435975033704E-004
  0.30584999999999996         -9.0481862639151076E-004
  0.30669999999999997         -9.0604756819487038E-004
  0.30754999999999999         -9.0331671211822554E-004
  0.30840000000000001         -8.9659822587668419E-004
  0.30924999999999997         -8.8589177588975141E-004
  0.31009999999999999         -8.7122420579535827E-004
  0.31095000000000000         -8.5264898438474073E-004
  0.31179999999999997         -8.3024634381907421E-004
  0.31264999999999998         -8.0412158655419278E-004
  0.31350000000000000         -7.7440465490651858E-004
  0.31434999999999996         -7.4124855656147086E-004
  0.31519999999999998         -7.0482776635557318E-004
  0.31605000000000000         -6.6533678606019327E-004
  0.31689999999999996         -6.2298761596284516E-004
  0.31774999999999998         -5.7800848242465141E-004
  0.31859999999999999         -5.3064094146123631E-004
  0.31944999999999996         -4.8113799836283535E-004
  0.32029999999999997         -4.2976171930164729E-004
  0.32114999999999999         -3.7678067406598565E-004
  0.32199999999999995         -3.2246783977341530E-004
  0.32284999999999997         -2.6709837532852261E-004
  0.32369999999999999         -2.1094694555880879E-004
  0.32455000000000001         -1.5428615904752472E-004
  0.32539999999999997         -9.7383890591873536E-005
  0.32624999999999998         -4.0501840394376238E-005
  0.32710000000000000          1.6106148891289358E-005
  0.32794999999999996          7.2196102061592181E-005
  0.32879999999999998          1.2753491304561617E-004
  0.32965000000000000          1.8190151760377580E-004
  0.33049999999999996          2.3508812350157978E-004
  0.33134999999999998          2.8690104479351590E-004
  0.33220000000000000          3.3716051258069163E-004
  0.33304999999999996          3.8570174190708417E-004
  0.33389999999999997          4.3237490598958968E-004
  0.33474999999999999          4.7704471393720149E-004
  0.33559999999999995          5.1959056048969741E-004
  0.33644999999999997          5.5990634556855043E-004
  0.33729999999999999          5.9789921332337507E-004
  0.33815000000000001          6.3348972972392397E-004
  0.33899999999999997          6.6661071169332893E-004
  0.33984999999999999          6.9720674316404660E-004
  0.34070000000000000          7.2523308250208322E-004
  0.34154999999999996          7.5065486525842167E-004
  0.34239999999999998          7.7344646123800494E-004
  0.34325000000000000          7.9359047766343132E-004
  0.34409999999999996          8.1107698017898538E-004