 -0.12000000000000000          0.0000000000000000     
 -0.11914999999999999          0.0000000000000000     
 -0.11830000000000000          0.0000000000000000     
 -0.11745000000000000          0.0000000000000000     
 -0.11660000000000000          0.0000000000000000     
 -0.11574999999999999          0.0000000000000000     
 -0.11490000000000000          0.0000000000000000     
 -0.11405000000000000          0.0000000000000000     
 -0.11320000000000000          0.0000000000000000     
 -0.11234999999999999          0.0000000000000000     
 -0.11150000000000000          0.0000000000000000     
 -0.11065000000000000          0.0000000000000000     
 -0.10979999999999999          1.9188431308521727E-039
 -0.10894999999999999          1.6898921616267508E-038
 -0.10810000000000000          9.3556257823155290E-038
 -0.10725000000000000          3.7380199718617841E-037
 -0.10639999999999999          1.1441170239211745E-036
 -0.10554999999999999          2.6130318676354989E-036
 -0.10470000000000000          3.8101321923596135E-036
 -0.10385000000000000          9.1261941866430357E-038
 -0.10299999999999999         -2.0200386174490932E-035
 -0.10214999999999999         -7.5148430547187104E-035
 -0.10130000000000000         -1.7338689713591439E-034
 -0.10045000000000000         -2.6767638301695017E-034
  -9.9599999999999994E-002    -1.7507122166841453E-034
  -9.8750000000000004E-002     4.9172100031314622E-034
  -9.7900000000000001E-002     2.2487619933793150E-033
  -9.7049999999999997E-002     5.2988427544885613E-033
  -9.6199999999999994E-002     8.5307756939903266E-033
  -9.5349999999999990E-002     8.1071956685861046E-033
  -9.4500000000000001E-002    -3.4138427024976226E-033
  -9.3649999999999997E-002    -3.5356753733686282E-032
  -9.2799999999999994E-002    -9.1817645630632758E-032
  -9.1950000000000004E-002    -1.5749458747737093E-031
  -9.1100000000000000E-002    -1.7947025077181664E-031
  -9.0249999999999997E-002    -5.6893625657388680E-032
  -8.9399999999999993E-002     3.3876358000692926E-031
  -8.8549999999999990E-002     1.0852527667756241E-030
  -8.7700000000000000E-002     2.0586277973117391E-030
  -8.6849999999999997E-002     2.7400391492936737E-030
  -8.5999999999999993E-002     2.0883461992698292E-030
  -8.5150000000000003E-002    -1.3244805649351864E-030
  -8.4300000000000000E-002    -8.6770983987287279E-030
  -8.3449999999999996E-002    -1.9620452584918646E-029
  -8.2600000000000007E-002    -3.0538903588668750E-029
  -8.1749999999999989E-002    -3.3098160509751493E-029
  -8.0900000000000000E-002    -1.4494574803137231E-029
  -8.0049999999999996E-002     3.8777392017461455E-029
  -7.9199999999999993E-002     1.3225069732776419E-028
  -7.8350000000000003E-002     2.5035351131166593E-028
  -7.7499999999999999E-002     3.4273849736234204E-028
  -7.6649999999999996E-002     3.1846712452188881E-028
  -7.5800000000000006E-002     6.0053223099434445E-029
  -7.4949999999999989E-002    -5.3098685403348458E-028
  -7.4099999999999999E-002    -1.4532898818998624E-027
  -7.3249999999999996E-002    -2.5033225328049972E-027
  -7.2399999999999992E-002    -3.1912474729825481E-027
  -7.1550000000000002E-002    -2.7411607080182909E-027
  -7.0699999999999999E-002    -2.5459324957323513E-028
  -6.9849999999999995E-002     4.9039203480685671E-027
  -6.9000000000000006E-002     1.2510037385479077E-026
  -6.8149999999999988E-002     2.0805418117612619E-026
  -6.7299999999999999E-002     2.6035152336986334E-026
  -6.6449999999999995E-002     2.2618339548965483E-026
  -6.5599999999999992E-002     4.3981733334309369E-027
  -6.4750000000000002E-002    -3.2761335905944449E-026
  -6.3899999999999998E-002    -8.7215102856124647E-026
  -6.3049999999999995E-002    -1.4750347583884931E-025
  -6.2199999999999998E-002    -1.8975238613555789E-025
  -6.1350000000000002E-002    -1.7883782414284912E-025
  -6.0499999999999998E-002    -7.5650985830808844E-026
  -5.9650000000000002E-002     1.4824830042169312E-025
  -5.8799999999999998E-002     4.8966504084406094E-025
  -5.7950000000000002E-002     8.9110212729211268E-025
  -5.7099999999999998E-002     1.2249728974378817E-024
  -5.6249999999999994E-002     1.2962690151762000E-024
  -5.5400000000000005E-002     8.7540754237063124E-025
  -5.4550000000000001E-002    -2.3160470120890483E-025
  -5.3699999999999998E-002    -2.0789786000971687E-024
  -5.2849999999999994E-002    -4.4619377454866172E-024
  -5.2000000000000005E-002    -6.8195970523660394E-024
  -5.1150000000000001E-002    -8.2118707034964777E-024
  -5.0299999999999997E-002    -7.4264502669768665E-024
  -4.9449999999999994E-002    -3.2573942279857844E-024
  -4.8600000000000004E-002     5.0414656460107953E-024
  -4.7750000000000001E-002     1.7186865886162976E-023
  -4.6899999999999997E-002     3.1314934903217177E-023
  -4.6049999999999994E-002     4.3654836780064623E-023
  -4.5200000000000004E-002     4.8673598920859827E-023
  -4.4350000000000001E-002     3.9916148322667874E-023
  -4.3499999999999997E-002     1.1654914023511772E-023
  -4.2649999999999993E-002    -3.8742922223602456E-023
  -4.1800000000000004E-002    -1.0810787459641866E-022
  -4.0950000000000000E-002    -1.8511084488814048E-022
  -4.0099999999999997E-002    -2.4920301028394755E-022
  -3.9249999999999993E-002    -2.7189250252426528E-022
  -3.8400000000000004E-002    -2.2121719913714388E-022
  -3.7550000000000000E-002    -6.9743190146211942E-023
  -3.6699999999999997E-002     1.9447256200238641E-022
  -3.5850000000000007E-002     5.5568159436390083E-022
  -3.5000000000000003E-002     9.5996355717117410E-022
  -3.4150000000000000E-002     1.3104092538825002E-021
  -3.3299999999999996E-002     1.4722558829016509E-021
  -3.2450000000000007E-002     1.2915820864623083E-021
  -3.1600000000000003E-002     6.2916872496723285E-022
  -3.0750000000000000E-002    -5.9225590762478143E-022
  -2.9899999999999996E-002    -2.3336840803382059E-021
  -2.9050000000000006E-002    -4.3896735275192993E-021
  -2.8200000000000003E-002    -6.3579882537259427E-021
  -2.7349999999999999E-002    -7.6469451405320119E-021
  -2.6499999999999996E-002    -7.5371379570168147E-021
  -2.5650000000000006E-002    -5.3080459162252677E-021
  -2.4800000000000003E-002    -4.2832803449336133E-022
  -2.3949999999999999E-002     7.2083199616413881E-021
  -2.3099999999999996E-002     1.7040159215032485E-020
  -2.2250000000000006E-002     2.7645746982409854E-020
  -2.1400000000000002E-002     3.6677018838176042E-020
  -2.0549999999999999E-002     4.0993949883626270E-020
  -1.9699999999999995E-002     3.7063781090091797E-020
  -1.8850000000000006E-002     2.1651767435112547E-020
  -1.8000000000000002E-002    -7.2287420392035767E-021
  -1.7149999999999999E-002    -4.9217455033117167E-020
  -1.6299999999999995E-002    -1.0055759418077450E-019
  -1.5450000000000005E-002    -1.5337231368283953E-019
  -1.4600000000000002E-002    -1.9559190227344103E-019
  -1.3749999999999998E-002    -2.1184755807647867E-019
  -1.2899999999999995E-002    -1.8556009945956131E-019
  -1.2050000000000005E-002    -1.0227147222735046E-019
  -1.1200000000000002E-002     4.6001659771211032E-020
  -1.0349999999999998E-002     2.5594800959031432E-019
  -9.5000000000000084E-003     5.0857604890913683E-019
  -8.6500000000000049E-003     7.6645009459638417E-019
  -7.8000000000000014E-003     9.7386774093132805E-019
  -6.9499999999999978E-003     1.0611898052766887E-018
  -6.1000000000000082E-003     9.5410802697518025E-019
  -5.2500000000000047E-003     5.8786992814036990E-019
  -4.4000000000000011E-003    -7.4595147395177199E-020
  -3.5499999999999976E-003    -1.0229648026566011E-018
  -2.7000000000000079E-003    -2.1817896100688557E-018
  -1.8500000000000044E-003    -3.3992603114576974E-018
  -1.0000000000000009E-003    -4.4473608251895779E-018
  -1.4999999999999736E-004    -5.0377803199102011E-018
   6.9999999999999230E-004    -4.8563491388632815E-018
   1.5499999999999958E-003    -3.6160281699623431E-018
   2.3999999999999994E-003    -1.1247659960094878E-018
   3.2500000000000029E-003     2.6397033882225448E-018
   4.0999999999999925E-003     7.4602439389791329E-018
   4.9499999999999961E-003     1.2831176681267343E-017
   5.7999999999999996E-003     1.7946267890340068E-017
   6.6499999999999893E-003     2.1739107878599118E-017
   7.5000000000000067E-003     2.2986457367975945E-017
   8.3499999999999963E-003     2.0476921967359195E-017
   9.1999999999999860E-003     1.3236211432535905E-017
   1.0050000000000003E-002     7.8708710730588896E-019
   1.0899999999999993E-002    -1.6591059085723852E-017
   1.1750000000000010E-002    -3.7648979117153009E-017
   1.2600000000000000E-002    -6.0052952867524153E-017
   1.3449999999999990E-002    -8.0419928590454690E-017
   1.4300000000000007E-002    -9.4543362673264857E-017
   1.5149999999999997E-002    -9.7830801424158186E-017
   1.5999999999999986E-002    -8.5944610704892460E-017
   1.6850000000000004E-002    -5.5601155408883538E-017
   1.7699999999999994E-002    -5.4446342895351788E-018
   1.8549999999999983E-002     6.3124306663723320E-017
   1.9400000000000001E-002     1.4531173908443615E-016
   2.0249999999999990E-002     2.3264175519417584E-016
   2.1100000000000008E-002     3.1316060544138107E-016
   2.1949999999999997E-002     3.7223947580618213E-016
   2.2799999999999987E-002     3.9401816556149238E-016
   2.3650000000000004E-002     3.6344322371859521E-016
   2.4499999999999994E-002     2.6875303797354198E-016
   2.5349999999999984E-002     1.0415595524628956E-016
   2.6200000000000001E-002    -1.2764379702832147E-016
   2.7049999999999991E-002    -4.1347962152664803E-016
   2.7900000000000008E-002    -7.2874162260104656E-016
   2.8749999999999998E-002    -1.0377631763683141E-015
   2.9599999999999987E-002    -1.2958534758503553E-015
   3.0450000000000005E-002    -1.4530839709799921E-015
   3.1299999999999994E-002    -1.4597177738229008E-015
   3.2149999999999984E-002    -1.2729204123563860E-015
   3.3000000000000002E-002    -8.6414231204196789E-016
   3.3849999999999991E-002    -2.2634517448808548E-016
   3.4700000000000009E-002     6.1990310043984193E-016
   3.5549999999999998E-002     1.6224773580329102E-015
   3.6399999999999988E-002     2.6968330468115563E-015
   3.7250000000000005E-002     3.7289544944876861E-015
   3.8099999999999995E-002     4.5825014147639929E-015
   3.8949999999999985E-002     5.1101035053083579E-015
   3.9800000000000002E-002     5.1682409664246958E-015
   4.0649999999999992E-002     4.6346584073237268E-015
   4.1500000000000009E-002     3.4267759992341178E-015
   4.2349999999999999E-002     1.5192407791481226E-015
   4.3199999999999988E-002    -1.0414530287394553E-015
   4.4050000000000006E-002    -4.1273201021005364E-015
   4.4899999999999995E-002    -7.5260379652726271E-015
   4.5749999999999985E-002    -1.0946298681908129E-014
   4.6600000000000003E-002    -1.4032115188318858E-014
   4.7449999999999992E-002    -1.6386104065124249E-014
   4.8299999999999982E-002    -1.7600912617023093E-014
   4.9149999999999999E-002    -1.7297089721829548E-014
   4.9999999999999989E-002    -1.5164958395405143E-014
   5.0850000000000006E-002    -1.1007309606601780E-014
   5.1699999999999996E-002    -4.7793216854499578E-015
   5.2549999999999986E-002     3.3781785633599103E-015
   5.3400000000000003E-002     1.3115952409965255E-014
   5.4249999999999993E-002     2.3867689784785804E-014
   5.5099999999999982E-002     3.4858328110461038E-014
   5.5950000000000000E-002     4.5131526058060405E-014
   5.6799999999999989E-002     5.3597192028557535E-014
   5.7650000000000007E-002     5.9098681648736161E-014
   5.8499999999999996E-002     6.0497838050347973E-014
   5.9349999999999986E-002     5.6774173532599592E-014
   6.0200000000000004E-002     4.7133182317637202E-014
   6.1049999999999993E-002     3.1116913819264940E-014
   6.1899999999999983E-002     8.7086838540709359E-015
   6.2750000000000000E-002    -1.9577216051708286E-014
   6.3599999999999990E-002    -5.2630548967029623E-014
   6.4450000000000007E-002    -8.8714847165763468E-014
   6.5299999999999997E-002    -1.2548039737514568E-013
   6.6149999999999987E-002    -1.6002845784721328E-013
   6.7000000000000004E-002    -1.8903109912166854E-013
   6.7849999999999994E-002    -2.0890855596418766E-013
   6.8699999999999983E-002    -2.1606140874512624E-013
   6.9550000000000001E-002    -2.0715016990773482E-013
   7.0399999999999990E-002    -1.7940964247346113E-013
   7.1249999999999980E-002    -1.3098047805582883E-013
   7.2099999999999997E-002    -6.1235606955122765E-014
   7.2949999999999987E-002     2.8925111652020106E-014
   7.3800000000000004E-002     1.3683980141696739E-013
   7.4649999999999994E-002     2.5793874905351473E-013
   7.5499999999999984E-002     3.8571514856362179E-013
   7.6350000000000001E-002     5.1183466754850463E-013
   7.7199999999999991E-002     6.2640180689382629E-013
   7.8049999999999981E-002     7.1838928622719504E-013
   7.8899999999999998E-002     7.7622878045362411E-013
   7.9749999999999988E-002     7.8854715631279917E-013
   8.0600000000000005E-002     7.4502039973444980E-013
   8.1449999999999995E-002     6.3730538074977686E-013
   8.2299999999999984E-002     4.5999772539838517E-013
   8.3150000000000002E-002     2.1155496258044960E-013
   8.3999999999999991E-002    -1.0488237338991183E-013
   8.4849999999999981E-002    -4.8084435725596925E-013
   8.5699999999999998E-002    -9.0212823954378730E-013
   8.6549999999999988E-002    -1.3487062222194213E-012
   8.7400000000000005E-002    -1.7949998105847411E-012
   8.8249999999999995E-002    -2.2105634268107224E-012
   8.9099999999999985E-002    -2.5612006288884609E-012
   8.9950000000000002E-002    -2.8105179255445737E-012
   9.0799999999999992E-002    -2.9218865191797575E-012
   9.1649999999999981E-002    -2.8607623135813688E-012
   9.2499999999999999E-002    -2.5972744424156646E-012
   9.3349999999999989E-002    -2.1089692417304614E-012
   9.4200000000000006E-002    -1.3835632431699621E-012
   9.5049999999999996E-002    -4.2154025381166662E-013
   9.5899999999999985E-002     7.6160552950275753E-013
   9.6750000000000003E-002     2.1336660802177381E-012
   9.7599999999999992E-002     3.6447615766656538E-012
   9.8449999999999982E-002     5.2272924065010550E-012
   9.9299999999999999E-002     6.7969685358031717E-012
  0.10014999999999999          8.2550053442253065E-012
  0.10099999999999998          9.4915541144535383E-012
  0.10185000000000000          1.0390327758878626E-011
  0.10269999999999999          1.0834347187259194E-011
  0.10355000000000000          1.0712623141169346E-011
  0.10439999999999999          9.9275188393863056E-012
  0.10524999999999998          8.4024826585881703E-012
  0.10610000000000000          6.0897318722784558E-012
  0.10694999999999999          2.9774863874401999E-012
  0.10779999999999998         -9.0373323999592710E-013
  0.10865000000000000         -5.4762051247124265E-012
  0.10949999999999999         -1.0611924117453600E-011
  0.11035000000000000         -1.6131795002451191E-011
  0.11119999999999999         -2.1807341672364904E-011
  0.11204999999999998         -2.7365199776683071E-011
  0.11290000000000000         -3.2494525790383816E-011
  0.11374999999999999         -3.6857241648804205E-011
  0.11459999999999998         -4.0100990902676462E-011
  0.11545000000000000         -4.1874462883613934E-011
  0.11629999999999999         -4.1844669484235888E-011
  0.11715000000000000         -3.9715534113033404E-011
  0.11799999999999999         -3.5247157325324902E-011
  0.11884999999999998         -2.8274835693291510E-011
  0.11970000000000000         -1.8727135652555622E-011
  0.12054999999999999         -6.6419617238290643E-012
  0.12139999999999998          7.8202409648851833E-012
  0.12225000000000000          2.4366975976937896E-011
  0.12309999999999999          4.2568718115625230E-011
  0.12395000000000000          6.1859374662845074E-011
  0.12479999999999999          8.1542281718840220E-011
  0.12564999999999998          1.0080282682929465E-010
  0.12650000000000000          1.1872722838661382E-010
  0.12734999999999999          1.3432800685009578E-010
  0.12819999999999998          1.4657532142719658E-010
  0.12905000000000000          1.5443477171982247E-010
  0.12989999999999999          1.5690973035229267E-010
  0.13074999999999998          1.5308848723833188E-010
  0.13159999999999999          1.4219404772416759E-010
  0.13245000000000001          1.2363638208660030E-010
  0.13329999999999997          9.7065022545260841E-011
  0.13414999999999999          6.2421103611723379E-011
  0.13500000000000001          1.9986889837775511E-011
  0.13584999999999997         -2.9567895164848218E-011
  0.13669999999999999         -8.5145241875275476E-011
  0.13755000000000001         -1.4518311225141038E-010
  0.13839999999999997         -2.0762704529327193E-010
  0.13924999999999998         -2.6990882994765013E-010
  0.14010000000000000         -3.2893163510272463E-010
  0.14094999999999996         -3.8106368990365065E-010
  0.14179999999999998         -4.2213518688937927E-010
  0.14265000000000000         -4.4744195492010219E-010
  0.14350000000000002         -4.5174760507493905E-010
  0.14434999999999998         -4.2928548800178832E-010
  0.14520000000000000         -3.7375340121496053E-010
  0.14605000000000001         -2.7830459968908388E-010
  0.14689999999999998         -1.3551292980596918E-010
  0.14774999999999999          6.2667084294531873E-011
  0.14860000000000001          3.2498584687163689E-010
  0.14944999999999997          6.6100598607960199E-010
  0.15029999999999999          1.0812568872835497E-009
  0.15115000000000001          1.5974200887171068E-009
  0.15199999999999997          2.2225994230014725E-009
  0.15284999999999999          2.9716227257761892E-009
  0.15370000000000000          3.8614122913829466E-009
  0.15454999999999997          4.9114967661701704E-009
  0.15539999999999998          6.1444849939108466E-009
  0.15625000000000000          7.5867621762482191E-009
  0.15709999999999996          9.2691666360296171E-009
  0.15794999999999998          1.1227859676566459E-008
  0.15880000000000000          1.3505255634396012E-008
  0.15965000000000001          1.6151063260335295E-008
  0.16049999999999998          1.9223507203181451E-008
  0.16134999999999999          2.2790617238586532E-008
  0.16220000000000001          2.6931766140956868E-008
  0.16304999999999997          3.1739158205965909E-008
  0.16389999999999999          3.7319724088082887E-008
  0.16475000000000001          4.3797146417551885E-008
  0.16559999999999997          5.1313981406210124E-008
  0.16644999999999999          6.0033940745717061E-008
  0.16730000000000000          7.0144894065505011E-008
  0.16814999999999997          8.1861318238648181E-008
  0.16899999999999998          9.5427615450756424E-008
  0.16985000000000000          1.1112202002327451E-007
  0.17069999999999996          1.2925978323444508E-007
  0.17154999999999998          1.5019775155420376E-007
  0.17240000000000000          1.7433870429195581E-007
  0.17325000000000002          2.0213640804072405E-007
  0.17409999999999998          2.3410108063000909E-007
  0.17494999999999999          2.7080437197298176E-007
  0.17580000000000001          3.1288639369174966E-007
  0.17664999999999997          3.6106209983127345E-007
  0.17749999999999999          4.1612804378472245E-007
  0.17835000000000001          4.7896973218357924E-007
  0.17919999999999997          5.5056931486815386E-007
  0.18004999999999999          6.3201350239678084E-007
  0.18090000000000001          7.2450069776284369E-007
  0.18174999999999997          8.2935192334595455E-007
  0.18259999999999998          9.4801762177395893E-007
  0.18345000000000000          1.0820838666030675E-006
  0.18429999999999996          1.2332841770926732E-006
  0.18514999999999998          1.4035031811000043E-006
  0.18600000000000000          1.5947877764670693E-006
  0.18684999999999996          1.8093528694656670E-006
  0.18769999999999998          2.0495856674940333E-006
  0.18855000000000000          2.3180471160054514E-006
  0.18940000000000001          2.6174785042874041E-006
  0.19024999999999997          2.9508072499061585E-006
  0.19109999999999999          3.3211325897543487E-006
  0.19195000000000001          3.7317327855103823E-006
  0.19279999999999997          4.1860559182638381E-006
  0.19364999999999999          4.6877105771520091E-006
  0.19450000000000001          5.2404522496172218E-006
  0.19534999999999997          5.8481719994515625E-006
  0.19619999999999999          6.5148699767550837E-006
  0.19705000000000000          7.2446370556144126E-006
  0.19789999999999996          8.0416298901174818E-006
  0.19874999999999998          8.9100126830221886E-006
  0.19960000000000000          9.8539401858441956E-006
  0.20044999999999996          1.0877522296480423E-005
  0.20129999999999998          1.1984728090244117E-005
  0.20215000000000000          1.3179386226983738E-005
  0.20300000000000001          1.4465089929291469E-005
  0.20384999999999998          1.5845109200675956E-005
  0.20469999999999999          1.7322390490494463E-005
  0.20555000000000001          1.8899411050869689E-005
  0.20639999999999997          2.0578105076439379E-005
  0.20724999999999999          2.2359807012243239E-005
  0.20810000000000001          2.4245115272771847E-005
  0.20894999999999997          2.6233846624165689E-005
  0.20979999999999999          2.8324877561832787E-005
  0.21065000000000000          3.0516109062780058E-005
  0.21149999999999997          3.2804351802231281E-005
  0.21234999999999998          3.5185212866354395E-005
  0.21320000000000000          3.7652988918273345E-005
  0.21404999999999996          4.0200543746736183E-005
  0.21489999999999998          4.2819359464291928E-005
  0.21575000000000000          4.5499340767794115E-005
  0.21659999999999996          4.8228826098744308E-005
  0.21744999999999998          5.0994387707455137E-005
  0.21829999999999999          5.3780948136371258E-005
  0.21915000000000001          5.6571654607084492E-005
  0.21999999999999997          5.9347865211590577E-005
  0.22084999999999999          6.2089236345285934E-005
  0.22170000000000001          6.4773630321360046E-005
  0.22254999999999997          6.7377308696509112E-005
  0.22339999999999999          6.9874877533451736E-005
  0.22425000000000000          7.2239429432702611E-005
  0.22509999999999997          7.4442717942097079E-005
  0.22594999999999998          7.6455162130247635E-005
  0.22680000000000000          7.8246312195787704E-005
  0.22764999999999996          7.9784641233819604E-005
  0.22849999999999998          8.1038387115129278E-005
  0.22935000000000000          8.1974982229698223E-005
  0.23019999999999996          8.2562010012715632E-005
  0.23104999999999998          8.2767104651498732E-005
  0.23190000000000000          8.2558641109123951E-005
  0.23275000000000001          8.1905743862903087E-005
  0.23359999999999997          8.0778948935217816E-005
  0.23444999999999999          7.9150227135662193E-005
  0.23530000000000001          7.6993640047863491E-005
  0.23614999999999997          7.4285871497461800E-005
  0.23699999999999999          7.1006202173448099E-005
  0.23785000000000001          6.7137328689113177E-005
  0.23869999999999997          6.2665345054600477E-005
  0.23954999999999999          5.7580560063155752E-005
  0.24040000000000000          5.1877464987245490E-005
  0.24124999999999996          4.5555001395205125E-005
  0.24209999999999998          3.8617289699651800E-005
  0.24295000000000000          3.1073375731338694E-005
  0.24379999999999996          2.2937905488910808E-005
  0.24464999999999998          1.4231025305590617E-005
  0.24550000000000000          4.9783526857747690E-006
  0.24634999999999996         -4.7883075818470184E-006
  0.24719999999999998         -1.5031545020169755E-005
  0.24804999999999999         -2.5708557698727713E-005
  0.24890000000000001         -3.6770839219661790E-005
  0.24974999999999997         -4.8164445641241880E-005
  0.25059999999999999         -5.9830250522964530E-005
  0.25145000000000001         -7.1704623294644430E-005
  0.25229999999999997         -8.3719299794055130E-005
  0.25314999999999999         -9.5802223811668527E-005
  0.25400000000000000         -1.0787746313926697E-004
  0.25484999999999997         -1.1986666627769824E-004
  0.25569999999999998         -1.3168908168985263E-004
  0.25655000000000000         -1.4326230348405485E-004
  0.25739999999999996         -1.5450313782343570E-004
  0.25824999999999998         -1.6532806531155533E-004
  0.25910000000000000         -1.7565455920610020E-004
  0.25994999999999996         -1.8540130775869876E-004
  0.26079999999999998         -1.9448887300643273E-004
  0.26164999999999999         -2.0284141267092994E-004
  0.26249999999999996         -2.1038649744836406E-004
  0.26334999999999997         -2.1705622423593123E-004
  0.26419999999999999         -2.2278809471946095E-004
  0.26505000000000001         -2.2752546006812695E-004
  0.26589999999999997         -2.3121827542651151E-004
  0.26674999999999999         -2.3382373120410993E-004
  0.26760000000000000         -2.3530671664142845E-004
  0.26844999999999997         -2.3564022205369584E-004
  0.26929999999999998         -2.3480588220262062E-004
  0.27015000000000000         -2.3279404524807339E-004
  0.27099999999999996         -2.2960414840272740E-004
  0.27184999999999998         -2.2524486114834110E-004
  0.27270000000000000         -2.1973363437576292E-004
  0.27354999999999996         -2.1309740237319296E-004
  0.27439999999999998         -2.0537167971938967E-004
  0.27524999999999999         -1.9660067996785018E-004
  0.27609999999999996         -1.8683712299322203E-004
  0.27694999999999997         -1.7614118504764745E-004
  0.27779999999999999         -1.6458030813123992E-004
  0.27865000000000001         -1.5222885993222788E-004
  0.27949999999999997         -1.3916706781884214E-004
  0.28034999999999999         -1.2548019806563922E-004
  0.28120000000000001         -1.1125810047957954E-004
  0.28204999999999997         -9.6594432428746406E-005
  0.28289999999999998         -8.1585334544723005E-005
  0.28375000000000000         -6.6328561336752545E-005
  0.28459999999999996         -5.0923084179766090E-005
  0.28544999999999998         -3.5468294166829438E-005
  0.28630000000000000         -2.0061913462950893E-005
  0.28714999999999996         -4.8007058886546047E-006
  0.28799999999999998          1.0221696908287097E-005
  0.28885000000000000          2.4914437435422831E-005
  0.28969999999999996          3.9191625366131734E-005
  0.29054999999999997          5.2971547607724443E-005
  0.29139999999999999          6.6178525894078030E-005
  0.29224999999999995          7.8742574857677545E-005
  0.29309999999999997          9.0600196209168114E-005
  0.29394999999999999          1.0169542788197607E-004
  0.29480000000000001          1.1197916827846750E-004
  0.29564999999999997          1.2140996550984143E-004
  0.29649999999999999          1.2995399217162950E-004
  0.29735000000000000          1.3758557834476606E-004
  0.29819999999999997          1.4428697948283052E-004
  0.29904999999999998          1.5004712533090407E-004
  0.29990000000000000          1.5486365696867102E-004
  0.30074999999999996          1.5874101816696753E-004
  0.30159999999999998          1.6169107022341101E-004
  0.30245000000000000          1.6373193027188675E-004
  0.30329999999999996          1.6488838315684772E-004
  0.30414999999999998          1.6519080831141740E-004
  0.30499999999999999          1.6467490126887300E-004
  0.30584999999999996          1.6338127992408593E-004
  0.30669999999999997          1.6135450731444778E-004
  0.30754999999999999          1.5864285063968317E-004
  0.30840000000000001          1.5529752247607108E-004
  0.30924999999999997          1.5137220362464136E-004
  0.31009999999999999          1.4692243196621336E-004
  0.31095000000000000          1.4200490132884909E-004
  0.31179999999999997          1.3667702101710698E-004
  0.31264999999999998          1.3099636776077483E-004
  0.31350000000000000          1.2501999133483709E-004
  0.31434999999999996          1.1880423169623224E-004
  0.31519999999999998          1.1240396463132656E-004
  0.31605000000000000          1.0587236922568408E-004
  0.31689999999999996          9.9260568431526372E-005
  0.31774999999999998          9.2617144224236555E-005
  0.31859999999999999          8.5988038868356278E-005
  0.31944999999999996          7.9416271897829880E-005
  0.32029999999999997          7.2941716959143521E-005
  0.32114999999999999          6.6601047083579041E-005
  0.32199999999999995          6.0427583291764657E-005
  0.32284999999999997          5.4451299537974161E-005
  0.32369999999999999          4.8698784934918536E-005
  0.32455000000000001          4.3193203719932313E-005
  0.32539999999999997          3.7954410454826712E-005
  0.32624999999999998          3.2999006139532324E-005
  0.32710000000000000          2.8340444426274824E-005
  0.32794999999999996          2.3989124607646453E-005
  0.32879999999999998          1.9952573739778429E-005
  0.32965000000000000          1.6235635888348521E-005
  0.33049999999999996          1.2840605684978696E-005
  0.33134999999999998          9.7676257545813690E-006
  0.33220000000000000          7.0144681708251726E-006
  0.33304999999999996          4.5771538423729114E-006
  0.33389999999999997          2.4500164324030087E-006
  0.33474999999999999          6.2573332557897526E-007
  0.33559999999999995         -9.0447556021691989E-007
  0.33644999999999997         -2.1504814571086726E-006
  0.33729999999999999         -3.1232674892555383E-006
  0.33815000000000001         -3.8346292006766147E-006
  0.33899999999999997         -4.2974168905113341E-006
  0.33984999999999999         -4.5250585560034264E-006
  0.34070000000000000         -4.5316035932769202E-006
  0.34154999999999996         -4.3314688719648504E-006
  0.34239999999999998         -3.9394020700781837E-006