  -4.0000000000000001E-002     0.0000000000000000
  -3.9899999999999998E-002     0.0000000000000000
  -3.9800000000000002E-002     0.0000000000000000
  -3.9699999999999999E-002    -3.9523735224077929E-017
  -3.9600000000000003E-002    -3.4590210351640978E-016
  -3.9500000000000000E-002    -1.6303973924788103E-015
  -3.9399999999999998E-002    -5.5242112391386180E-015
  -3.9300000000000002E-002    -1.5092654976809304E-014
  -3.9199999999999999E-002    -3.5318143266731272E-014
  -3.9100000000000003E-002    -7.3414784993418303E-014
  -3.9000000000000000E-002    -1.3884139877292506E-013
  -3.8900000000000004E-002    -2.4292400773243128E-013
  -3.8800000000000001E-002    -3.9808569851987330E-013
  -3.8699999999999998E-002    -6.1680706115591066E-013
  -3.8600000000000002E-002    -9.1059115542996283E-013
  -3.8500000000000000E-002    -1.2893618464571155E-012
  -3.8400000000000004E-002    -1.7618604058328158E-012
  -3.8300000000000001E-002    -2.3376875522146401E-012
  -3.8199999999999998E-002    -3.0316367905652841E-012
  -3.8100000000000002E-002    -3.8708541580390055E-012
  -3.7999999999999999E-002    -4.9051184121406965E-012
  -3.7900000000000003E-002    -6.2201446250631509E-012
  -3.7800000000000000E-002    -7.9533012120602820E-012
  -3.7699999999999997E-002    -1.0310498115007061E-011
  -3.7600000000000001E-002    -1.3582306286619161E-011
  -3.7499999999999999E-002    -1.8156660203105801E-011
  -3.7400000000000003E-002    -2.4524876920950511E-011
  -3.7300000000000000E-002    -3.3277273298049082E-011
  -3.7200000000000004E-002    -4.5084429245445534E-011
  -3.7100000000000001E-002    -6.0660337863893687E-011
  -3.6999999999999998E-002    -8.0704262717112840E-011
  -3.6900000000000002E-002    -1.0581926307429157E-010
  -3.6799999999999999E-002    -1.3640691354233070E-010
  -3.6700000000000003E-002    -1.7253996842381270E-010
  -3.6600000000000001E-002    -2.1381724168989535E-010
  -3.6499999999999998E-002    -2.5920809942903134E-010
  -3.6400000000000002E-002    -3.0689675800665839E-010
  -3.6299999999999999E-002    -3.5414018939583514E-010
  -3.6200000000000003E-002    -3.9715555844033190E-010
  -3.6100000000000000E-002    -4.3105591318592928E-010
  -3.6000000000000004E-002    -4.4985357106064328E-010
  -3.5900000000000001E-002    -4.4655107389601767E-010
  -3.5799999999999998E-002    -4.1333800271381449E-010
  -3.5700000000000003E-002    -3.4190852926663240E-010
  -3.5600000000000000E-002    -2.2390998777321869E-010
  -3.5500000000000004E-002    -5.1525377714467524E-011
  -3.5400000000000001E-002     1.8181563199437534E-010
  -3.5299999999999998E-002     4.8061321589187855E-010
  -3.5200000000000002E-002     8.4638873687481464E-010
  -3.5099999999999999E-002     1.2767303880778513E-009
  -3.5000000000000003E-002     1.7643445593407137E-009
  -3.4900000000000000E-002     2.2961761381168344E-009
  -3.4799999999999998E-002     2.8526698780950710E-009
  -3.4700000000000002E-002     3.4072511478910883E-009
  -3.4599999999999999E-002     3.9261105477805813E-009
  -3.4500000000000003E-002     4.3683723305321109E-009
  -3.4400000000000000E-002     4.6867230096836465E-009
  -3.4299999999999997E-002     4.8285602183284482E-009
  -3.4200000000000001E-002     4.7377120004910012E-009
  -3.4099999999999998E-002     4.3567434104829772E-009
  -3.4000000000000002E-002     3.6298442029902844E-009
  -3.3900000000000000E-002     2.5062529829256164E-009
  -3.3799999999999997E-002     9.4413621365418976E-010
  -3.3700000000000001E-002    -1.0851982645831981E-009
  -3.3599999999999998E-002    -3.5929159647452025E-009
  -3.3500000000000002E-002    -6.5683036787334004E-009
  -3.3399999999999999E-002    -9.9746833015501579E-009
  -3.3300000000000003E-002    -1.3745857785352200E-008
  -3.3200000000000000E-002    -1.7783367667334460E-008
  -3.3099999999999997E-002    -2.1954852158501126E-008
  -3.3000000000000002E-002    -2.6093792016013140E-008
  -3.2899999999999999E-002    -3.0000890660630830E-008
  -3.2800000000000003E-002    -3.3447317804302656E-008
  -3.2700000000000000E-002    -3.6179965690052995E-008
  -3.2600000000000004E-002    -3.7928803209297257E-008
  -3.2500000000000001E-002    -3.8416338554725371E-008
  -3.2399999999999998E-002    -3.7369076721915917E-008
  -3.2300000000000002E-002    -3.4530735604221263E-008
  -3.2199999999999999E-002    -2.9676904489406297E-008
  -3.2100000000000004E-002    -2.2630691987046703E-008
  -3.2000000000000001E-002    -1.3278770083502422E-008
  -3.1899999999999998E-002    -1.5871576275472421E-009
  -3.1800000000000002E-002     1.2384015590782838E-008
  -3.1699999999999999E-002     2.8467590951208877E-008
  -3.1600000000000003E-002     4.6379152962572334E-008
  -3.1500000000000000E-002     6.5710331398349808E-008
  -3.1399999999999997E-002     8.5926480153375451E-008
  -3.1300000000000001E-002     1.0636940572794629E-007
  -3.1199999999999999E-002     1.2626573209217895E-007
  -3.1100000000000003E-002     1.4474136378339608E-007
  -3.1000000000000000E-002     1.6084231901913881E-007
  -3.0900000000000000E-002     1.7356167347770679E-007
  -3.0800000000000001E-002     1.8187256500823423E-007
  -3.0699999999999998E-002     1.8476653451671154E-007
  -3.0600000000000002E-002     1.8129627221696865E-007
  -3.0499999999999999E-002     1.7062166079995222E-007
  -3.0400000000000000E-002     1.5205752390556881E-007
  -3.0300000000000001E-002     1.2512140301623731E-007
  -3.0200000000000001E-002     8.9579444306764344E-008
  -3.0100000000000002E-002     4.5488263822335284E-008
  -2.9999999999999999E-002    -6.7693730620987935E-009
  -2.9899999999999999E-002    -6.6457175762479892E-008
  -2.9800000000000000E-002    -1.3246832963886845E-007
  -2.9700000000000001E-002    -2.0332078065621317E-007
  -2.9600000000000001E-002    -2.7716632189367374E-007
  -2.9499999999999998E-002    -3.5181460589228664E-007
  -2.9400000000000003E-002    -4.2477302031329600E-007
  -2.9300000000000000E-002    -4.9330242291034665E-007
  -2.9200000000000000E-002    -5.5448839475502609E-007
  -2.9100000000000001E-002    -6.0532670431712177E-007
  -2.8999999999999998E-002    -6.4282170342266909E-007
  -2.8900000000000002E-002    -6.6409467081030016E-007
  -2.8799999999999999E-002    -6.6649943164520664E-007
  -2.8700000000000000E-002    -6.4774155816849088E-007
  -2.8600000000000000E-002    -6.0599694506890955E-007
  -2.8500000000000001E-002    -5.4002549632059527E-007
  -2.8400000000000002E-002    -4.4927503495273413E-007
  -2.8299999999999999E-002    -3.3397066090401495E-007
  -2.8200000000000003E-002    -1.9518532212714490E-007
  -2.8100000000000000E-002    -3.4886824096247437E-008
  -2.8000000000000001E-002     1.4404240289422887E-007
  -2.7900000000000001E-002     3.3781572028601659E-007
  -2.7799999999999998E-002     5.4178542541194474E-007
  -2.7700000000000002E-002     7.5051985959362355E-007
  -2.7600000000000000E-002     9.5791426701907767E-007
  -2.7500000000000000E-002     1.1573349638638319E-006
  -2.7400000000000001E-002     1.3417936770565575E-006
  -2.7299999999999998E-002     1.5041489405120956E-006
  -2.7200000000000002E-002     1.6373290918636485E-006
  -2.7099999999999999E-002     1.7345713558825082E-006
  -2.7000000000000000E-002     1.7896693407237763E-006
  -2.6900000000000000E-002     1.7972209889194346E-006
  -2.6800000000000001E-002     1.7528687976664514E-006
  -2.6700000000000002E-002     1.6535233271497418E-006
  -2.6599999999999999E-002     1.4975604472056148E-006
  -2.6500000000000003E-002     1.2849844779339037E-006
  -2.6400000000000000E-002     1.0175486977459514E-006
  -2.6300000000000000E-002     6.9882685238553677E-007
  -2.6200000000000001E-002     3.3422881529077131E-007
  -2.6099999999999998E-002    -6.9042584982526023E-008
  -2.6000000000000002E-002    -5.0209661139888340E-007
  -2.5899999999999999E-002    -9.5452207915514009E-007
  -2.5800000000000000E-002    -1.4146147577775992E-006
  -2.5700000000000001E-002    -1.8696607639867580E-006
  -2.5599999999999998E-002    -2.3062709715304663E-006
  -2.5500000000000002E-002    -2.7107562345918268E-006
  -2.5399999999999999E-002    -3.0695350687892642E-006
  -2.5300000000000000E-002    -3.3695607726258459E-006
  -2.5200000000000000E-002    -3.5987550290883519E-006
  -2.5100000000000001E-002    -3.7464342312887311E-006
  -2.5000000000000001E-002    -3.8037142076063901E-006
  -2.4899999999999999E-002    -3.7638774301740341E-006
  -2.4800000000000003E-002    -3.6226902011549100E-006
  -2.4700000000000000E-002    -3.3786570838856278E-006
  -2.4600000000000000E-002    -3.0331991638377076E-006
  -2.4500000000000001E-002    -2.5907486360665644E-006
  -2.4399999999999998E-002    -2.0587524431903148E-006
  -2.4299999999999999E-002    -1.4475800753643853E-006
  -2.4199999999999999E-002    -7.7033564593875781E-007
  -2.4100000000000000E-002    -4.2575468484074008E-008
  -2.4000000000000000E-002     7.1806323376222281E-007
  -2.3900000000000001E-002     1.4923128901500604E-006
  -2.3800000000000002E-002     2.2597953375225188E-006
  -2.3699999999999999E-002     2.9995946988492506E-006
  -2.3599999999999999E-002     3.6908661513734842E-006
  -2.3500000000000000E-002     4.3134650695719756E-006
  -2.3400000000000001E-002     4.8485717343282886E-006
  -2.3300000000000001E-002     5.2792943279200699E-006
  -2.3199999999999998E-002     5.5912310017447453E-006
  -2.3099999999999999E-002     5.7729657783056609E-006
  -2.3000000000000000E-002     5.8164855545328464E-006
  -2.2900000000000000E-002     5.7175006986653898E-006
  -2.2800000000000001E-002     5.4756542340328451E-006
  -2.2700000000000001E-002     5.0946123337780591E-006
  -2.2599999999999999E-002     4.5820288505638018E-006
  -2.2499999999999999E-002     3.9493838812632021E-006
  -2.2400000000000000E-002     3.2116963666339871E-006
  -2.2300000000000000E-002     2.3871180019341409E-006
  -2.2200000000000001E-002     1.4964228967073723E-006
  -2.2100000000000002E-002     5.6240412504848791E-007
  -2.1999999999999999E-002    -3.9080339320207713E-007
  -2.1899999999999999E-002    -1.3384500334723270E-006
  -2.1800000000000000E-002    -2.2559283934242558E-006
  -2.1700000000000001E-002    -3.1195320389088010E-006
  -2.1600000000000001E-002    -3.9071919673006050E-006
  -2.1499999999999998E-002    -4.5991655497346073E-006
  -2.1399999999999999E-002    -5.1786528274533339E-006
  -2.1299999999999999E-002    -5.6323196986340918E-006
  -2.1200000000000000E-002    -5.9507078731257934E-006
  -2.1100000000000001E-002    -6.1285159063118044E-006
  -2.1000000000000001E-002    -6.1647419897781219E-006
  -2.0899999999999998E-002    -6.0626816775766201E-006
  -2.0799999999999999E-002    -5.8297787290939596E-006
  -2.0700000000000000E-002    -5.4773340707470197E-006
  -2.0600000000000000E-002    -5.0200819714518730E-006
  -2.0500000000000001E-002    -4.4756470742868260E-006
  -2.0400000000000001E-002    -3.8639004742435645E-006
  -2.0299999999999999E-002    -3.2062405352917267E-006
  -2.0199999999999999E-002    -2.5248200472560711E-006
  -2.0100000000000000E-002    -1.8417491673972108E-006
  -2.0000000000000000E-002    -1.1783027957790182E-006
  -1.9900000000000001E-002    -5.5416279565179138E-007
  -1.9799999999999998E-002     1.3278678601125193E-008
  -1.9699999999999999E-002     5.0952797892023227E-007
  -1.9599999999999999E-002     9.2348710722944816E-007
  -1.9500000000000000E-002     1.2478201369958697E-006
  -1.9400000000000001E-002     1.4791745570619241E-006
  -1.9300000000000001E-002     1.6182481203941279E-006
  -1.9199999999999998E-002     1.6696975535523961E-006
  -1.9099999999999999E-002     1.6418906625403906E-006
  -1.9000000000000000E-002     1.5465108162970864E-006
  -1.8900000000000000E-002     1.3980277344671777E-006
  -1.8800000000000001E-002     1.2130528830311960E-006
  -1.8700000000000001E-002     1.0096039204654517E-006
  -1.8599999999999998E-002     8.0630519505575649E-007
  -1.8499999999999999E-002     6.2155498881111271E-007
  -1.8400000000000000E-002     4.7269116976167425E-007
  -1.8300000000000000E-002     3.7518853446272260E-007
  -1.8200000000000001E-002     3.4191870668109914E-007
  -1.8100000000000002E-002     3.8250277611950878E-007
  -1.7999999999999999E-002     5.0278413255000487E-007
  -1.7899999999999999E-002     7.0444394850710523E-007
  -1.7800000000000000E-002     9.8477732990431832E-007
  -1.7700000000000000E-002     1.3366416169446893E-006
  -1.7600000000000001E-002     1.7485829175711842E-006
  -1.7499999999999998E-002     2.2051403902878519E-006
  -1.7399999999999999E-002     2.6873196929955157E-006
  -1.7299999999999999E-002     3.1732229217595886E-006
  -1.7200000000000000E-002     3.6388141779752914E-006
  -1.7100000000000001E-002     4.0587942748970818E-006
  -1.7000000000000001E-002     4.4075577534385957E-006
  -1.6899999999999998E-002     4.6601944632129744E-006
  -1.6799999999999999E-002     4.7935018301359378E-006
  -1.6700000000000000E-002     4.7869716581772082E-006
  -1.6600000000000000E-002     4.6237146307248622E-006
  -1.6500000000000001E-002     4.2912852222798392E-006
  -1.6400000000000001E-002     3.7823763250344200E-006
  -1.6299999999999999E-002     3.0953572149883257E-006
  -1.6199999999999999E-002     2.2346293917507865E-006
  -1.6100000000000000E-002     1.2107827842555707E-006
  -1.6000000000000000E-002     4.0545309332173929E-008
  -1.5900000000000001E-002    -1.2534795814644895E-006
  -1.5799999999999998E-002    -2.6432840058987495E-006
  -1.5699999999999999E-002    -4.0961235754366498E-006
  -1.5599999999999999E-002    -5.5753621381882112E-006
  -1.5500000000000000E-002    -7.0414712354249787E-006
  -1.5400000000000000E-002    -8.4531557149603032E-006
  -1.5300000000000001E-002    -9.7685669970815070E-006
  -1.5199999999999998E-002    -1.0946571819658857E-005
  -1.5099999999999999E-002    -1.1948032806685660E-005
  -1.4999999999999999E-002    -1.2737065844703466E-005
  -1.4900000000000000E-002    -1.3282230611366685E-005
  -1.4800000000000001E-002    -1.3557616512116510E-005
  -1.4700000000000001E-002    -1.3543799468607176E-005
  -1.4599999999999998E-002    -1.3228627722128294E-005
  -1.4499999999999999E-002    -1.2607819371623918E-005
  -1.4400000000000000E-002    -1.1685357094393112E-005
  -1.4300000000000000E-002    -1.0473660040588584E-005
  -1.4200000000000001E-002    -8.9935392679763027E-006
  -1.4099999999999998E-002    -7.2739308052405249E-006
  -1.3999999999999999E-002    -5.3514186220127158E-006
  -1.3899999999999999E-002    -3.2695711524866056E-006
  -1.3800000000000000E-002    -1.0781000128190499E-006
  -1.3700000000000000E-002     1.1681221394610475E-006
  -1.3600000000000001E-002     3.4101574328815332E-006
  -1.3499999999999998E-002     5.5861801229184493E-006
  -1.3399999999999999E-002     7.6326987255015410E-006
  -1.3299999999999999E-002     9.4857887233956717E-006
  -1.3200000000000000E-002     1.1082299351983238E-005
  -1.3100000000000001E-002     1.2361005246930290E-005
  -1.3000000000000001E-002     1.3263664186524693E-005
  -1.2899999999999998E-002     1.3735974789597094E-005
  -1.2799999999999999E-002     1.3728384146816097E-005
  -1.2699999999999999E-002     1.3196752661315259E-005
  -1.2600000000000000E-002     1.2102856089768466E-005
  -1.2500000000000001E-002     1.0414708413009066E-005
  -1.2399999999999998E-002     8.1067264545708895E-006
  -1.2299999999999998E-002     5.1597171477624215E-006
  -1.2199999999999999E-002     1.5607105297021917E-006
  -1.2100000000000000E-002    -2.6973532385454746E-006
  -1.2000000000000000E-002    -7.6160745265951846E-006
  -1.1900000000000001E-002    -1.3192147889640182E-005
  -1.1799999999999998E-002    -1.9418015654082410E-005
  -1.1699999999999999E-002    -2.6282597900717519E-005
  -1.1599999999999999E-002    -3.3772066672099754E-005
  -1.1500000000000000E-002    -4.1870665882015601E-005
  -1.1400000000000000E-002    -5.0561535317683592E-005
  -1.1300000000000001E-002    -5.9827551012858748E-005
  -1.1199999999999998E-002    -6.9652123784180731E-005
  -1.1099999999999999E-002    -8.0019985034596175E-005
  -1.0999999999999999E-002    -9.0917943452950567E-005
  -1.0900000000000000E-002    -1.0233557986794040E-004
  -1.0800000000000001E-002    -1.1426590208429843E-004
  -1.0699999999999998E-002    -1.2670594151131809E-004
  -1.0599999999999998E-002    -1.3965727703180164E-004
  -1.0499999999999999E-002    -1.5312657342292368E-004
  -1.0400000000000000E-002    -1.6712593787815422E-004
  -1.0300000000000000E-002    -1.8167331290896982E-004
  -1.0200000000000001E-002    -1.9679285469464958E-004
  -1.0099999999999998E-002    -2.1251513680908829E-004
  -9.9999999999999985E-003    -2.2887733939569443E-004
  -9.8999999999999991E-003    -2.4592343834228814E-004
  -9.7999999999999997E-003    -2.6370430714450777E-004
  -9.7000000000000003E-003    -2.8227770235389471E-004
  -9.6000000000000009E-003    -3.0170823447406292E-004
  -9.4999999999999980E-003    -3.2206723699346185E-004
  -9.3999999999999986E-003    -3.4343264997005463E-004
  -9.2999999999999992E-003    -3.6588875809684396E-004
  -9.1999999999999998E-003    -3.8952581235207617E-004
  -9.1000000000000004E-003    -4.1443973896093667E-004
  -9.0000000000000011E-003    -4.4073164463043213E-004
  -8.8999999999999982E-003    -4.6850726357661188E-004
  -8.7999999999999988E-003    -4.9787649186328053E-004
  -8.6999999999999994E-003    -5.2895274711772799E-004
  -8.5999999999999965E-003    -5.6185247376561165E-004
  -8.5000000000000006E-003    -5.9669435722753406E-004
  -8.3999999999999977E-003    -6.3359888736158609E-004
  -8.3000000000000018E-003    -6.7268795100972056E-004
  -8.1999999999999990E-003    -7.1408419171348214E-004
  -8.0999999999999961E-003    -7.5791077688336372E-004
  -8.0000000000000002E-003    -8.0429128138348460E-004
  -7.8999999999999973E-003    -8.5334962932392955E-004
  -7.8000000000000014E-003    -9.0521015226840973E-004
  -7.6999999999999985E-003    -9.5999799668788910E-004
  -7.6000000000000026E-003    -1.0178396478295326E-003
  -7.4999999999999997E-003    -1.0788638610392809E-003
  -7.3999999999999969E-003    -1.1432024184614420E-003
  -7.3000000000000009E-003    -1.2109916424378753E-003
  -7.1999999999999981E-003    -1.2823735596612096E-003
  -7.1000000000000021E-003    -1.3574975309893489E-003
  -6.9999999999999993E-003    -1.4365221140906215E-003
  -6.8999999999999964E-003    -1.5196169260889292E-003
  -6.8000000000000005E-003    -1.6069645062088966E-003
  -6.6999999999999976E-003    -1.6987622948363423E-003
  -6.6000000000000017E-003    -1.7952246125787497E-003
  -6.4999999999999988E-003    -1.8965845229104161E-003
  -6.3999999999999960E-003    -2.0030953455716372E-003
  -6.3000000000000000E-003    -2.1150326356291771E-003
  -6.1999999999999972E-003    -2.2326952312141657E-003
  -6.1000000000000013E-003    -2.3564065340906382E-003
  -5.9999999999999984E-003    -2.4865150917321444E-003
  -5.9000000000000025E-003    -2.6233948301523924E-003
  -5.7999999999999996E-003    -2.7674455195665359E-003
  -5.6999999999999967E-003    -2.9190925415605307E-003
  -5.6000000000000008E-003    -3.0787861905992031E-003
  -5.4999999999999979E-003    -3.2470012083649635E-003
  -5.4000000000000020E-003    -3.4242356196045876E-003
  -5.2999999999999992E-003    -3.6110088694840670E-003
  -5.1999999999999963E-003    -3.8078606594353914E-003
  -5.1000000000000004E-003    -4.0153497830033302E-003
  -4.9999999999999975E-003    -4.2340517975389957E-003
  -4.9000000000000016E-003    -4.4645578600466251E-003
  -4.7999999999999987E-003    -4.7074737958610058E-003
  -4.6999999999999958E-003    -4.9634184688329697E-003
  -4.5999999999999999E-003    -5.2330223843455315E-003
  -4.4999999999999971E-003    -5.5169272236526012E-003
  -4.4000000000000011E-003    -5.8157858438789845E-003
  -4.2999999999999983E-003    -6.1302627436816692E-003
  -4.2000000000000023E-003    -6.4610349945724010E-003
  -4.0999999999999995E-003    -6.8087922409176826E-003
  -3.9999999999999966E-003    -7.1742385625839233E-003
  -3.9000000000000007E-003    -7.5580952689051628E-003
  -3.7999999999999978E-003    -7.9611027613282204E-003
  -3.7000000000000019E-003    -8.3840247243642807E-003
  -3.5999999999999990E-003    -8.8276481255888939E-003
  -3.4999999999999962E-003    -9.2927897348999977E-003
  -3.4000000000000002E-003    -9.7802979871630669E-003
  -3.2999999999999974E-003    -1.0291056707501411E-002
  -3.2000000000000015E-003    -1.0825990699231625E-002
  -3.0999999999999986E-003    -1.1386065743863583E-002
  -2.9999999999999957E-003    -1.1972292326390743E-002
  -2.8999999999999998E-003    -1.2585730291903019E-002
  -2.7999999999999969E-003    -1.3227490708231926E-002
  -2.7000000000000010E-003    -1.3898737728595734E-002
  -2.5999999999999981E-003    -1.4600688591599464E-002
  -2.5000000000000022E-003    -1.5334616415202618E-002
  -2.3999999999999994E-003    -1.6101850196719170E-002
  -2.2999999999999965E-003    -1.6903774812817574E-002
  -2.2000000000000006E-003    -1.7741829156875610E-002
  -2.0999999999999977E-003    -1.8617505207657814E-002
  -2.0000000000000018E-003    -1.9532347097992897E-002
  -1.8999999999999989E-003    -2.0487951114773750E-002
  -1.7999999999999960E-003    -2.1485963836312294E-002
  -1.7000000000000001E-003    -2.2528076544404030E-002
  -1.5999999999999973E-003    -2.3616027086973190E-002
  -1.5000000000000013E-003    -2.4751596152782440E-002
  -1.3999999999999985E-003    -2.5936603546142578E-002
  -1.2999999999999956E-003    -2.7172913774847984E-002
  -1.1999999999999997E-003    -2.8462430462241173E-002
  -1.0999999999999968E-003    -2.9807092621922493E-002
  -1.0000000000000009E-003    -3.1208882108330727E-002
  -8.9999999999999802E-004    -3.2669823616743088E-002
  -8.0000000000000210E-004    -3.4191977232694626E-002
  -6.9999999999999923E-004    -3.5777453333139420E-002
  -5.9999999999999637E-004    -3.7428408861160278E-002
  -5.0000000000000044E-004    -3.9147049188613892E-002
  -3.9999999999999758E-004    -4.0935635566711426E-002
  -3.0000000000000165E-004    -4.2796481400728226E-002
  -1.9999999999999879E-004    -4.4731959700584412E-002
  -9.9999999999995925E-005    -4.6744517982006073E-002
   0.0000000000000000         -4.8836667090654373E-002
   1.0000000000000286E-004    -5.1010988652706146E-002
   1.9999999999999879E-004    -5.3270146250724792E-002
   3.0000000000000165E-004    -5.5616881698369980E-002
   4.0000000000000452E-004    -5.8054018765687943E-002
   5.0000000000000044E-004    -6.0584466904401779E-002
   6.0000000000000331E-004    -6.3211217522621155E-002
   6.9999999999999923E-004    -6.5937355160713196E-002
   8.0000000000000210E-004    -6.8766050040721893E-002
   8.9999999999999802E-004    -7.1700558066368103E-002
   1.0000000000000009E-003    -7.4744209647178650E-002
   1.1000000000000038E-003    -7.7900424599647522E-002
   1.1999999999999997E-003    -8.1172697246074677E-002
   1.3000000000000025E-003    -8.4564596414566040E-002
   1.3999999999999985E-003    -8.8079757988452911E-002
   1.5000000000000013E-003    -9.1721884906291962E-002
   1.6000000000000042E-003    -9.5494739711284637E-002
   1.7000000000000001E-003    -9.9402137100696564E-002
   1.8000000000000030E-003   -0.10344794392585754
   1.8999999999999989E-003   -0.10763607174158096
   2.0000000000000018E-003   -0.11197046190500259
   2.1000000000000046E-003   -0.11645509302616119
   2.2000000000000006E-003   -0.12109398841857910
   2.3000000000000034E-003   -0.12589117884635925
   2.3999999999999994E-003   -0.13085074722766876
   2.5000000000000022E-003   -0.13597677648067474
   2.5999999999999981E-003   -0.14127336442470551
   2.7000000000000010E-003   -0.14674463868141174
   2.8000000000000039E-003   -0.15239475667476654
   2.8999999999999998E-003   -0.15822789072990417
   3.0000000000000027E-003   -0.16424821317195892
   3.0999999999999986E-003   -0.17045992612838745
   3.2000000000000015E-003   -0.17686724662780762
   3.3000000000000043E-003   -0.18347439169883728
   3.4000000000000002E-003   -0.19028560817241669
   3.5000000000000031E-003   -0.19730515778064728
   3.5999999999999990E-003   -0.20453731715679169
   3.7000000000000019E-003   -0.21198636293411255
   3.7999999999999978E-003   -0.21965657174587250
   3.9000000000000007E-003   -0.22755225002765656
   4.0000000000000036E-003   -0.23567770421504974
   4.0999999999999995E-003   -0.24403722584247589
   4.2000000000000023E-003   -0.25263509154319763
   4.2999999999999983E-003   -0.26147553324699402
   4.4000000000000011E-003   -0.27056282758712769
   4.5000000000000040E-003   -0.27990117669105530
   4.5999999999999999E-003   -0.28949472308158875
   4.7000000000000028E-003   -0.29934757947921753
   4.7999999999999987E-003   -0.30946379899978638
   4.9000000000000016E-003   -0.31984737515449524
   5.0000000000000044E-003   -0.33050221204757690
   5.1000000000000004E-003   -0.34143212437629700
   5.2000000000000032E-003   -0.35264086723327637
   5.2999999999999992E-003   -0.36413204669952393
   5.4000000000000020E-003   -0.37590917944908142
   5.4999999999999979E-003   -0.38797563314437866
   5.6000000000000008E-003   -0.40033459663391113
   5.7000000000000037E-003   -0.41298916935920715
   5.7999999999999996E-003   -0.42594230175018311
   5.9000000000000025E-003   -0.43919673562049866
   5.9999999999999984E-003   -0.45275506377220154
   6.1000000000000013E-003   -0.46661972999572754
   6.2000000000000041E-003   -0.48079296946525574
   6.3000000000000000E-003   -0.49527683854103088
   6.4000000000000029E-003   -0.51007318496704102
   6.4999999999999988E-003   -0.52518361806869507
   6.6000000000000017E-003   -0.54060953855514526
   6.7000000000000046E-003   -0.55635207891464233
   6.8000000000000005E-003   -0.57241213321685791
   6.9000000000000034E-003   -0.58879035711288452
   6.9999999999999993E-003   -0.60548710823059082
   7.1000000000000021E-003   -0.62250250577926636
   7.1999999999999981E-003   -0.63983637094497681
   7.3000000000000009E-003   -0.65748816728591919
   7.4000000000000038E-003   -0.67545706033706665
   7.4999999999999997E-003   -0.69374191761016846
   7.6000000000000026E-003   -0.71234124898910522
   7.6999999999999985E-003   -0.73125320672988892
   7.8000000000000014E-003   -0.75047552585601807
   7.9000000000000042E-003   -0.77000558376312256
   8.0000000000000002E-003   -0.78984034061431885
   8.1000000000000030E-003   -0.80997639894485474
   8.1999999999999990E-003   -0.83040994405746460
   8.3000000000000018E-003   -0.85113662481307983
   8.4000000000000047E-003   -0.87215167284011841
   8.5000000000000006E-003   -0.89344990253448486
   8.6000000000000035E-003   -0.91502559185028076
   8.6999999999999994E-003   -0.93687254190444946
   8.8000000000000023E-003   -0.95898419618606567
   8.8999999999999982E-003   -0.98135346174240112
   9.0000000000000011E-003    -1.0039726495742798
   9.1000000000000039E-003    -1.0268335342407227
   9.1999999999999998E-003    -1.0499274730682373
   9.3000000000000027E-003    -1.0732451677322388
   9.3999999999999986E-003    -1.0967770814895630
   9.5000000000000015E-003    -1.1205129623413086
   9.6000000000000044E-003    -1.1444420814514160
   9.7000000000000003E-003    -1.1685531139373779
   9.8000000000000032E-003    -1.1928341388702393
   9.8999999999999991E-003    -1.2172727584838867
   1.0000000000000002E-002    -1.2418558597564697
   1.0100000000000005E-002    -1.2665698528289795
   1.0200000000000001E-002    -1.2914007902145386
   1.0300000000000004E-002    -1.3163340091705322
   1.0400000000000000E-002    -1.3413540124893188
   1.0500000000000002E-002    -1.3664448261260986
   1.0599999999999998E-002    -1.3915901184082031
   1.0700000000000001E-002    -1.4167728424072266
   1.0800000000000004E-002    -1.4419751167297363
   1.0900000000000000E-002    -1.4671787023544312
   1.1000000000000003E-002    -1.4923646450042725
   1.1099999999999999E-002    -1.5175135135650635
   1.1200000000000002E-002    -1.5426051616668701
   1.1300000000000004E-002    -1.5676187276840210
   1.1400000000000000E-002    -1.5925328731536865
   1.1500000000000003E-002    -1.6173255443572998
   1.1599999999999999E-002    -1.6419742107391357
   1.1700000000000002E-002    -1.6664558649063110
   1.1800000000000005E-002    -1.6907469034194946
   1.1900000000000001E-002    -1.7148228883743286
   1.2000000000000004E-002    -1.7386589050292969
   1.2100000000000000E-002    -1.7622296810150146
   1.2200000000000003E-002    -1.7855092287063599
   1.2299999999999998E-002    -1.8084709644317627
   1.2400000000000001E-002    -1.8310878276824951
   1.2500000000000004E-002    -1.8533322811126709
   1.2600000000000000E-002    -1.8751766681671143
   1.2700000000000003E-002    -1.8965927362442017
   1.2799999999999999E-002    -1.9175516366958618
   1.2900000000000002E-002    -1.9380244016647339
   1.3000000000000005E-002    -1.9579818248748779
   1.3100000000000001E-002    -1.9773941040039062
   1.3200000000000003E-002    -1.9962310791015625
   1.3299999999999999E-002    -2.0144627094268799
   1.3400000000000002E-002    -2.0320582389831543
   1.3500000000000005E-002    -2.0489866733551025
   1.3600000000000001E-002    -2.0652170181274414
   1.3700000000000004E-002    -2.0807178020477295
   1.3800000000000000E-002    -2.0954577922821045
   1.3900000000000003E-002    -2.1094055175781250
   1.3999999999999999E-002    -2.1225287914276123
   1.4100000000000001E-002    -2.1347956657409668
   1.4200000000000004E-002    -2.1461744308471680
   1.4300000000000000E-002    -2.1566331386566162
   1.4400000000000003E-002    -2.1661398410797119
   1.4499999999999999E-002    -2.1746625900268555
   1.4600000000000002E-002    -2.1821694374084473
   1.4700000000000005E-002    -2.1886284351348877
   1.4800000000000001E-002    -2.1940081119537354
   1.4900000000000004E-002    -2.1982772350311279
   1.4999999999999999E-002    -2.2014045715332031
   1.5100000000000002E-002    -2.2033591270446777
   1.5200000000000005E-002    -2.2041101455688477
   1.5300000000000001E-002    -2.2036273479461670
   1.5400000000000004E-002    -2.2018809318542480
   1.5500000000000000E-002    -2.1988420486450195
   1.5600000000000003E-002    -2.1944820880889893
   1.5699999999999999E-002    -2.1887724399566650