  -4.0000000000000001E-002     0.0000000000000000
  -3.9899999999999998E-002     0.0000000000000000
  -3.9800000000000002E-002     0.0000000000000000
  -3.9699999999999999E-002     0.0000000000000000
  -3.9600000000000003E-002     0.0000000000000000
  -3.9500000000000000E-002    -2.2642368863180711E-021
  -3.9399999999999998E-002    -2.4488261981977572E-020
  -3.9300000000000002E-002    -1.4390094055188202E-019
  -3.9199999999999999E-002    -6.0832061659037857E-019
  -3.9100000000000003E-002    -2.0687952556073733E-018
  -3.9000000000000000E-002    -6.0061956508750988E-018
  -3.8900000000000004E-002    -1.5436252330146015E-017
  -3.8800000000000001E-002    -3.5978581393741012E-017
  -3.8699999999999998E-002    -7.7359724213527163E-017
  -3.8600000000000002E-002    -1.5538361490193030E-016
  -3.8500000000000000E-002    -2.9434230804453406E-016
  -3.8400000000000004E-002    -5.2975542221784318E-016
  -3.8300000000000001E-002    -9.1122173927194166E-016
  -3.8199999999999998E-002    -1.5050475277134882E-015
  -3.8100000000000002E-002    -2.3961967037178710E-015
  -3.7999999999999999E-002    -3.6889995859478233E-015
  -3.7900000000000003E-002    -5.5059784314324955E-015
  -3.7800000000000000E-002    -7.9841257845554570E-015
  -3.7699999999999997E-002    -1.1268008993589335E-014
  -3.7600000000000001E-002    -1.5499193522041689E-014
  -3.7499999999999999E-002    -2.0801729886136752E-014
  -3.7400000000000003E-002    -2.7263739158542126E-014
  -3.7300000000000000E-002    -3.4915599328878139E-014
  -3.7200000000000004E-002    -4.3705724396591109E-014
  -3.7100000000000001E-002    -5.3475517606703035E-014
  -3.6999999999999998E-002    -6.3935686714540474E-014
  -3.6900000000000002E-002    -7.4646655501796333E-014
  -3.6799999999999999E-002    -8.5006410547802669E-014
  -3.6700000000000003E-002    -9.4249247620768750E-014
  -3.6600000000000001E-002    -1.0145936147438681E-013
  -3.6499999999999998E-002    -1.0560268751038521E-013
  -3.6400000000000002E-002    -1.0558035972189558E-013
  -3.6299999999999999E-002    -1.0030592621692452E-013
  -3.6200000000000003E-002    -8.8807453957947396E-014
  -3.6100000000000000E-002    -7.0354007721592365E-014
  -3.6000000000000004E-002    -4.4603836818696632E-014
  -3.5900000000000001E-002    -1.1769477062319351E-014
  -3.5799999999999998E-002     2.7207606285127584E-014
  -3.5700000000000003E-002     7.0482777058365753E-014
  -3.5600000000000000E-002     1.1514675660444923E-013
  -3.5500000000000004E-002     1.5709146223424897E-013
  -3.5400000000000001E-002     1.9091957290280626E-013
  -3.5299999999999998E-002     2.0991475430717083E-013
  -3.5200000000000002E-002     2.0609005496087518E-013
  -3.5099999999999999E-002     1.7033066851499662E-013
  -3.5000000000000003E-002     9.2645082415149932E-014
  -3.4900000000000000E-002    -3.7465273532199042E-014
  -3.4799999999999998E-002    -2.3051214257698016E-013
  -3.4700000000000002E-002    -4.9640364518585556E-013
  -3.4599999999999999E-002    -8.4371301178193248E-013
  -3.4500000000000003E-002    -1.2788495306129133E-012
  -3.4400000000000000E-002    -1.8051583448516761E-012
  -3.4299999999999997E-002    -2.4219842711253881E-012
  -3.4200000000000001E-002    -3.1237438850861832E-012
  -3.4099999999999998E-002    -3.8990594607157814E-012
  -3.4000000000000002E-002    -4.7300141234329907E-012
  -3.3900000000000000E-002    -5.5915918596716185E-012
  -3.3799999999999997E-002    -6.4513706876656585E-012
  -3.3700000000000001E-002    -7.2695326321092768E-012
  -3.3599999999999998E-002    -7.9992514348536936E-012
  -3.3500000000000002E-002    -8.5875152475156646E-012
  -3.3399999999999999E-002    -8.9764133626157872E-012
  -3.3300000000000003E-002    -9.1049208103544110E-012
  -3.3200000000000000E-002    -8.9111773515782033E-012
  -3.3099999999999997E-002    -8.3352326776808816E-012
  -3.3000000000000002E-002    -7.3222244240112033E-012
  -3.2899999999999999E-002    -5.8258914185926880E-012
  -3.2800000000000003E-002    -3.8123323942151899E-012
  -3.2700000000000000E-002    -1.2638622787219944E-012
  -3.2600000000000004E-002     1.8171862669127958E-012
  -3.2500000000000001E-002     5.4049069907191605E-012
  -3.2399999999999998E-002     9.4467081726556934E-012
  -3.2300000000000002E-002     1.3860851702518495E-011
  -3.2199999999999999E-002     1.8534862880614789E-011
  -3.2100000000000004E-002     2.3325008591257301E-011
  -3.2000000000000001E-002     2.8057032391837211E-011
  -3.1899999999999998E-002     3.2528306437296095E-011
  -3.1800000000000002E-002     3.6511502155001097E-011
  -3.1699999999999999E-002     3.9759875947176226E-011
  -3.1600000000000003E-002     4.2014149104208087E-011
  -3.1500000000000000E-002     4.3010914274610457E-011
  -3.1399999999999997E-002     4.2492474816580028E-011
  -3.1300000000000001E-002     4.0217839475387152E-011
  -3.1199999999999999E-002     3.5974660750337506E-011
  -3.1100000000000003E-002     2.9591665923200949E-011
  -3.1000000000000000E-002     2.0951214721454114E-011
  -3.0900000000000000E-002     1.0001461464570482E-011
  -3.0800000000000001E-002    -3.2324054457383289E-012
  -3.0699999999999998E-002    -1.8638417198513224E-011
  -3.0600000000000002E-002    -3.6010128906527328E-011
  -3.0499999999999999E-002    -5.5041544239076146E-011
  -3.0400000000000000E-002    -7.5325121140501494E-011
  -3.0300000000000001E-002    -9.6353432177398446E-011
  -3.0200000000000001E-002    -1.1752464279535246E-010
  -3.0100000000000002E-002    -1.3815225352598048E-010
  -2.9999999999999999E-002    -1.5747907144980644E-010
  -2.9899999999999999E-002    -1.7469541091497121E-010
  -2.9800000000000000E-002    -1.8896137432555804E-010
  -2.9700000000000001E-002    -1.9943267870470294E-010
  -2.9600000000000001E-002    -2.0528957700438610E-010
  -2.9499999999999998E-002    -2.0576815251693858E-010
  -2.9400000000000003E-002    -2.0019302882090528E-010
  -2.9300000000000000E-002    -1.8801039891602755E-010
  -2.9200000000000000E-002    -1.6882036046883542E-010
  -2.9100000000000001E-002    -1.4240721102343201E-010
  -2.8999999999999998E-002    -1.0876652356550665E-010
  -2.8900000000000002E-002    -6.8127593844113932E-011
  -2.8799999999999999E-002    -2.0970156167088305E-011
  -2.8700000000000000E-002     3.1965763369612432E-011
  -2.8600000000000000E-002     8.9677897052720112E-011
  -2.8500000000000001E-002     1.5090838301201615E-010
  -2.8400000000000002E-002     2.1415957895953852E-010
  -2.8299999999999999E-002     2.7771929200781642E-010
  -2.8200000000000003E-002     3.3969527191146653E-010
  -2.8100000000000000E-002     3.9805869711528885E-010
  -2.8000000000000001E-002     4.5069578624712392E-010
  -2.7900000000000001E-002     4.9546650116027990E-010
  -2.7799999999999998E-002     5.3026899538011207E-010
  -2.7700000000000002E-002     5.5310778179773479E-010
  -2.7600000000000000E-002     5.6216409305420711E-010
  -2.7500000000000000E-002     5.5586590885781106E-010
  -2.7400000000000001E-002     5.3295545754394880E-010
  -2.7299999999999998E-002     4.9255172163142902E-010
  -2.7200000000000002E-002     4.3420561590679085E-010
  -2.7099999999999999E-002     3.5794558983504032E-010
  -2.7000000000000000E-002     2.6431140609517456E-010
  -2.6900000000000000E-002     1.5437437439480561E-010
  -2.6800000000000001E-002     2.9742545232247508E-011
  -2.6700000000000002E-002    -1.0745031253645010E-010
  -2.6599999999999999E-002    -2.5457241870086023E-010
  -2.6500000000000003E-002    -4.0853856408951117E-010
  -2.6400000000000000E-002    -5.6587090568882559E-010
  -2.6300000000000000E-002    -7.2277533957887385E-010
  -2.6200000000000001E-002    -8.7523099878694666E-010
  -2.6099999999999998E-002    -1.0190916999164301E-009
  -2.6000000000000002E-002    -1.1501962715598779E-009
  -2.5899999999999999E-002    -1.2644842950493285E-009
  -2.5800000000000000E-002    -1.3581150648533935E-009
  -2.5700000000000001E-002    -1.4275844950617511E-009
  -2.5599999999999998E-002    -1.4698379180444476E-009
  -2.5500000000000002E-002    -1.4823742233716075E-009
  -2.5399999999999999E-002    -1.4633377842798723E-009
  -2.5300000000000000E-002    -1.4115953961280070E-009
  -2.5200000000000000E-002    -1.3267943410610883E-009
  -2.5100000000000001E-002    -1.2094006907048538E-009
  -2.5000000000000001E-002    -1.0607146272434420E-009
  -2.4899999999999999E-002    -8.8286261634706875E-010
  -2.4800000000000003E-002    -6.7876582132697649E-010
  -2.4700000000000000E-002    -4.5208473076208122E-010
  -2.4600000000000000E-002    -2.0714216453221468E-010
  -2.4500000000000001E-002     5.1174241927354203E-011
  -2.4399999999999998E-002     3.1752694917841495E-010
  -2.4299999999999999E-002     5.8625759802310995E-010
  -2.4199999999999999E-002     8.5152629392126755E-010
  -2.4100000000000000E-002     1.1074573480485128E-009
  -2.4000000000000000E-002     1.3482857053048747E-009
  -2.3900000000000001E-002     1.5685012177968360E-009
  -2.3800000000000002E-002     1.7629846471578503E-009
  -2.3699999999999999E-002     1.9271317874824945E-009
  -2.3599999999999999E-002     2.0569612679821603E-009
  -2.3500000000000000E-002     2.1492041479831414E-009
  -2.3400000000000001E-002     2.2013697531519938E-009
  -2.3300000000000001E-002     2.2117880860150763E-009
  -2.3199999999999998E-002     2.1796282556607594E-009
  -2.3099999999999999E-002     2.1048893739106234E-009
  -2.3000000000000000E-002     1.9883688029409541E-009
  -2.2900000000000000E-002     1.8316070882207214E-009
  -2.2800000000000001E-002     1.6368121302789973E-009
  -2.2700000000000001E-002     1.4067680353946344E-009
  -2.2599999999999999E-002     1.1447295333866236E-009
  -2.2499999999999999E-002     8.5430934548824666E-010
  -2.2400000000000000E-002     5.3936233257445565E-010
  -2.2300000000000000E-002     2.0387071197891515E-010
  -2.2200000000000001E-002    -1.4816343985035729E-010
  -2.2100000000000002E-002    -5.1281451307616521E-010
  -2.1999999999999999E-002    -8.8631396666372098E-010
  -2.1899999999999999E-002    -1.2651119041251491E-009
  -2.1800000000000000E-002    -1.6459169582816457E-009
  -2.1700000000000001E-002    -2.0257122645972458E-009
  -2.1600000000000001E-002    -2.4017474675730455E-009
  -2.1499999999999998E-002    -2.7715076900136637E-009
  -2.1399999999999999E-002    -3.1326592431213385E-009
  -2.1299999999999999E-002    -3.4829770179101160E-009
  -2.1200000000000000E-002    -3.8202569996315106E-009
  -2.1100000000000001E-002    -4.1422172358807074E-009
  -2.1000000000000001E-002    -4.4463952519890881E-009
  -2.0899999999999998E-002    -4.7300443561937300E-009
  -2.0799999999999999E-002    -4.9900412690817575E-009
  -2.0700000000000000E-002    -5.2228061875325693E-009
  -2.0600000000000000E-002    -5.4242423885852986E-009
  -2.0500000000000001E-002    -5.5897046991049137E-009
  -2.0400000000000001E-002    -5.7139994957822182E-009
  -2.0299999999999999E-002    -5.7914197881814289E-009
  -2.0199999999999999E-002    -5.8158198257274307E-009
  -2.0100000000000000E-002    -5.7807314490787576E-009
  -2.0000000000000000E-002    -5.6795195213510397E-009
  -1.9900000000000001E-002    -5.5055773273693376E-009
  -1.9799999999999998E-002    -5.2525570559680546E-009
  -1.9699999999999999E-002    -4.9146304803571184E-009
  -1.9599999999999999E-002    -4.4867749515731248E-009
  -1.9500000000000000E-002    -3.9650744909636160E-009
  -1.9400000000000001E-002    -3.3470262117418770E-009
  -1.9300000000000001E-002    -2.6318451862294978E-009
  -1.9199999999999998E-002    -1.8207524377089612E-009
  -1.9099999999999999E-002    -9.1723817430278132E-010
  -1.9000000000000000E-002     7.2712121046425437E-011
  -1.8900000000000000E-002     1.1404408528647991E-009
  -1.8800000000000001E-002     2.2744990335610282E-009
  -1.8700000000000001E-002     3.4605942555998581E-009
  -1.8599999999999998E-002     4.6816137633243216E-009
  -1.8499999999999999E-002     5.9177271971577738E-009
  -1.8400000000000000E-002     7.1465717788044003E-009
  -1.8300000000000000E-002     8.3435258702024839E-009
  -1.8200000000000001E-002     9.4820604701340017E-009
  -1.8100000000000002E-002     1.0534176198007117E-008
  -1.7999999999999999E-002     1.1470910443733828E-008
  -1.7899999999999999E-002     1.2262910686899886E-008
  -1.7800000000000000E-002     1.2881061550729100E-008
  -1.7700000000000000E-002     1.3297152712254956E-008
  -1.7600000000000001E-002     1.3484573457844817E-008
  -1.7499999999999998E-002     1.3419020561400430E-008
  -1.7399999999999999E-002     1.3079196392595804E-008
  -1.7299999999999999E-002     1.2447483044297769E-008
  -1.7200000000000000E-002     1.1510580932849734E-008
  -1.7100000000000001E-002     1.0260082561330819E-008
  -1.7000000000000001E-002     8.6929787812550785E-009
  -1.6899999999999998E-002     6.8120673546445687E-009
  -1.6799999999999999E-002     4.6262678132791279E-009
  -1.6700000000000000E-002     2.1508161918148971E-009
  -1.6600000000000000E-002    -5.9265836682698136E-010
  -1.6500000000000001E-002    -3.5761889005669900E-009
  -1.6400000000000001E-002    -6.7656564795015584E-009
  -1.6299999999999999E-002    -1.0121108395821921E-008
  -1.6199999999999999E-002    -1.3597209580495928E-008
  -1.6100000000000000E-002    -1.7143815256304151E-008
  -1.6000000000000000E-002    -2.0706663050873431E-008
  -1.5900000000000001E-002    -2.4228171469076187E-008
  -1.5799999999999998E-002    -2.7648335176877481E-008
  -1.5699999999999999E-002    -3.0905692227634063E-008
  -1.5599999999999999E-002    -3.3938370336272783E-008
  -1.5500000000000000E-002    -3.6685154469751069E-008
  -1.5400000000000000E-002    -3.9086600622795231E-008
  -1.5300000000000001E-002    -4.1086149593638766E-008
  -1.5199999999999998E-002    -4.2631217667121746E-008
  -1.5099999999999999E-002    -4.3674280192362858E-008
  -1.4999999999999999E-002    -4.4173866342589463E-008
  -1.4900000000000000E-002    -4.4095532558685591E-008
  -1.4800000000000001E-002    -4.3412704542333813E-008
  -1.4700000000000001E-002    -4.2107441089456188E-008
  -1.4599999999999998E-002    -4.0171073578676442E-008
  -1.4499999999999999E-002    -3.7604724667517075E-008
  -1.4400000000000000E-002    -3.4419684880049317E-008
  -1.4300000000000000E-002    -3.0637629322427529E-008
  -1.4200000000000001E-002    -2.6290702948017497E-008
  -1.4099999999999998E-002    -2.1421440621338661E-008
  -1.3999999999999999E-002    -1.6082520204463435E-008
  -1.3899999999999999E-002    -1.0336368205798863E-008
  -1.3800000000000000E-002    -4.2546042244850923E-009
  -1.3700000000000000E-002     2.0826635971360474E-009
  -1.3600000000000001E-002     8.5876852295996287E-009
  -1.3499999999999998E-002     1.5166047973025343E-008
  -1.3399999999999999E-002     2.1717784903785287E-008
  -1.3299999999999999E-002     2.8138586571913038E-008
  -1.3200000000000000E-002     3.4321100628176282E-008
  -1.3100000000000001E-002     4.0156329816909420E-008
  -1.3000000000000001E-002     4.5535056614198766E-008
  -1.2899999999999998E-002     5.0349335367627646E-008
  -1.2799999999999999E-002     5.4493970225166777E-008
  -1.2699999999999999E-002     5.7868007274919364E-008
  -1.2600000000000000E-002     6.0376194710443087E-008
  -1.2500000000000001E-002     6.1930350625516439E-008
  -1.2399999999999998E-002     6.2450709492622991E-008
  -1.2299999999999998E-002     6.1867098111179075E-008
  -1.2199999999999999E-002     6.0120029843346856E-008
  -1.2100000000000000E-002     5.7161596345167709E-008
  -1.2000000000000000E-002     5.2956224294575804E-008
  -1.1900000000000001E-002     4.7481208298449928E-008
  -1.1799999999999998E-002     4.0727030636844574E-008
  -1.1699999999999999E-002     3.2697450080831914E-008
  -1.1599999999999999E-002     2.3409352678527284E-008
  -1.1500000000000000E-002     1.2892342304837712E-008
  -1.1400000000000000E-002     1.1880849637435631E-009
  -1.1300000000000001E-002    -1.1650606701607558E-008
  -1.1199999999999998E-002    -2.5560932925827728E-008
  -1.1099999999999999E-002    -4.0471505258210527E-008
  -1.0999999999999999E-002    -5.6303946394109516E-008
  -1.0900000000000000E-002    -7.2974728482222417E-008
  -1.0800000000000001E-002    -9.0397143992504425E-008
  -1.0699999999999998E-002    -1.0848343379166181E-007
  -1.0599999999999998E-002    -1.2714703245819692E-007
  -1.0499999999999999E-002    -1.4630485623001732E-007
  -1.0400000000000000E-002    -1.6587965490089118E-007
  -1.0300000000000000E-002    -1.8580232108433847E-007
  -1.0200000000000001E-002    -2.0601414973953069E-007
  -1.0099999999999998E-002    -2.2646904085377173E-007
  -9.9999999999999985E-003    -2.4713546054044855E-007
  -9.8999999999999991E-003    -2.6799835950441775E-007
  -9.7999999999999997E-003    -2.8906075044687896E-007
  -9.7000000000000003E-003    -3.1034511493999162E-007
  -9.6000000000000009E-003    -3.3189445503012394E-007
  -9.4999999999999980E-003    -3.5377314588913578E-007
  -9.3999999999999986E-003    -3.7606747582685784E-007
  -9.2999999999999992E-003    -3.9888570313451055E-007
  -9.1999999999999998E-003    -4.2235802766299457E-007
  -9.1000000000000004E-003    -4.4663602238870226E-007
  -9.0000000000000011E-003    -4.7189197971420072E-007
  -8.8999999999999982E-003    -4.9831777459985460E-007
  -8.7999999999999988E-003    -5.2612375611715834E-007
  -8.6999999999999994E-003    -5.5553704214617028E-007
  -8.5999999999999965E-003    -5.8680001302491291E-007
  -8.5000000000000006E-003    -6.2016829360800330E-007
  -8.3999999999999977E-003    -6.5590910480750608E-007
  -8.3000000000000018E-003    -6.9429927407327341E-007
  -8.1999999999999990E-003    -7.3562324587328476E-007
  -8.0999999999999961E-003    -7.8017131954766228E-007
  -8.0000000000000002E-003    -8.2823788716268609E-007
  -7.8999999999999973E-003    -8.8011972820822848E-007
  -7.8000000000000014E-003    -9.3611487272937666E-007
  -7.6999999999999985E-003    -9.9652129392779898E-007
  -7.6000000000000026E-003    -1.0616359986670432E-006
  -7.4999999999999997E-003    -1.1317545158817666E-006
  -7.3999999999999969E-003    -1.2071704986738041E-006
  -7.3000000000000009E-003    -1.2881755537819117E-006
  -7.1999999999999981E-003    -1.3750600373896305E-006
  -7.1000000000000021E-003    -1.4681130551252863E-006
  -6.9999999999999993E-003    -1.5676238263040432E-006
  -6.8999999999999964E-003    -1.6738825934226043E-006
  -6.8000000000000005E-003    -1.7871822137749405E-006
  -6.6999999999999976E-003    -1.9078197510680184E-006
  -6.6000000000000017E-003    -2.0360982944112038E-006
  -6.4999999999999988E-003    -2.1723287773056654E-006
  -6.3999999999999960E-003    -2.3168324787548045E-006
  -6.3000000000000000E-003    -2.4699434106878471E-006
  -6.1999999999999972E-003    -2.6320101369492477E-006
  -6.1000000000000013E-003    -2.8033982744091190E-006
  -5.9999999999999984E-003    -2.9844927666999865E-006
  -5.9000000000000025E-003    -3.1757003853272181E-006
  -5.7999999999999996E-003    -3.3774520034057787E-006
  -5.6999999999999967E-003    -3.5902048693969846E-006
  -5.6000000000000008E-003    -3.8144444260979071E-006
  -5.4999999999999979E-003    -4.0506865843781270E-006
  -5.4000000000000020E-003    -4.2994806790375151E-006
  -5.2999999999999992E-003    -4.5614092414325569E-006
  -5.1999999999999963E-003    -4.8370920922025107E-006
  -5.1000000000000004E-003    -5.1271863412694074E-006
  -4.9999999999999975E-003    -5.4323904805642087E-006
  -4.9000000000000016E-003    -5.7534434745321050E-006
  -4.7999999999999987E-003    -6.0911288528586738E-006
  -4.6999999999999958E-003    -6.4462742557225283E-006
  -4.5999999999999999E-003    -6.8197550717741251E-006
  -4.4999999999999971E-003    -7.2124939833884127E-006
  -4.4000000000000011E-003    -7.6254659688856918E-006
  -4.2999999999999983E-003    -8.0596964835422114E-006
  -4.2000000000000023E-003    -8.5162664618110284E-006
  -4.0999999999999995E-003    -8.9963123173220083E-006
  -3.9999999999999966E-003    -9.5010273071238771E-006
  -3.9000000000000007E-003    -1.0031664714915678E-005
  -3.7999999999999978E-003    -1.0589541489025578E-005
  -3.7000000000000019E-003    -1.1176036423421465E-005
  -3.5999999999999990E-003    -1.1792593795689754E-005
  -3.4999999999999962E-003    -1.2440727005014196E-005
  -3.4000000000000002E-003    -1.3122017662681174E-005
  -3.2999999999999974E-003    -1.3838119230058510E-005
  -3.2000000000000015E-003    -1.4590758837584872E-005
  -3.0999999999999986E-003    -1.5381738194264472E-005
  -2.9999999999999957E-003    -1.6212936316151172E-005
  -2.8999999999999998E-003    -1.7086313164327294E-005
  -2.7999999999999969E-003    -1.8003904187935404E-005
  -2.7000000000000010E-003    -1.8967828509630635E-005
  -2.5999999999999981E-003    -1.9980290744570084E-005
  -2.5000000000000022E-003    -2.1043575543444604E-005
  -2.3999999999999994E-003    -2.2160060325404629E-005
  -2.2999999999999965E-003    -2.3332202545134351E-005
  -2.2000000000000006E-003    -2.4562552425777540E-005
  -2.0999999999999977E-003    -2.5853751139948145E-005
  -2.0000000000000018E-003    -2.7208530809730291E-005
  -1.8999999999999989E-003    -2.8629718144657090E-005
  -1.7999999999999960E-003    -3.0120234441710636E-005
  -1.7000000000000001E-003    -3.1683102861279622E-005
  -1.5999999999999973E-003    -3.3321433875244111E-005
  -1.5000000000000013E-003    -3.5038458008784801E-005
  -1.3999999999999985E-003    -3.6837496736552566E-005
  -1.2999999999999956E-003    -3.8721987948520109E-005
  -1.1999999999999997E-003    -4.0695471398066729E-005
  -1.0999999999999968E-003    -4.2761614167829975E-005
  -1.0000000000000009E-003    -4.4924192479811609E-005
  -8.9999999999999802E-004    -4.7187102609314024E-005
  -8.0000000000000210E-004    -4.9554371798876673E-005
  -6.9999999999999923E-004    -5.2030161896254867E-005
  -5.9999999999999637E-004    -5.4618765716440976E-005
  -5.0000000000000044E-004    -5.7324614317622036E-005
  -3.9999999999999758E-004    -6.0152295191073790E-005
  -3.0000000000000165E-004    -6.3106534071266651E-005
  -1.9999999999999879E-004    -6.6192224039696157E-005
  -9.9999999999995925E-005    -6.9414418248925358E-005
   0.0000000000000000         -7.2778333560563624E-005
   1.0000000000000286E-004    -7.6289368735160679E-005
   1.9999999999999879E-004    -7.9953089880291373E-005
   3.0000000000000165E-004    -8.3775252278428525E-005
   4.0000000000000452E-004    -8.7761814938858151E-005
   5.0000000000000044E-004    -9.1918911493849009E-005
   6.0000000000000331E-004    -9.6252893854398280E-005
   6.9999999999999923E-004    -1.0077031038235873E-004
   8.0000000000000210E-004    -1.0547792044235393E-004
   8.9999999999999802E-004    -1.1038270895369351E-004
   1.0000000000000009E-003    -1.1549186456250027E-004
   1.1000000000000038E-003    -1.2081280874554068E-004
   1.1999999999999997E-003    -1.2635320308618248E-004
   1.3000000000000025E-003    -1.3212091289460659E-004
   1.3999999999999985E-003    -1.3812405813951045E-004
   1.5000000000000013E-003    -1.4437097706831992E-004
   1.6000000000000042E-003    -1.5087029896676540E-004
   1.7000000000000001E-003    -1.5763082774356008E-004
   1.8000000000000030E-003    -1.6466164379380643E-004
   1.8999999999999989E-003    -1.7197208944708109E-004
   2.0000000000000018E-003    -1.7957173986360431E-004
   2.1000000000000046E-003    -1.8747038848232478E-004
   2.2000000000000006E-003    -1.9567811978049576E-004
   2.3000000000000034E-003    -2.0420523651409894E-004
   2.3999999999999994E-003    -2.1306230337359011E-004
   2.5000000000000022E-003    -2.2226014698389918E-004
   2.5999999999999981E-003    -2.3180979769676924E-004
   2.7000000000000010E-003    -2.4172257690224797E-004
   2.8000000000000039E-003    -2.5201000971719623E-004
   2.8999999999999998E-003    -2.6268386864103377E-004
   3.0000000000000027E-003    -2.7375618810765445E-004
   3.0999999999999986E-003    -2.8523922082968056E-004
   3.2000000000000015E-003    -2.9714545235037804E-004
   3.3000000000000043E-003    -3.0948760104365647E-004
   3.4000000000000002E-003    -3.2227858901023865E-004
   3.5000000000000031E-003    -3.3553157118149102E-004
   3.5999999999999990E-003    -3.4925993531942368E-004
   3.7000000000000019E-003    -3.6347724380902946E-004
   3.7999999999999978E-003    -3.7819732096977532E-004
   3.9000000000000007E-003    -3.9343416574411094E-004
   4.0000000000000036E-003    -4.0920198080129921E-004
   4.0999999999999995E-003    -4.2551517253741622E-004
   4.2000000000000023E-003    -4.4238835107535124E-004
   4.2999999999999983E-003    -4.5983627205714583E-004
   4.4000000000000011E-003    -4.7787395305931568E-004
   4.5000000000000040E-003    -4.9651652807369828E-004
   4.5999999999999999E-003    -5.1577936392277479E-004
   4.7000000000000028E-003    -5.3567794384434819E-004
   4.7999999999999987E-003    -5.5622798390686512E-004
   4.9000000000000016E-003    -5.7744531659409404E-004
   5.0000000000000044E-003    -5.9934594901278615E-004
   5.1000000000000004E-003    -6.2194612110033631E-004
   5.2000000000000032E-003    -6.4526213100180030E-004
   5.2999999999999992E-003    -6.6931050969287753E-004
   5.4000000000000020E-003    -6.9410784635692835E-004
   5.4999999999999979E-003    -7.1967090480029583E-004
   5.6000000000000008E-003    -7.4601662345230579E-004
   5.7000000000000037E-003    -7.7316199894994497E-004
   5.7999999999999996E-003    -8.0112420255318284E-004
   5.9000000000000025E-003    -8.2992040552198887E-004
   5.9999999999999984E-003    -8.5956801194697618E-004
   6.1000000000000013E-003    -8.9008436771109700E-004
   6.2000000000000041E-003    -9.2148693511262536E-004
   6.3000000000000000E-003    -9.5379323465749621E-004
   6.4000000000000029E-003    -9.8702078685164452E-004
   6.4999999999999988E-003    -1.0211870539933443E-003
   6.6000000000000017E-003    -1.0563095565885305E-003
   6.7000000000000046E-003    -1.0924057569354773E-003
   6.8000000000000005E-003    -1.1294931173324585E-003
   6.9000000000000034E-003    -1.1675889836624265E-003
   6.9999999999999993E-003    -1.2067104689776897E-003
   7.1000000000000021E-003    -1.2468748027458787E-003
   7.1999999999999981E-003    -1.2880987487733364E-003
   7.3000000000000009E-003    -1.3303991872817278E-003
   7.4000000000000038E-003    -1.3737925328314304E-003
   7.4999999999999997E-003    -1.4182950835675001E-003
   7.6000000000000026E-003    -1.4639226719737053E-003
   7.6999999999999985E-003    -1.5106911305338144E-003
   7.8000000000000014E-003    -1.5586155932396650E-003
   7.9000000000000042E-003    -1.6077109612524509E-003
   8.0000000000000002E-003    -1.6579919029027224E-003
   8.1000000000000030E-003    -1.7094723880290985E-003
   8.1999999999999990E-003    -1.7621661536395550E-003
   8.3000000000000018E-003    -1.8160861218348145E-003
   8.4000000000000047E-003    -1.8712448654696345E-003
   8.5000000000000006E-003    -1.9276543753221631E-003
   8.6000000000000035E-003    -1.9853261765092611E-003
   8.6999999999999994E-003    -2.0442709792405367E-003
   8.8000000000000023E-003    -2.1044986788183451E-003
   8.8999999999999982E-003    -2.1660185884684324E-003
   9.0000000000000011E-003    -2.2288397885859013E-003
   9.1000000000000039E-003    -2.2929699625819921E-003
   9.1999999999999998E-003    -2.3584160953760147E-003
   9.3000000000000027E-003    -2.4251844733953476E-003
   9.3999999999999986E-003    -2.4932804517447948E-003
   9.5000000000000015E-003    -2.5627086870372295E-003
   9.6000000000000044E-003    -2.6334726717323065E-003
   9.7000000000000003E-003    -2.7055749669671059E-003
   9.8000000000000032E-003    -2.7790169697254896E-003
   9.8999999999999991E-003    -2.8537993784993887E-003
   1.0000000000000002E-002    -2.9299217276275158E-003
   1.0100000000000005E-002    -3.0073823872953653E-003
   1.0200000000000001E-002    -3.0861783307045698E-003
   1.0300000000000004E-002    -3.1663053669035435E-003
   1.0400000000000000E-002    -3.2477583736181259E-003
   1.0500000000000002E-002    -3.3305308315902948E-003
   1.0599999999999998E-002    -3.4146145917475224E-003
   1.0700000000000001E-002    -3.5000005736947060E-003
   1.0800000000000004E-002    -3.5866783000528812E-003
   1.0900000000000000E-002    -3.6746354307979345E-003
   1.1000000000000003E-002    -3.7638582289218903E-003
   1.1099999999999999E-002    -3.8543317932635546E-003
   1.1200000000000002E-002    -3.9460393600165844E-003
   1.1300000000000004E-002    -4.0389625355601311E-003
   1.1400000000000000E-002    -4.1330819949507713E-003
   1.1500000000000003E-002    -4.2283753864467144E-003
   1.1599999999999999E-002    -4.3248198926448822E-003
   1.1700000000000002E-002    -4.4223903678357601E-003
   1.1800000000000005E-002    -4.5210598036646843E-003
   1.1900000000000001E-002    -4.6208002604544163E-003
   1.2000000000000004E-002    -4.7215810045599937E-003
   1.2100000000000000E-002    -4.8233694396913052E-003
   1.2200000000000003E-002    -4.9261315725743771E-003
   1.2299999999999998E-002    -5.0298315472900867E-003
   1.2400000000000001E-002    -5.1344307139515877E-003
   1.2500000000000004E-002    -5.2398894913494587E-003
   1.2600000000000000E-002    -5.3461659699678421E-003
   1.2700000000000003E-002    -5.4532163776457310E-003
   1.2799999999999999E-002    -5.5609941482543945E-003
   1.2900000000000002E-002    -5.6694517843425274E-003
   1.3000000000000005E-002    -5.7785385288298130E-003
   1.3100000000000001E-002    -5.8882026933133602E-003
   1.3200000000000003E-002    -5.9983902610838413E-003
   1.3299999999999999E-002    -6.1090444214642048E-003
   1.3400000000000002E-002    -6.2201078981161118E-003
   1.3500000000000005E-002    -6.3315192237496376E-003
   1.3600000000000001E-002    -6.4432164654135704E-003
   1.3700000000000004E-002    -6.5551344305276871E-003
   1.3800000000000000E-002    -6.6672074608504772E-003
   1.3900000000000003E-002    -6.7793661728501320E-003
   1.3999999999999999E-002    -6.8915397860109806E-003
   1.4100000000000001E-002    -7.0036556571722031E-003
   1.4200000000000004E-002    -7.1156392805278301E-003
   1.4300000000000000E-002    -7.2274133563041687E-003
   1.4400000000000003E-002    -7.3388996534049511E-003