  -4.0000000000000001E-002     0.0000000000000000
  -3.9899999999999998E-002     0.0000000000000000
  -3.9800000000000002E-002     0.0000000000000000
  -3.9699999999999999E-002     0.0000000000000000
  -3.9600000000000003E-002     0.0000000000000000
  -3.9500000000000000E-002     0.0000000000000000
  -3.9399999999999998E-002     0.0000000000000000
  -3.9300000000000002E-002     0.0000000000000000
  -3.9199999999999999E-002     0.0000000000000000
  -3.9100000000000003E-002     0.0000000000000000
  -3.9000000000000000E-002     0.0000000000000000
  -3.8900000000000004E-002     0.0000000000000000
  -3.8800000000000001E-002     0.0000000000000000
  -3.8699999999999998E-002     0.0000000000000000
  -3.8600000000000002E-002    -4.2038953929744512E-045
  -3.8500000000000000E-002    -2.6624670822171524E-044
  -3.8400000000000004E-002    -2.3962203739954372E-043
  -3.8300000000000001E-002    -8.8141673406030994E-043
  -3.8199999999999998E-002    -2.4088320601743605E-042
  -3.8100000000000002E-002     7.7645947908238114E-042
  -3.7999999999999999E-002     2.2932249368675631E-041
  -3.7900000000000003E-002     3.2203240008648621E-041
  -3.7800000000000000E-002     1.3029132991445717E-040
  -3.7699999999999997E-002    -3.1794060857065775E-041
  -3.7600000000000001E-002     1.2625376864919807E-039
  -3.7499999999999999E-002     5.2098427189623790E-039
  -3.7400000000000003E-002     1.8798004114571981E-038
  -3.7300000000000000E-002     4.6060843072978599E-038
  -3.7200000000000004E-002     9.3140654337275632E-038
  -3.7100000000000001E-002     1.3756080672147802E-037
  -3.6999999999999998E-002     1.5991740268100902E-037
  -3.6900000000000002E-002     2.7021410927546252E-037
  -3.6799999999999999E-002     5.1177827908423415E-037
  -3.6700000000000003E-002     1.1891040305571153E-036
  -3.6600000000000001E-002     3.3886239821698499E-036
  -3.6499999999999998E-002     5.7039184505987363E-036
  -3.6400000000000002E-002     8.2692081523872388E-036
  -3.6299999999999999E-002     1.2209187700953594E-035
  -3.6200000000000003E-002     1.7128225474060294E-035
  -3.6100000000000000E-002     2.7717617258849611E-035
  -3.6000000000000004E-002     5.2031277236262650E-035
  -3.5900000000000001E-002     7.2088212734071539E-035
  -3.5799999999999998E-002     9.5226550552217586E-035
  -3.5700000000000003E-002     1.3262873171587475E-034
  -3.5600000000000000E-002     1.5111986626447138E-034
  -3.5500000000000004E-002     1.3553252418664235E-034
  -3.5400000000000001E-002     7.9112130123626790E-035
  -3.5299999999999998E-002    -1.1149702818737336E-034
  -3.5200000000000002E-002    -3.6361810118050638E-034
  -3.5099999999999999E-002    -7.7955295597680104E-034
  -3.5000000000000003E-002    -1.0803439605949774E-033
  -3.4900000000000000E-002    -1.2561070901722914E-033
  -3.4799999999999998E-002    -1.3418945760598058E-033
  -3.4700000000000002E-002    -1.1409384903279586E-033
  -3.4599999999999999E-002     3.1249256874425745E-034
  -3.4500000000000003E-002     1.9568843840642330E-033
  -3.4400000000000000E-002     5.4667543952761149E-033
  -3.4299999999999997E-002     1.0345256887254202E-032
  -3.4200000000000001E-002     1.3558561796039113E-032
  -3.4099999999999998E-002     2.7437078460692668E-032
  -3.4000000000000002E-002     3.3355504437986754E-032
  -3.3900000000000000E-002     4.3472857949871469E-032
  -3.3799999999999997E-002     5.7812575414966333E-032
  -3.3700000000000001E-002     7.3212773924863155E-032
  -3.3599999999999998E-002     1.1905798224746952E-031
  -3.3500000000000002E-002     2.1075544010384367E-031
  -3.3399999999999999E-002     3.2354623895507363E-031
  -3.3300000000000003E-002     4.6862610438186560E-031
  -3.3200000000000000E-002     6.1856647438009862E-031
  -3.3099999999999997E-002     7.6268118841520444E-031
  -3.3000000000000002E-002     8.1261962088163962E-031
  -3.2899999999999999E-002     8.4527814533166507E-031
  -3.2800000000000003E-002     8.4948124293246524E-031
  -3.2700000000000000E-002     7.1770343614878739E-031
  -3.2600000000000004E-002     6.1691344720419829E-031
  -3.2500000000000001E-002     5.9428626240567201E-031
  -3.2399999999999998E-002     6.0872551779365863E-031
  -3.2300000000000002E-002     4.9128817785272429E-031
  -3.2199999999999999E-002     5.2303550610176633E-031
  -3.2100000000000004E-002     8.6943446020151501E-031
  -3.2000000000000001E-002     1.3974249571106415E-030
  -3.1899999999999998E-002     1.5769228504416567E-030
  -3.1800000000000002E-002     8.9743313696578478E-031
  -3.1699999999999999E-002     9.5849875193732969E-031
  -3.1600000000000003E-002     1.2656538271348763E-030
  -3.1500000000000000E-002     1.0610264036510783E-030
  -3.1399999999999997E-002     7.5134577884079004E-032
  -3.1300000000000001E-002     1.5914841221432587E-030
  -3.1199999999999999E-002     4.9104747422549511E-030
  -3.1100000000000003E-002     1.4741568837051998E-029
  -3.1000000000000000E-002     2.6037910809697046E-029
  -3.0900000000000000E-002     4.1202258885361268E-029
  -3.0800000000000001E-002     5.9065845926332811E-029
  -3.0699999999999998E-002     8.5922860759908824E-029
  -3.0600000000000002E-002     1.1010920659519629E-028
  -3.0499999999999999E-002     1.4294043806066828E-028
  -3.0400000000000000E-002     1.6996342592573294E-028
  -3.0300000000000001E-002     1.9092906318914593E-028
  -3.0200000000000001E-002     2.1071551373292138E-028
  -3.0100000000000002E-002     2.1702069540722923E-028
  -2.9999999999999999E-002     2.0916663272339655E-028
  -2.9899999999999999E-002     1.9232340035769583E-028
  -2.9800000000000000E-002     1.5974402034363893E-028
  -2.9700000000000001E-002     6.5104466859275312E-029
  -2.9600000000000001E-002    -5.1154155055129043E-030
  -2.9499999999999998E-002    -1.0045876284839180E-028
  -2.9400000000000003E-002    -2.4752330905106691E-028
  -2.9300000000000000E-002    -4.0977746611359864E-028
  -2.9200000000000000E-002    -5.1468662574776293E-028
  -2.9100000000000001E-002    -5.9151182678462394E-028
  -2.8999999999999998E-002    -7.2196271748950036E-028
  -2.8900000000000002E-002    -8.3076673339844757E-028
  -2.8799999999999999E-002    -9.9023719946761060E-028
  -2.8700000000000000E-002    -1.1981629073795898E-027
  -2.8600000000000000E-002    -1.3347252071322445E-027
  -2.8500000000000001E-002    -1.4620291764562407E-027
  -2.8400000000000002E-002    -1.4960531363362718E-027
  -2.8299999999999999E-002    -1.6200836025337931E-027
  -2.8200000000000003E-002    -1.6586778904683522E-027
  -2.8100000000000000E-002    -1.5094248679401523E-027
  -2.8000000000000001E-002    -1.3765331980685054E-027
  -2.7900000000000001E-002    -1.3901698413362364E-027
  -2.7799999999999998E-002    -1.0420076408201978E-027
  -2.7700000000000002E-002    -6.1171762449966541E-028
  -2.7600000000000000E-002     5.8632975115738551E-029
  -2.7500000000000000E-002     7.5426672563269635E-028
  -2.7400000000000001E-002     1.5878131055716294E-027
  -2.7299999999999998E-002     2.3292890082199210E-027
  -2.7200000000000002E-002     3.4239586996604600E-027
  -2.7099999999999999E-002     4.5102089957561158E-027
  -2.7000000000000000E-002     5.0994033510386586E-027
  -2.6900000000000000E-002     6.0396608388159733E-027
  -2.6800000000000001E-002     7.0269179505841363E-027
  -2.6700000000000002E-002     7.9049039602835896E-027
  -2.6599999999999999E-002     6.2261451686570894E-027
  -2.6500000000000003E-002     2.6029730903740747E-027
  -2.6400000000000000E-002    -3.4683119033147259E-028
  -2.6300000000000000E-002    -8.0546365393679419E-027
  -2.6200000000000001E-002    -1.5678508802166546E-026
  -2.6099999999999998E-002    -2.3491690734034682E-026
  -2.6000000000000002E-002    -3.3222217584969954E-026
  -2.5899999999999999E-002    -4.4230484938953449E-026
  -2.5800000000000000E-002    -5.9132545069204570E-026
  -2.5700000000000001E-002    -7.5903136268524365E-026
  -2.5599999999999998E-002    -9.3720656822637240E-026
  -2.5500000000000002E-002    -1.0984826475444369E-025
  -2.5399999999999999E-002    -1.2593191834268736E-025
  -2.5300000000000000E-002    -1.3956018073367240E-025
  -2.5200000000000000E-002    -1.5304292293954746E-025
  -2.5100000000000001E-002    -1.6838224928586017E-025
  -2.5000000000000001E-002    -1.8694825092760806E-025
  -2.4899999999999999E-002    -2.1146099422170303E-025
  -2.4800000000000003E-002    -2.4074491618199442E-025
  -2.4700000000000000E-002    -2.7192262200478528E-025
  -2.4600000000000000E-002    -3.0868013822543066E-025
  -2.4500000000000001E-002    -3.8339056610906744E-025
  -2.4399999999999998E-002    -4.6976242893174697E-025
  -2.4299999999999999E-002    -5.4613885709150065E-025
  -2.4199999999999999E-002    -6.2467094628238390E-025
  -2.4100000000000000E-002    -7.0123413726144866E-025
  -2.4000000000000000E-002    -7.4854143549426067E-025
  -2.3900000000000001E-002    -7.6600227998564885E-025
  -2.3800000000000002E-002    -7.7670209348122720E-025
  -2.3699999999999999E-002    -7.8607479641519092E-025
  -2.3599999999999999E-002    -7.9549557056056655E-025
  -2.3500000000000000E-002    -7.9343102296399001E-025
  -2.3400000000000001E-002    -7.9453710456072302E-025
  -2.3300000000000001E-002    -6.8923364004458060E-025
  -2.3199999999999998E-002    -5.5835757295627548E-025
  -2.3099999999999999E-002    -4.2345496259249601E-025
  -2.3000000000000000E-002    -2.4231677083945386E-025
  -2.2900000000000000E-002    -1.5135024930407277E-025
  -2.2800000000000001E-002    -6.5912607526945856E-028
  -2.2700000000000001E-002     1.1740655062854415E-025
  -2.2599999999999999E-002     1.4601199058058725E-025
  -2.2499999999999999E-002     1.8087886605640239E-025
  -2.2400000000000000E-002     2.8336361962462534E-025
  -2.2300000000000000E-002     3.3804427747902171E-025
  -2.2200000000000001E-002     3.0114099455423345E-025
  -2.2100000000000002E-002     3.7498444581410487E-026
  -2.1999999999999999E-002    -2.3214734304312020E-025
  -2.1899999999999999E-002    -7.1981121993372457E-025
  -2.1800000000000000E-002    -1.4572136436234251E-024
  -2.1700000000000001E-002    -2.4918660547561630E-024
  -2.1600000000000001E-002    -4.2581173385065036E-024
  -2.1499999999999998E-002    -5.9873126700949924E-024
  -2.1399999999999999E-002    -7.4707888737598092E-024
  -2.1299999999999999E-002    -9.0457851697742942E-024
  -2.1200000000000000E-002    -1.0667746299781112E-023
  -2.1100000000000001E-002    -1.2505795364389691E-023
  -2.1000000000000001E-002    -1.3983873787310532E-023
  -2.0899999999999998E-002    -1.5131249885849148E-023
  -2.0799999999999999E-002    -1.6456864372757020E-023
  -2.0700000000000000E-002    -1.7173093276712523E-023
  -2.0600000000000000E-002    -1.6830052378911734E-023
  -2.0500000000000001E-002    -1.6177793783482414E-023
  -2.0400000000000001E-002    -1.5102547970673587E-023
  -2.0299999999999999E-002    -1.3290900502840945E-023
  -2.0199999999999999E-002    -1.1604113150225780E-023
  -2.0100000000000000E-002    -9.6509337808047211E-024
  -2.0000000000000000E-002    -6.8446463074587355E-024
  -1.9900000000000001E-002    -2.7331151023604002E-024
  -1.9799999999999998E-002     2.7264882763260911E-024
  -1.9699999999999999E-002     8.6602704231145961E-024
  -1.9599999999999999E-002     1.5372209027070716E-023
  -1.9500000000000000E-002     2.3451492070959995E-023
  -1.9400000000000001E-002     3.3346523081667254E-023
  -1.9300000000000001E-002     4.4409401131403613E-023
  -1.9199999999999998E-002     5.5200945739623774E-023
  -1.9099999999999999E-002     6.5781886574255271E-023
  -1.9000000000000000E-002     7.6827838824409209E-023
  -1.8900000000000000E-002     8.6203526413607835E-023
  -1.8800000000000001E-002     9.3864773131158774E-023
  -1.8700000000000001E-002     1.0133683207097599E-022
  -1.8599999999999998E-002     1.0849862886132616E-022
  -1.8499999999999999E-002     1.1469005100760758E-022
  -1.8400000000000000E-002     1.1999264779475839E-022
  -1.8300000000000000E-002     1.2188657029956196E-022
  -1.8200000000000001E-002     1.2211085923213440E-022
  -1.8100000000000002E-002     1.1964065174796153E-022
  -1.7999999999999999E-002     1.0900752618672786E-022
  -1.7899999999999999E-002     9.7166092910636291E-023
  -1.7800000000000000E-002     8.2615067575517112E-023
  -1.7700000000000000E-002     6.1285234264088943E-023
  -1.7600000000000001E-002     3.5713228859631503E-023
  -1.7499999999999998E-002     4.7803688957422331E-025
  -1.7399999999999999E-002    -4.0459520936420452E-023
  -1.7299999999999999E-002    -8.9207502429802207E-023
  -1.7200000000000000E-002    -1.3932334980017547E-022
  -1.7100000000000001E-002    -1.9304097829160683E-022
  -1.7000000000000001E-002    -2.4599048345329363E-022
  -1.6899999999999998E-002    -2.9750198984807115E-022
  -1.6799999999999999E-002    -3.5492053718824154E-022
  -1.6700000000000000E-002    -4.1572096278353061E-022
  -1.6600000000000000E-002    -4.7335410553347009E-022
  -1.6500000000000001E-002    -5.2666938971968976E-022
  -1.6400000000000001E-002    -5.7205476640758919E-022
  -1.6299999999999999E-002    -6.0889161718618130E-022
  -1.6199999999999999E-002    -6.4125122163287551E-022
  -1.6100000000000000E-002    -6.5521140908264587E-022
  -1.6000000000000000E-002    -6.5866851311368644E-022
  -1.5900000000000001E-002    -6.5222004853004780E-022
  -1.5799999999999998E-002    -6.5202865194177945E-022
  -1.5699999999999999E-002    -6.5173880551253953E-022
  -1.5599999999999999E-002    -6.6369152497425243E-022
  -1.5500000000000000E-002    -7.0685501496916808E-022
  -1.5400000000000000E-002    -7.5265726362470975E-022
  -1.5300000000000001E-002    -7.9172084785768730E-022
  -1.5199999999999998E-002    -8.3031490207987732E-022
  -1.5099999999999999E-002    -8.8756459532100696E-022
  -1.4999999999999999E-002    -9.4510484181074760E-022
  -1.4900000000000000E-002    -9.8669278094043240E-022
  -1.4800000000000001E-002    -1.0101388882468534E-021
  -1.4700000000000001E-002    -9.9466721805913056E-022
  -1.4599999999999998E-002    -9.2405242879158032E-022
  -1.4499999999999999E-002    -8.2292237925196810E-022
  -1.4400000000000000E-002    -6.6078523518167339E-022
  -1.4300000000000000E-002    -4.5429719506014987E-022
  -1.4200000000000001E-002    -2.2303887202758865E-022
  -1.4099999999999998E-002     6.6227277441343055E-023
  -1.3999999999999999E-002     3.9524024041782062E-022
  -1.3899999999999999E-002     7.3056138326543956E-022
  -1.3800000000000000E-002     1.1047347461105348E-021
  -1.3700000000000000E-002     1.4772163367909547E-021
  -1.3600000000000001E-002     1.8727088359936033E-021
  -1.3499999999999998E-002     2.2669532941353198E-021
  -1.3399999999999999E-002     2.6395545392378437E-021
  -1.3299999999999999E-002     2.9450245038560774E-021
  -1.3200000000000000E-002     3.1363978680593705E-021
  -1.3100000000000001E-002     3.2076583873094984E-021
  -1.3000000000000001E-002     3.1423876573582774E-021
  -1.2899999999999998E-002     2.9283552797053567E-021
  -1.2799999999999999E-002     2.5663446121622825E-021
  -1.2699999999999999E-002     2.2562371046762100E-021
  -1.2600000000000000E-002     1.8334751102405876E-021
  -1.2500000000000001E-002     1.2733751837528246E-021
  -1.2399999999999998E-002     6.3831438714604631E-022
  -1.2299999999999998E-002    -8.5809506168668044E-023
  -1.2199999999999999E-002    -8.5363484212856084E-022
  -1.2100000000000000E-002    -1.7135044369552051E-021
  -1.2000000000000000E-002    -2.6727592977039554E-021
  -1.1900000000000001E-002    -3.6840770596875711E-021
  -1.1799999999999998E-002    -4.7093306743397528E-021
  -1.1699999999999999E-002    -5.7270572685351288E-021
  -1.1599999999999999E-002    -6.7002283929584468E-021
  -1.1500000000000000E-002    -7.6980521653546160E-021
  -1.1400000000000000E-002    -8.6336112096105631E-021
  -1.1300000000000001E-002    -9.4516185184173484E-021
  -1.1199999999999998E-002    -1.0283156369470485E-020
  -1.1099999999999999E-002    -1.1115836440627283E-020
  -1.0999999999999999E-002    -1.1936989297583757E-020
  -1.0900000000000000E-002    -1.2762518780085946E-020
  -1.0800000000000001E-002    -1.3686583729677814E-020
  -1.0699999999999998E-002    -1.4581242570052136E-020
  -1.0599999999999998E-002    -1.5478051756901668E-020
  -1.0499999999999999E-002    -1.6483258762499726E-020
  -1.0400000000000000E-002    -1.7311752847392609E-020
  -1.0300000000000000E-002    -1.8237652296175012E-020
  -1.0200000000000001E-002    -1.8990344648332786E-020
  -1.0099999999999998E-002    -1.9755748440060027E-020
  -9.9999999999999985E-003    -2.0219397713680204E-020
  -9.8999999999999991E-003    -2.0789060199439282E-020
  -9.7999999999999997E-003    -2.1222170029467486E-020
  -9.7000000000000003E-003    -2.1485772457407676E-020
  -9.6000000000000009E-003    -2.1557792100662342E-020
  -9.4999999999999980E-003    -2.1589215270416554E-020
  -9.3999999999999986E-003    -2.1305235441956576E-020
  -9.2999999999999992E-003    -2.0734013914613292E-020
  -9.1999999999999998E-003    -1.9383257054882608E-020
  -9.1000000000000004E-003    -1.7229000858807494E-020
  -9.0000000000000011E-003    -1.4052147477225102E-020
  -8.8999999999999982E-003    -1.0379783828155036E-020
  -8.7999999999999988E-003    -5.8029708806792593E-021
  -8.6999999999999994E-003    -6.0547889131422485E-022
  -8.5999999999999965E-003     5.1306923586270737E-021
  -8.5000000000000006E-003     1.1313342775539224E-020
  -8.3999999999999977E-003     1.7558738961660713E-020
  -8.3000000000000018E-003     2.3537886388116696E-020
  -8.1999999999999990E-003     2.9538949254043932E-020
  -8.0999999999999961E-003     3.4697606214268337E-020
  -8.0000000000000002E-003     3.9086810721407966E-020
  -7.8999999999999973E-003     4.1866279751253921E-020
  -7.8000000000000014E-003     4.3805065091281774E-020
  -7.6999999999999985E-003     4.3906585355601320E-020
  -7.6000000000000026E-003     4.1265717545972013E-020
  -7.4999999999999997E-003     3.6518634639281024E-020
  -7.3999999999999969E-003     3.0177503606366460E-020
  -7.3000000000000009E-003     2.1585775685408496E-020
  -7.1999999999999981E-003     1.0969037731293263E-020
  -7.1000000000000021E-003    -1.4203053614898652E-021
  -6.9999999999999993E-003    -1.5673802756392635E-020
  -6.8999999999999964E-003    -3.3146500394063628E-020
  -6.8000000000000005E-003    -5.3537565549829861E-020
  -6.6999999999999976E-003    -7.6401516227391781E-020
  -6.6000000000000017E-003    -1.0158840978485281E-019
  -6.4999999999999988E-003    -1.2848420678906011E-019
  -6.3999999999999960E-003    -1.5710469475748608E-019
  -6.3000000000000000E-003    -1.8672136667736732E-019
  -6.1999999999999972E-003    -2.1630316776455062E-019
  -6.1000000000000013E-003    -2.4644005874154529E-019
  -5.9999999999999984E-003    -2.7317089137468508E-019
  -5.9000000000000025E-003    -2.9787962930165072E-019
  -5.7999999999999996E-003    -3.1928799413271219E-019
  -5.6999999999999967E-003    -3.3587591224533262E-019
  -5.6000000000000008E-003    -3.4705138081486545E-019
  -5.4999999999999979E-003    -3.5038450509314787E-019
  -5.4000000000000020E-003    -3.4404108962002598E-019
  -5.2999999999999992E-003    -3.2955162532387602E-019
  -5.1999999999999963E-003    -3.0421740960684959E-019
  -5.1000000000000004E-003    -2.6858140899290532E-019
  -4.9999999999999975E-003    -2.2100655550161835E-019
  -4.9000000000000016E-003    -1.6170176393644661E-019
  -4.7999999999999987E-003    -9.1898150467507482E-020
  -4.6999999999999958E-003    -1.2260966216717514E-020
  -4.5999999999999999E-003     7.6110768704427927E-020
  -4.4999999999999971E-003     1.7348921691229796E-019
  -4.4000000000000011E-003     2.7621863834163671E-019
  -4.2999999999999983E-003     3.8288877405857223E-019
  -4.2000000000000023E-003     4.9199684368524880E-019
  -4.0999999999999995E-003     6.0058534048966550E-019
  -3.9999999999999966E-003     7.0373465947745148E-019
  -3.9000000000000007E-003     7.9532056218841727E-019
  -3.7999999999999978E-003     8.7108436093762188E-019
  -3.7000000000000019E-003     9.3181637510157145E-019
  -3.5999999999999990E-003     9.7413948473315339E-019
  -3.4999999999999962E-003     9.9444883672286160E-019
  -3.4000000000000002E-003     9.8951491116413593E-019
  -3.2999999999999974E-003     9.5464418186377392E-019
  -3.2000000000000015E-003     8.9163504287104244E-019
  -3.0999999999999986E-003     7.9576992805618670E-019
  -2.9999999999999957E-003     6.6554248982495937E-019
  -2.8999999999999998E-003     4.9688165539510414E-019
  -2.7999999999999969E-003     2.9287446281266891E-019
  -2.7000000000000010E-003     6.1767818774276419E-020
  -2.5999999999999981E-003    -1.9182965932427976E-019
  -2.5000000000000022E-003    -4.6742466810753685E-019
  -2.3999999999999994E-003    -7.6318495728225014E-019
  -2.2999999999999965E-003    -1.0727798422019128E-018
  -2.2000000000000006E-003    -1.3833065460816165E-018
  -2.0999999999999977E-003    -1.6898279380377618E-018
  -2.0000000000000018E-003    -1.9842708386894078E-018
  -1.8999999999999989E-003    -2.2552382501592224E-018
  -1.7999999999999960E-003    -2.4923669435404114E-018
  -1.7000000000000001E-003    -2.6780483115432522E-018
  -1.5999999999999973E-003    -2.8186177304792887E-018
  -1.5000000000000013E-003    -2.9047534952305074E-018
  -1.3999999999999985E-003    -2.9183145009878549E-018
  -1.2999999999999956E-003    -2.8707117043015001E-018
  -1.1999999999999997E-003    -2.7535796208415412E-018
  -1.0999999999999968E-003    -2.5627722145827092E-018
  -1.0000000000000009E-003    -2.2922214953464682E-018
  -8.9999999999999802E-004    -1.9428243337119790E-018
  -8.0000000000000210E-004    -1.5241269109359862E-018
  -6.9999999999999923E-004    -1.0468686163088424E-018
  -5.9999999999999637E-004    -5.2132313643603271E-019
  -5.0000000000000044E-004     4.4785348434165271E-020
  -3.9999999999999758E-004     6.4460773759337278E-019
  -3.0000000000000165E-004     1.2642624346357412E-018
  -1.9999999999999879E-004     1.8725379698827357E-018
  -9.9999999999995925E-005     2.4531848454898464E-018
   0.0000000000000000          2.9945650438287587E-018
   1.0000000000000286E-004     3.4725348171802746E-018
   1.9999999999999879E-004     3.8697643181211021E-018
   3.0000000000000165E-004     4.1723205164133980E-018
   4.0000000000000452E-004     4.3613875346634184E-018
   5.0000000000000044E-004     4.4430674842499671E-018
   6.0000000000000331E-004     4.4146190886230434E-018
   6.9999999999999923E-004     4.2768339596288605E-018
   8.0000000000000210E-004     4.0190116888634324E-018
   8.9999999999999802E-004     3.6656666009603806E-018
   1.0000000000000009E-003     3.2178454929848911E-018
   1.1000000000000038E-003     2.6872043737436017E-018
   1.1999999999999997E-003     2.1021653758789875E-018
   1.3000000000000025E-003     1.4966068187515001E-018
   1.3999999999999985E-003     8.8142122346239079E-019
   1.5000000000000013E-003     2.7555986653192065E-019
   1.6000000000000042E-003    -2.8660789758833203E-019
   1.7000000000000001E-003    -8.0229369475223929E-019
   1.8000000000000030E-003    -1.2177464498767046E-018
   1.8999999999999989E-003    -1.5138648048590767E-018
   2.0000000000000018E-003    -1.6701827086823571E-018
   2.1000000000000046E-003    -1.6902019270722123E-018
   2.2000000000000006E-003    -1.5602718085724095E-018
   2.3000000000000034E-003    -1.2956586951706508E-018
   2.3999999999999994E-003    -9.0863608600084481E-019
   2.5000000000000022E-003    -4.4447118159101460E-019
   2.5999999999999981E-003     5.1783829560118070E-020
   2.7000000000000010E-003     5.6008414785601989E-019
   2.8000000000000039E-003     1.0188259527723759E-018
   2.8999999999999998E-003     1.3455457511185708E-018
   3.0000000000000027E-003     1.4984160695463067E-018
   3.0999999999999986E-003     1.4413584950608942E-018
   3.2000000000000015E-003     1.0786758822106142E-018
   3.3000000000000043E-003     3.6075081007784484E-019
   3.4000000000000002E-003    -7.3110668633229058E-019
   3.5000000000000031E-003    -2.2592626906344460E-018
   3.5999999999999990E-003    -4.2001377732329437E-018
   3.7000000000000019E-003    -6.5155015073719612E-018
   3.7999999999999978E-003    -9.2608601936956441E-018
   3.9000000000000007E-003    -1.2353386583107833E-017
   4.0000000000000036E-003    -1.5735595758939154E-017
   4.0999999999999995E-003    -1.9240108551420117E-017
   4.2000000000000023E-003    -2.2833202461338157E-017
   4.2999999999999983E-003    -2.6316569208639814E-017
   4.4000000000000011E-003    -2.9529057466387505E-017
   4.5000000000000040E-003    -3.2271578096029519E-017
   4.5999999999999999E-003    -3.4339761237983603E-017
   4.7000000000000028E-003    -3.5537366563727677E-017
   4.7999999999999987E-003    -3.5669497086054448E-017
   4.9000000000000016E-003    -3.4560750810433270E-017
   5.0000000000000044E-003    -3.2071995957832724E-017
   5.1000000000000004E-003    -2.8045925936802377E-017
   5.2000000000000032E-003    -2.2413795420994171E-017
   5.2999999999999992E-003    -1.5210086261422991E-017
   5.4000000000000020E-003    -6.4166798939514761E-018
   5.4999999999999979E-003     3.8675135596743454E-018
   5.6000000000000008E-003     1.5455363511018440E-017
   5.7000000000000037E-003     2.8034768924700262E-017
   5.7999999999999996E-003     4.1326400006847392E-017
   5.9000000000000025E-003     5.4972726135657260E-017
   5.9999999999999984E-003     6.8368462860977865E-017
   6.1000000000000013E-003     8.1125996656489306E-017
   6.2000000000000041E-003     9.2644678592192328E-017
   6.3000000000000000E-003     1.0229094125843052E-016
   6.4000000000000029E-003     1.0959274245812191E-016
   6.4999999999999988E-003     1.1396129503125126E-016
   6.6000000000000017E-003     1.1498529169003271E-016
   6.7000000000000046E-003     1.1221508367092732E-016
   6.8000000000000005E-003     1.0540109403951560E-016
   6.9000000000000034E-003     9.4329446976615833E-017
   6.9999999999999993E-003     7.8933372463182744E-017
   7.1000000000000021E-003     5.9314441660992943E-017
   7.1999999999999981E-003     3.5786721813743012E-017
   7.3000000000000009E-003     8.7266413115099097E-018
   7.4000000000000038E-003    -2.1245715480034564E-017
   7.4999999999999997E-003    -5.3368055304308491E-017
   7.6000000000000026E-003    -8.6729443857376623E-017
   7.6999999999999985E-003    -1.2022408458968215E-016
   7.8000000000000014E-003    -1.5259399129948707E-016
   7.9000000000000042E-003    -1.8282250607440452E-016
   8.0000000000000002E-003    -2.0956398472882302E-016
   8.1000000000000030E-003    -2.3151379800062395E-016
   8.1999999999999990E-003    -2.4737012242432644E-016
   8.3000000000000018E-003    -2.5621740802817721E-016
   8.4000000000000047E-003    -2.5716531730549357E-016
   8.5000000000000006E-003    -2.4931488360144271E-016
   8.6000000000000035E-003    -2.3236241913465435E-016
   8.6999999999999994E-003    -2.0623252473793305E-016
   8.8000000000000023E-003    -1.7100899049860799E-016
   8.8999999999999982E-003    -1.2739124063798461E-016
   9.0000000000000011E-003    -7.6505339284988491E-017
   9.1000000000000039E-003    -1.9818273058008956E-017
   9.1999999999999998E-003     4.1226354166120328E-017
   9.3000000000000027E-003     1.0462644270458214E-016
   9.3999999999999986E-003     1.6808124758620310E-016
   9.5000000000000015E-003     2.2895853782677414E-016
   9.6000000000000044E-003     2.8473041638710868E-016
   9.7000000000000003E-003     3.3269717750607046E-016
   9.8000000000000032E-003     3.7040065216138870E-016
   9.8999999999999991E-003     3.9556308934855778E-016
   1.0000000000000002E-002     4.0609599698722420E-016
   1.0100000000000005E-002     4.0010842696220196E-016
   1.0200000000000001E-002     3.7638006949429362E-016
   1.0300000000000004E-002     3.3460779266750054E-016
   1.0400000000000000E-002     2.7506587633805552E-016
   1.0500000000000002E-002     1.9841351066226940E-016
   1.0599999999999998E-002     1.0639654965844151E-016
   1.0700000000000001E-002     1.1085062898459609E-018
   1.0800000000000004E-002    -1.1395283793666852E-016
   1.0900000000000000E-002    -2.3482831733256883E-016
   1.1000000000000003E-002    -3.5700659957579525E-016
   1.1099999999999999E-002    -4.7552689062696518E-016
   1.1200000000000002E-002    -5.8553841808561043E-016
   1.1300000000000004E-002    -6.8107055258565387E-016
   1.1400000000000000E-002    -7.5692378238037495E-016
   1.1500000000000003E-002    -8.0797175819387226E-016
   1.1599999999999999E-002    -8.2951461183918690E-016
   1.1700000000000002E-002    -8.1803387433254291E-016
   1.1800000000000005E-002    -7.7041521728512304E-016
   1.1900000000000001E-002    -6.8504112540502681E-016
   1.2000000000000004E-002    -5.6133916323858790E-016
   1.2100000000000000E-002    -4.0052000556522875E-016
   1.2200000000000003E-002    -2.0520156652711636E-016
   1.2299999999999998E-002     2.0404408276980356E-017
   1.2400000000000001E-002     2.7039758659816145E-016
   1.2500000000000004E-002     5.3723827009256528E-016
   1.2600000000000000E-002     8.1202068156086622E-016
   1.2700000000000003E-002     1.0843732731408498E-015
   1.2799999999999999E-002     1.3434541819263386E-015
   1.2900000000000002E-002     1.5777481538180880E-015
   1.3000000000000005E-002     1.7753838103020921E-015
   1.3100000000000001E-002     1.9246941195628703E-015
   1.3200000000000003E-002     2.0144275194455699E-015
   1.3299999999999999E-002     2.0352713062116038E-015
   1.3400000000000002E-002     1.9797650254197927E-015
   1.3500000000000005E-002     1.8414079109581967E-015
   1.3600000000000001E-002     1.6173172979490726E-015
   1.3700000000000004E-002     1.3074526346900706E-015
   1.3800000000000000E-002     9.1429413952986982E-016
   1.3900000000000003E-002     4.4481003488817603E-016
   1.3999999999999999E-002    -9.0877959770121970E-017
   1.4100000000000001E-002    -6.7961646171301425E-016
   1.4200000000000004E-002    -1.3040514797694894E-015
   1.4300000000000000E-002    -1.9447158608535938E-015
   1.4400000000000003E-002    -2.5796377820717876E-015
   1.4499999999999999E-002    -3.1845577962982341E-015