  -4.0000000000000001E-002     0.0000000000000000
  -3.9899999999999998E-002     0.0000000000000000
  -3.9800000000000002E-002     0.0000000000000000
  -3.9699999999999999E-002     0.0000000000000000
  -3.9600000000000003E-002     0.0000000000000000
  -3.9500000000000000E-002    -8.0772817037727327E-024
  -3.9399999999999998E-002    -1.9276033944685264E-023
  -3.9300000000000002E-002     3.5090268558222091E-023
  -3.9199999999999999E-002    -6.4594748099561172E-022
  -3.9100000000000003E-002     3.5506576332544911E-022
  -3.9000000000000000E-002     1.9930060598284239E-020
  -3.8900000000000004E-002     5.9496322651068985E-020
  -3.8800000000000001E-002     2.8403808653202559E-020
  -3.8699999999999998E-002     3.5355555367015819E-019
  -3.8600000000000002E-002    -1.0455340637880646E-018
  -3.8500000000000000E-002    -1.0681689306723891E-018
  -3.8400000000000004E-002    -3.1110216309209915E-019
  -3.8300000000000001E-002    -6.4955767943670901E-018
  -3.8199999999999998E-002     5.7209196691693420E-019
  -3.8100000000000002E-002    -2.2359921147698592E-017
  -3.7999999999999999E-002    -1.5492422856822040E-017
  -3.7900000000000003E-002    -9.3696298947529982E-019
  -3.7800000000000000E-002    -2.8641704427354920E-017
  -3.7699999999999997E-002     2.3316702764265203E-017
  -3.7600000000000001E-002    -9.5598388358386481E-018
  -3.7499999999999999E-002     3.8817164162280034E-017
  -3.7400000000000003E-002    -2.2830557137739213E-017
  -3.7300000000000000E-002    -4.2407266987103083E-017
  -3.7200000000000004E-002     1.9609765641002714E-017
  -3.7100000000000001E-002    -6.5549444568286947E-017
  -3.6999999999999998E-002    -5.9791650428180910E-018
  -3.6900000000000002E-002     1.7663757737267202E-016
  -3.6799999999999999E-002     9.5893837420855721E-017
  -3.6700000000000003E-002    -3.4433732264292077E-017
  -3.6600000000000001E-002    -4.8668392258141512E-017
  -3.6499999999999998E-002     8.5162677750417483E-017
  -3.6400000000000002E-002     6.5469016142967191E-017
  -3.6299999999999999E-002    -1.4767509098028006E-015
  -3.6200000000000003E-002    -2.0491512116017864E-015
  -3.6100000000000000E-002     8.3497262745349759E-016
  -3.6000000000000004E-002    -5.3983171557046850E-015
  -3.5900000000000001E-002     8.7510330148895263E-016
  -3.5799999999999998E-002     2.2815579940870532E-015
  -3.5700000000000003E-002    -5.2560833832017428E-015
  -3.5600000000000000E-002     9.6872471494844758E-017
  -3.5500000000000004E-002    -8.7866496915303856E-016
  -3.5400000000000001E-002    -4.1716821579736336E-015
  -3.5299999999999998E-002     1.4839006090314557E-015
  -3.5200000000000002E-002     5.4486143956291189E-015
  -3.5099999999999999E-002    -1.4542935676238947E-014
  -3.5000000000000003E-002    -1.4963904274760756E-014
  -3.4900000000000000E-002     6.9947074194308764E-017
  -3.4799999999999998E-002     2.3412973220327676E-015
  -3.4700000000000002E-002     9.0028997440632502E-015
  -3.4599999999999999E-002     2.0479618502888992E-014
  -3.4500000000000003E-002     8.4408933835600219E-015
  -3.4400000000000000E-002     6.9575210054502977E-015
  -3.4299999999999997E-002     3.6169536739598038E-014
  -3.4200000000000001E-002     7.5704467515777182E-015
  -3.4099999999999998E-002    -4.1141931848105370E-014
  -3.4000000000000002E-002     2.7674880480809891E-014
  -3.3900000000000000E-002     8.2336501711684912E-014
  -3.3799999999999997E-002     6.5870099901898377E-014
  -3.3700000000000001E-002     1.2555795704354000E-013
  -3.3599999999999998E-002     9.8770031866854402E-014
  -3.3500000000000002E-002     1.1442836424496033E-013
  -3.3399999999999999E-002    -1.2303787817139616E-013
  -3.3300000000000003E-002     2.0084863880018809E-014
  -3.3200000000000000E-002    -4.7471237315697360E-015
  -3.3099999999999997E-002     6.4292734818730685E-014
  -3.3000000000000002E-002    -8.9294748624371006E-014
  -3.2899999999999999E-002    -1.0876913383644701E-013
  -3.2800000000000003E-002    -1.1385620365348542E-013
  -3.2700000000000000E-002    -2.7398873100881183E-013
  -3.2600000000000004E-002    -1.5919978822633712E-013
  -3.2500000000000001E-002    -1.6497538740927603E-013
  -3.2399999999999998E-002    -6.8110427508486643E-014
  -3.2300000000000002E-002    -1.3910975236314238E-013
  -3.2199999999999999E-002    -1.4135799464558979E-013
  -3.2100000000000004E-002    -3.1109346327294618E-013
  -3.2000000000000001E-002     4.8216327306650764E-014
  -3.1899999999999998E-002    -1.3501014000348588E-013
  -3.1800000000000002E-002     7.4749688589500346E-014
  -3.1699999999999999E-002     6.4083172091316393E-014
  -3.1600000000000003E-002     1.7399759272827310E-014
  -3.1500000000000000E-002    -5.2607489762004911E-013
  -3.1399999999999997E-002    -9.6863858080331600E-013
  -3.1300000000000001E-002     3.4329920091565047E-013
  -3.1199999999999999E-002     2.7342030413856841E-014
  -3.1100000000000003E-002    -4.0344133199129995E-013
  -3.1000000000000000E-002    -9.0543127466077844E-013
  -3.0900000000000000E-002     3.7230288296719038E-013
  -3.0800000000000001E-002    -6.3050815111466429E-014
  -3.0699999999999998E-002    -6.3485067897106617E-013
  -3.0600000000000002E-002     9.2045972623425176E-014
  -3.0499999999999999E-002     1.1819856074804513E-012
  -3.0400000000000000E-002     1.2496194400427041E-012
  -3.0300000000000001E-002     1.7389659590777429E-012
  -3.0200000000000001E-002     1.1928133177366296E-012
  -3.0100000000000002E-002     1.5955591882443887E-012
  -2.9999999999999999E-002     2.1140524227025725E-012
  -2.9899999999999999E-002     1.0344501947742724E-012
  -2.9800000000000000E-002     1.6552631661170825E-012
  -2.9700000000000001E-002     5.4490369464851862E-013
  -2.9600000000000001E-002    -7.4721500688268438E-013
  -2.9499999999999998E-002    -6.3312847803018157E-013
  -2.9400000000000003E-002     3.2734654830529619E-013
  -2.9300000000000000E-002     6.4719409031185199E-014
  -2.9200000000000000E-002    -6.0199431160465333E-014
  -2.9100000000000001E-002     6.7888729340037039E-015
  -2.8999999999999998E-002    -2.4606189481801710E-012
  -2.8900000000000002E-002     1.0904975924000415E-013
  -2.8799999999999999E-002    -2.4633156368099492E-014
  -2.8700000000000000E-002     2.4600392794886516E-013
  -2.8600000000000000E-002    -1.9979246122098226E-012
  -2.8500000000000001E-002    -2.3620595496903762E-012
  -2.8400000000000002E-002    -6.4218883032499119E-013
  -2.8299999999999999E-002    -5.0087481905103370E-012
  -2.8200000000000003E-002     9.4302528026030119E-013
  -2.8100000000000000E-002     3.4989817033342918E-012
  -2.8000000000000001E-002    -9.4573671810538329E-012
  -2.7900000000000001E-002     4.0085222467733939E-012
  -2.7799999999999998E-002     4.2285567408706370E-012
  -2.7700000000000002E-002     2.1544636734371903E-013
  -2.7600000000000000E-002    -2.2889513635188097E-012
  -2.7500000000000000E-002    -3.4923282256522914E-013
  -2.7400000000000001E-002     3.1713013291800873E-012
  -2.7299999999999998E-002     4.0892692877714243E-012
  -2.7200000000000002E-002     1.0421709068647589E-013
  -2.7099999999999999E-002     4.3002064582797761E-012
  -2.7000000000000000E-002    -2.6273252237002387E-012
  -2.6900000000000000E-002    -3.6354875273397758E-012
  -2.6800000000000001E-002    -5.1017731705904623E-012
  -2.6700000000000002E-002    -5.9621161089748465E-013
  -2.6599999999999999E-002     3.3057068367370324E-012
  -2.6500000000000003E-002    -5.6316101955389275E-012
  -2.6400000000000000E-002    -9.5896858162691778E-012
  -2.6300000000000000E-002    -2.1867002999997887E-011
  -2.6200000000000001E-002    -2.3455164893659841E-011
  -2.6099999999999998E-002    -5.0659307478106985E-012
  -2.6000000000000002E-002    -1.1637761934690793E-011
  -2.5899999999999999E-002    -1.6879568923156008E-011
  -2.5800000000000000E-002    -1.9583757358831999E-012
  -2.5700000000000001E-002    -1.8521080502598153E-011
  -2.5599999999999998E-002    -9.8547940641235954E-012
  -2.5500000000000002E-002    -6.1449494581297670E-013
  -2.5399999999999999E-002    -1.7248811753911575E-011
  -2.5300000000000000E-002     7.4085902343479226E-012
  -2.5200000000000000E-002    -1.3058055071263341E-012
  -2.5100000000000001E-002     7.2991144378642403E-012
  -2.5000000000000001E-002     1.2759978837428854E-011
  -2.4899999999999999E-002     1.4268343451195875E-011
  -2.4800000000000003E-002     2.8879858574026862E-011
  -2.4700000000000000E-002     2.8912835667305181E-011
  -2.4600000000000000E-002     2.3518367808783580E-011
  -2.4500000000000001E-002     3.7043968587058274E-011
  -2.4399999999999998E-002     4.0597525341468099E-011
  -2.4299999999999999E-002     3.6634306699312447E-011
  -2.4199999999999999E-002     4.9539240765117398E-011
  -2.4100000000000000E-002     4.6305497630738657E-011
  -2.4000000000000000E-002     4.4142939303881690E-011
  -2.3900000000000001E-002     6.1281965613169120E-011
  -2.3800000000000002E-002     5.0164605108760085E-011
  -2.3699999999999999E-002     4.0304416054626202E-011
  -2.3599999999999999E-002     4.3542097011295411E-011
  -2.3500000000000000E-002     5.9882411529432744E-011
  -2.3400000000000001E-002     2.8163905235745190E-011
  -2.3300000000000001E-002    -2.5325323435576585E-011
  -2.3199999999999998E-002    -2.0665738217906515E-011
  -2.3099999999999999E-002    -2.8981251426474230E-011
  -2.3000000000000000E-002    -2.0126886268734268E-011
  -2.2900000000000000E-002    -1.0515508602759738E-010
  -2.2800000000000001E-002    -9.9985283941173009E-011
  -2.2700000000000001E-002    -7.8623545174405507E-011
  -2.2599999999999999E-002    -8.4366458263929189E-011
  -2.2499999999999999E-002    -7.2845292298229225E-011
  -2.2400000000000000E-002    -8.2503767706576525E-011
  -2.2300000000000000E-002    -6.3427020580153481E-011
  -2.2200000000000001E-002    -9.5056670867954551E-011
  -2.2100000000000002E-002    -6.7391703328922858E-011
  -2.1999999999999999E-002    -2.8933124993080206E-011
  -2.1899999999999999E-002    -6.8984006007521970E-011
  -2.1800000000000000E-002     2.3024871939614222E-011
  -2.1700000000000001E-002    -2.3186130099217550E-011
  -2.1600000000000001E-002    -8.4956356186105531E-012
  -2.1499999999999998E-002    -4.8106896070876370E-012
  -2.1399999999999999E-002     6.0931204526326610E-011
  -2.1299999999999999E-002     1.0956324736355327E-010
  -2.1200000000000000E-002     3.1967323753379073E-012
  -2.1100000000000001E-002     7.8900490307898252E-011
  -2.1000000000000001E-002     9.4594172772577423E-011
  -2.0899999999999998E-002     1.5464804437037571E-010
  -2.0799999999999999E-002     3.8621397746574360E-011
  -2.0700000000000000E-002     4.3727976101193278E-011
  -2.0600000000000000E-002     2.7364270571705873E-011
  -2.0500000000000001E-002    -8.5766125104691504E-012
  -2.0400000000000001E-002    -2.2006181599198982E-011
  -2.0299999999999999E-002    -5.1145001428443138E-011
  -2.0199999999999999E-002     3.9777165936061287E-012
  -2.0100000000000000E-002    -1.1881726158513572E-010
  -2.0000000000000000E-002    -7.0117169015393443E-011
  -1.9900000000000001E-002    -1.4786855073722904E-010
  -1.9799999999999998E-002    -1.1746457972972024E-010
  -1.9699999999999999E-002    -1.7700770016393363E-010
  -1.9599999999999999E-002    -9.1011545522157178E-011
  -1.9500000000000000E-002    -1.9650822635775000E-010
  -1.9400000000000001E-002    -8.1345097324714288E-011
  -1.9300000000000001E-002     2.8180999200877466E-011
  -1.9199999999999998E-002    -2.8572227916967563E-010
  -1.9099999999999999E-002    -3.2377317493725855E-010
  -1.9000000000000000E-002    -3.0223612501600883E-010
  -1.8900000000000000E-002    -1.5730550195769410E-010
  -1.8800000000000001E-002    -2.3479598820763670E-010
  -1.8700000000000001E-002    -2.4014842892050581E-010
  -1.8599999999999998E-002    -2.1639515179749935E-010
  -1.8499999999999999E-002    -1.6956443193993920E-010
  -1.8400000000000000E-002    -9.1486200559653952E-011
  -1.8300000000000000E-002    -1.2620711420385788E-010
  -1.8200000000000001E-002    -1.0359708924045918E-010
  -1.8100000000000002E-002     7.0837169463544569E-011
  -1.7999999999999999E-002     1.7972041910230274E-010
  -1.7899999999999999E-002     3.7070857494825304E-010
  -1.7800000000000000E-002     5.6025312167307106E-010
  -1.7700000000000000E-002     6.9379613165665432E-010
  -1.7600000000000001E-002     8.3185602850477380E-010
  -1.7499999999999998E-002     8.9390750357409843E-010
  -1.7399999999999999E-002     1.0536375105729689E-009
  -1.7299999999999999E-002     1.2286093253877084E-009
  -1.7200000000000000E-002     1.4707257633972404E-009
  -1.7100000000000001E-002     1.6985124418056330E-009
  -1.7000000000000001E-002     1.8221402164897427E-009
  -1.6899999999999998E-002     1.8299191051340813E-009
  -1.6799999999999999E-002     2.2077892847249814E-009
  -1.6700000000000000E-002     1.9282937469000672E-009
  -1.6600000000000000E-002     2.0809320933068420E-009
  -1.6500000000000001E-002     1.9562071962297978E-009
  -1.6400000000000001E-002     1.5173435841120408E-009
  -1.6299999999999999E-002     1.3069487714290062E-009
  -1.6199999999999999E-002     6.8977779044132603E-010
  -1.6100000000000000E-002     2.1576178343973851E-010
  -1.6000000000000000E-002     2.5407171158620123E-011
  -1.5900000000000001E-002    -7.1321543115843156E-010
  -1.5799999999999998E-002    -1.4118235469595675E-009
  -1.5699999999999999E-002    -1.8617249963881477E-009
  -1.5599999999999999E-002    -2.6073558867523161E-009
  -1.5500000000000000E-002    -3.2708886710253182E-009
  -1.5400000000000000E-002    -4.1529686356511775E-009
  -1.5300000000000001E-002    -4.6855133106760150E-009
  -1.5199999999999998E-002    -5.4055044884648851E-009
  -1.5099999999999999E-002    -5.7660161090211659E-009
  -1.4999999999999999E-002    -6.1551990171437865E-009
  -1.4900000000000000E-002    -6.4633285390414130E-009
  -1.4800000000000001E-002    -6.5037051300009807E-009
  -1.4700000000000001E-002    -6.5380874048059923E-009
  -1.4599999999999998E-002    -6.5517160585670808E-009
  -1.4499999999999999E-002    -6.2808607204090094E-009
  -1.4400000000000000E-002    -5.5091056161415963E-009
  -1.4300000000000000E-002    -5.1217257102109670E-009
  -1.4200000000000001E-002    -4.4994932224540207E-009
  -1.4099999999999998E-002    -3.8218939124590179E-009
  -1.3999999999999999E-002    -3.0351485769131159E-009
  -1.3899999999999999E-002    -1.8635535337097053E-009
  -1.3800000000000000E-002    -3.4559174966197759E-010
  -1.3700000000000000E-002     6.4433569590960360E-010
  -1.3600000000000001E-002     2.0667658695572300E-009
  -1.3499999999999998E-002     3.4808407267661323E-009
  -1.3399999999999999E-002     4.5848977947571257E-009
  -1.3299999999999999E-002     5.8212417108904901E-009
  -1.3200000000000000E-002     7.3299513125846261E-009
  -1.3100000000000001E-002     8.4764781860258154E-009
  -1.3000000000000001E-002     1.0163946129182477E-008
  -1.2899999999999998E-002     1.1547476752582497E-008
  -1.2799999999999999E-002     1.2628351697685503E-008
  -1.2699999999999999E-002     1.3900940842859200E-008
  -1.2600000000000000E-002     1.4753118726673620E-008
  -1.2500000000000001E-002     1.5841067124711117E-008
  -1.2399999999999998E-002     1.7003221941536140E-008
  -1.2299999999999998E-002     1.7706438981690553E-008
  -1.2199999999999999E-002     1.8953407732169580E-008
  -1.2100000000000000E-002     1.9358202152375270E-008
  -1.2000000000000000E-002     1.9317402788487925E-008
  -1.1900000000000001E-002     1.8588341532677077E-008
  -1.1799999999999998E-002     1.8089401976340014E-008
  -1.1699999999999999E-002     1.6225525811819352E-008
  -1.1599999999999999E-002     1.4451090102340913E-008
  -1.1500000000000000E-002     1.2520208869659655E-008
  -1.1400000000000000E-002     9.8564783002075274E-009
  -1.1300000000000001E-002     6.9082659592822893E-009
  -1.1199999999999998E-002     2.9199103135368887E-009
  -1.1099999999999999E-002    -2.0940356115772829E-009
  -1.0999999999999999E-002    -7.4031349939218671E-009
  -1.0900000000000000E-002    -1.2858288656047989E-008
  -1.0800000000000001E-002    -1.9612604873486816E-008
  -1.0699999999999998E-002    -2.6766715066628421E-008
  -1.0599999999999998E-002    -3.3554243827893515E-008
  -1.0499999999999999E-002    -4.0268858469971747E-008
  -1.0400000000000000E-002    -4.8292822185658224E-008
  -1.0300000000000000E-002    -5.4978610108946668E-008
  -1.0200000000000001E-002    -6.2276534151806118E-008
  -1.0099999999999998E-002    -6.7762115918412746E-008
  -9.9999999999999985E-003    -7.0567146792654967E-008
  -9.8999999999999991E-003    -7.5235675467411056E-008
  -9.7999999999999997E-003    -7.6217531841393793E-008
  -9.7000000000000003E-003    -7.6365850532056356E-008
  -9.6000000000000009E-003    -7.4548559325648966E-008
  -9.4999999999999980E-003    -6.9435238003734412E-008
  -9.3999999999999986E-003    -6.3073365197396924E-008
  -9.2999999999999992E-003    -5.3022194634877451E-008
  -9.1999999999999998E-003    -4.1783479787227407E-008
  -9.1000000000000004E-003    -2.5889871579920509E-008
  -9.0000000000000011E-003    -8.7665332770825444E-009
  -8.8999999999999982E-003     8.0579152239579344E-009
  -8.7999999999999988E-003     2.9453293137748915E-008
  -8.6999999999999994E-003     5.2356917024098948E-008
  -8.5999999999999965E-003     7.7636265416458627E-008
  -8.5000000000000006E-003     1.0313363674185894E-007
  -8.3999999999999977E-003     1.2704234109151002E-007
  -8.3000000000000018E-003     1.5163233513248997E-007
  -8.1999999999999990E-003     1.7568203247719794E-007
  -8.0999999999999961E-003     1.9223138281176944E-007
  -8.0000000000000002E-003     2.0997519811771781E-007
  -7.8999999999999973E-003     2.2518480591315893E-007
  -7.8000000000000014E-003     2.3197509335659561E-007
  -7.6999999999999985E-003     2.3984483732419903E-007
  -7.6000000000000026E-003     2.4219255578827870E-007
  -7.4999999999999997E-003     2.3103734747564886E-007
  -7.3999999999999969E-003     2.1918937420650764E-007
  -7.3000000000000009E-003     1.8854515815291961E-007
  -7.1999999999999981E-003     1.5449886348051223E-007
  -7.1000000000000021E-003     1.1985240178091772E-007
  -6.9999999999999993E-003     7.4153049922642822E-008
  -6.8999999999999964E-003     2.0835754455106326E-008
  -6.8000000000000005E-003    -3.7509174433125736E-008
  -6.6999999999999976E-003    -9.6616908251689892E-008
  -6.6000000000000017E-003    -1.6572317917962209E-007
  -6.4999999999999988E-003    -2.2716179159942840E-007
  -6.3999999999999960E-003    -2.9913542221038369E-007
  -6.3000000000000000E-003    -3.6236343703421880E-007
  -6.1999999999999972E-003    -4.3262451754344511E-007
  -6.1000000000000013E-003    -4.8589163270662539E-007
  -5.9999999999999984E-003    -5.3620090056938352E-007
  -5.9000000000000025E-003    -5.8593343510437990E-007
  -5.7999999999999996E-003    -6.2758095964454697E-007
  -5.6999999999999967E-003    -6.5222809553233674E-007
  -5.6000000000000008E-003    -6.7192166852692026E-007
  -5.4999999999999979E-003    -6.8104276351732551E-007
  -5.4000000000000020E-003    -6.6073675952793565E-007
  -5.2999999999999992E-003    -6.2746585172135383E-007
  -5.1999999999999963E-003    -5.9375082628321252E-007
  -5.1000000000000004E-003    -5.2716910659000860E-007
  -4.9999999999999975E-003    -4.3610225475276820E-007
  -4.9000000000000016E-003    -3.3911572927536326E-007
  -4.7999999999999987E-003    -2.1793792370772280E-007
  -4.6999999999999958E-003    -9.5728786675408628E-008
  -4.5999999999999999E-003     5.0392365835705277E-008
  -4.4999999999999971E-003     2.1524543569739762E-007
  -4.4000000000000011E-003     3.8768052945670206E-007
  -4.2999999999999983E-003     5.7176544032699894E-007
  -4.2000000000000023E-003     7.4721640430652769E-007
  -4.0999999999999995E-003     9.3816350954512018E-007
  -3.9999999999999966E-003     1.1281019851594465E-006
  -3.9000000000000007E-003     1.2935388440382667E-006
  -3.7999999999999978E-003     1.4722212426931947E-006
  -3.7000000000000019E-003     1.6127341950777918E-006
  -3.5999999999999990E-003     1.7531328921904787E-006
  -3.4999999999999962E-003     1.8750226900010603E-006
  -3.4000000000000002E-003     1.9450603758741636E-006
  -3.2999999999999974E-003     1.9883812001353363E-006
  -3.2000000000000015E-003     1.9840783807012485E-006
  -3.0999999999999986E-003     1.9446151782176457E-006
  -2.9999999999999957E-003     1.8335226741328370E-006
  -2.8999999999999998E-003     1.6863946257217322E-006
  -2.7999999999999969E-003     1.5221580724755768E-006
  -2.7000000000000010E-003     1.2745319963869406E-006
  -2.5999999999999981E-003     9.7963436473946786E-007
  -2.5000000000000022E-003     6.5086248923762469E-007
  -2.3999999999999994E-003     3.0323889177452656E-007
  -2.2999999999999965E-003    -1.4088691102642770E-007
  -2.2000000000000006E-003    -5.8880158348983969E-007
  -2.0999999999999977E-003    -1.1165388968947809E-006
  -2.0000000000000018E-003    -1.6144422261277214E-006
  -1.8999999999999989E-003    -2.2063586584408768E-006
  -1.7999999999999960E-003    -2.7469732231111266E-006
  -1.7000000000000001E-003    -3.2840789572219364E-006
  -1.5999999999999973E-003    -3.8165412661328446E-006
  -1.5000000000000013E-003    -4.2626284084690269E-006
  -1.3999999999999985E-003    -4.6813629523967393E-006
  -1.2999999999999956E-003    -5.0020557864627335E-006
  -1.1999999999999997E-003    -5.2553300520230550E-006
  -1.0999999999999968E-003    -5.4204529078560881E-006
  -1.0000000000000009E-003    -5.4568263294640929E-006
  -8.9999999999999802E-004    -5.3599524107994512E-006
  -8.0000000000000210E-004    -5.1758702284132596E-006
  -6.9999999999999923E-004    -4.8458678065799177E-006
  -5.9999999999999637E-004    -4.3809404814965092E-006
  -5.0000000000000044E-004    -3.8007497096259613E-006
  -3.9999999999999758E-004    -3.0421385872614337E-006
  -3.0000000000000165E-004    -2.1651053430105094E-006
  -1.9999999999999879E-004    -1.1696791943904827E-006
  -9.9999999999995925E-005    -1.1835963675821404E-007
   0.0000000000000000          1.0836829460458830E-006
   1.0000000000000286E-004     2.2891767912369687E-006
   1.9999999999999879E-004     3.5488328649080358E-006
   3.0000000000000165E-004     4.8904444156505633E-006
   4.0000000000000452E-004     6.2419853747996967E-006
   5.0000000000000044E-004     7.4088225119339768E-006
   6.0000000000000331E-004     8.7125899881357327E-006
   6.9999999999999923E-004     9.7675883807823993E-006
   8.0000000000000210E-004     1.0781865967146587E-005
   8.9999999999999802E-004     1.1608645763772074E-005
   1.0000000000000009E-003     1.2230342690600082E-005
   1.1000000000000038E-003     1.2650871212827042E-005
   1.1999999999999997E-003     1.2966210306331050E-005
   1.3000000000000025E-003     1.2856882676715031E-005
   1.3999999999999985E-003     1.2424374290276319E-005
   1.5000000000000013E-003     1.1825591172964778E-005
   1.6000000000000042E-003     1.0877603926928714E-005
   1.7000000000000001E-003     9.6753637990332209E-006
   1.8000000000000030E-003     8.0716226875665598E-006
   1.8999999999999989E-003     6.2610056374978740E-006
   2.0000000000000018E-003     4.2023202695418149E-006
   2.1000000000000046E-003     1.7600602859602077E-006
   2.2000000000000006E-003    -6.8684801135532325E-007
   2.3000000000000034E-003    -3.2445300348626915E-006
   2.3999999999999994E-003    -6.0338343246257864E-006
   2.5000000000000022E-003    -9.1849460659432225E-006
   2.5999999999999981E-003    -1.2031227015540935E-005
   2.7000000000000010E-003    -1.4827441191300750E-005
   2.8000000000000039E-003    -1.7437931091990322E-005
   2.8999999999999998E-003    -2.0270987079129554E-005
   3.0000000000000027E-003    -2.2677280867355876E-005
   3.0999999999999986E-003    -2.4613131245132536E-005
   3.2000000000000015E-003    -2.6041951059596613E-005
   3.3000000000000043E-003    -2.7560563466977328E-005
   3.4000000000000002E-003    -2.8481741537689231E-005
   3.5000000000000031E-003    -2.8817279599024914E-005
   3.5999999999999990E-003    -2.8189475415274501E-005
   3.7000000000000019E-003    -2.7471462090034038E-005
   3.7999999999999978E-003    -2.5535859094816260E-005
   3.9000000000000007E-003    -2.3541784685221501E-005
   4.0000000000000036E-003    -2.1004732843721285E-005
   4.0999999999999995E-003    -1.7591086361790076E-005
   4.2000000000000023E-003    -1.3707552170671988E-005
   4.2999999999999983E-003    -8.4199282355257310E-006
   4.4000000000000011E-003    -2.9166317290219013E-006
   4.5000000000000040E-003     2.8010199457639828E-006
   4.5999999999999999E-003     8.1835942182806320E-006
   4.7000000000000028E-003     1.4484851817542221E-005
   4.7999999999999987E-003     2.0657173081417568E-005
   4.9000000000000016E-003     2.6516199795878492E-005
   5.0000000000000044E-003     3.1603634852217510E-005
   5.1000000000000004E-003     3.5958564694738016E-005
   5.2000000000000032E-003     4.0428265492664650E-005
   5.2999999999999992E-003     4.3938984163105488E-005
   5.4000000000000020E-003     4.6306671720230952E-005
   5.4999999999999979E-003     4.7502646339125931E-005
   5.6000000000000008E-003     4.7659883421147242E-005
   5.7000000000000037E-003     4.6536602894775569E-005
   5.7999999999999996E-003     4.4877255277242512E-005
   5.9000000000000025E-003     4.2914532969007269E-005
   5.9999999999999984E-003     3.9911308704176918E-005
   6.1000000000000013E-003     3.5274846595712006E-005
   6.2000000000000041E-003     3.0071312721702270E-005
   6.3000000000000000E-003     2.4174743884941563E-005
   6.4000000000000029E-003     1.8323200492886826E-005
   6.4999999999999988E-003     1.0762849342427216E-005
   6.6000000000000017E-003     3.9278716030821670E-006
   6.7000000000000046E-003    -3.4222869089717278E-006
   6.8000000000000005E-003    -1.2189834706077818E-005
   6.9000000000000034E-003    -2.0070816390216351E-005
   6.9999999999999993E-003    -2.5584706236259080E-005
   7.1000000000000021E-003    -3.1716295779915527E-005
   7.1999999999999981E-003    -3.6565117625286803E-005
   7.3000000000000009E-003    -4.1569637687643990E-005
   7.4000000000000038E-003    -4.4163753045722842E-005
   7.4999999999999997E-003    -4.8821009841049090E-005
   7.6000000000000026E-003    -5.0157133955508471E-005
   7.6999999999999985E-003    -5.2397324907360598E-005
   7.8000000000000014E-003    -5.4491272749146447E-005
   7.9000000000000042E-003    -5.8708890719572082E-005
   8.0000000000000002E-003    -6.0816026234533638E-005
   8.1000000000000030E-003    -6.1726364947389811E-005
   8.1999999999999990E-003    -5.9845671785296872E-005
   8.3000000000000018E-003    -5.9574878832791001E-005
   8.4000000000000047E-003    -5.8620898926164955E-005
   8.5000000000000006E-003    -5.4003048717277125E-005
   8.6000000000000035E-003    -4.8844482080312446E-005
   8.6999999999999994E-003    -4.2220843170071021E-005
   8.8000000000000023E-003    -3.4652373869903386E-005
   8.8999999999999982E-003    -2.9449955036398023E-005
   9.0000000000000011E-003    -2.5038147214218043E-005
   9.1000000000000039E-003    -1.6669513570377603E-005
   9.1999999999999998E-003    -9.8896080089616589E-006
   9.3000000000000027E-003     4.7246717258531135E-006
   9.3999999999999986E-003     1.0812499567691702E-005
   9.5000000000000015E-003     2.8634676709771156E-005
   9.6000000000000044E-003     4.0147573599824682E-005
   9.7000000000000003E-003     5.3446361562237144E-005
   9.8000000000000032E-003     6.3489947933703661E-005
   9.8999999999999991E-003     7.6672396971844137E-005
   1.0000000000000002E-002     9.0298570285085589E-005
   1.0100000000000005E-002     9.8586584499571472E-005
   1.0200000000000001E-002     1.0348631622036919E-004
   1.0300000000000004E-002     1.0234730871161446E-004
   1.0400000000000000E-002     1.0541059600654989E-004
   1.0500000000000002E-002     1.0728960478445515E-004
   1.0599999999999998E-002     1.0897884931182489E-004
   1.0700000000000001E-002     1.1499902757350355E-004
   1.0800000000000004E-002     1.2048751523252577E-004
   1.0900000000000000E-002     1.1699592869263142E-004
   1.1000000000000003E-002     1.1960924894083291E-004
   1.1099999999999999E-002     1.1158934648847207E-004
   1.1200000000000002E-002     9.8083131888415664E-005
   1.1300000000000004E-002     8.7896602053660899E-005
   1.1400000000000000E-002     7.0141803007572889E-005
   1.1500000000000003E-002     5.4008116421755403E-005
   1.1599999999999999E-002     4.4350461394060403E-005
   1.1700000000000002E-002     2.6155179511988536E-005
   1.1800000000000005E-002     3.8901566767890472E-006
   1.1900000000000001E-002    -1.9058525140280835E-005
   1.2000000000000004E-002    -4.6164641389623284E-005
   1.2100000000000000E-002    -5.9832087572431192E-005
   1.2200000000000003E-002    -6.6829648858401924E-005
   1.2299999999999998E-002    -7.9795143392402679E-005
   1.2400000000000001E-002    -9.2278569354675710E-005
   1.2500000000000004E-002    -1.1556714889593422E-004
   1.2600000000000000E-002    -1.2432418589014560E-004
   1.2700000000000003E-002    -1.4717837620992213E-004
   1.2799999999999999E-002    -1.5980719763319939E-004
   1.2900000000000002E-002    -1.5801624977029860E-004
   1.3000000000000005E-002    -1.7212051898241043E-004
   1.3100000000000001E-002    -1.8034345703199506E-004
   1.3200000000000003E-002    -1.7339245823677629E-004
   1.3299999999999999E-002    -1.6459771723020822E-004
   1.3400000000000002E-002    -1.4059488603379577E-004
   1.3500000000000005E-002    -1.4207013009581715E-004
   1.3600000000000001E-002    -1.3684810255654156E-004
   1.3700000000000004E-002    -1.2785219587385654E-004
   1.3800000000000000E-002    -9.8440723377279937E-005
   1.3900000000000003E-002    -6.1915670812595636E-005
   1.3999999999999999E-002    -4.3608426494756714E-005
   1.4100000000000001E-002    -2.6973299100063741E-005
   1.4200000000000004E-002    -1.0648934221535455E-005
   1.4300000000000000E-002     3.9927428588271141E-005
   1.4400000000000003E-002     9.9003933428321034E-005