  -4.0000000000000001E-002     0.0000000000000000
  -3.9899999999999998E-002     0.0000000000000000
  -3.9800000000000002E-002     0.0000000000000000
  -3.9699999999999999E-002     0.0000000000000000
  -3.9600000000000003E-002     0.0000000000000000
  -3.9500000000000000E-002     1.2286281659312045E-020
  -3.9399999999999998E-002     1.5744084027891232E-019
  -3.9300000000000002E-002     1.0709709015998359E-018
  -3.9199999999999999E-002     5.1509760970983612E-018
  -3.9100000000000003E-002     1.9666735224150466E-017
  -3.9000000000000000E-002     6.3429903436460671E-017
  -3.8900000000000004E-002     1.7956239537443092E-016
  -3.8800000000000001E-002     4.5777562115135680E-016
  -3.8699999999999998E-002     1.0703352902268859E-015
  -3.8600000000000002E-002     2.3262900157897896E-015
  -3.8500000000000000E-002     4.7483066130805766E-015
  -3.8400000000000004E-002     9.1752709488295003E-015
  -3.8300000000000001E-002     1.6891368403819385E-014
  -3.8199999999999998E-002     2.9778429207075532E-014
  -3.8100000000000002E-002     5.0482709646696572E-014
  -3.7999999999999999E-002     8.2580115163578827E-014
  -3.7900000000000003E-002     1.3071518151740180E-013
  -3.7800000000000000E-002     2.0067962862215655E-013
  -3.7699999999999997E-002     2.9938665479026239E-013
  -3.7600000000000001E-002     4.3468798439222356E-013
  -3.7499999999999999E-002     6.1497438001364979E-013
  -3.7400000000000003E-002     8.4849710807813339E-013
  -3.7300000000000000E-002     1.1423501034002470E-012
  -3.7200000000000004E-002     1.5010615363533764E-012
  -3.7100000000000001E-002     1.9247619990891973E-012
  -3.6999999999999998E-002     2.4069227513856539E-012
  -3.6900000000000002E-002     2.9316941669438323E-012
  -3.6799999999999999E-002     3.4709255868764499E-012
  -3.6700000000000003E-002     3.9809986904226768E-012
  -3.6600000000000001E-002     4.3996755023922862E-012
  -3.6499999999999998E-002     4.6432267752916090E-012
  -3.6400000000000002E-002     4.6041759814430261E-012
  -3.6299999999999999E-002     4.1500531310079136E-012
  -3.6200000000000003E-002     3.1236057577294085E-012
  -3.6100000000000000E-002     1.3449397845421984E-012
  -3.6000000000000004E-002    -1.3839296462286876E-012
  -3.5900000000000001E-002    -5.2716689520615478E-012
  -3.5799999999999998E-002    -1.0526982063829848E-011
  -3.5700000000000003E-002    -1.7344478284164744E-011
  -3.5600000000000000E-002    -2.5886954038711885E-011
  -3.5500000000000004E-002    -3.6264224262394507E-011
  -3.5400000000000001E-002    -4.8508874000985358E-011
  -3.5299999999999998E-002    -6.2549659896049548E-011
  -3.5200000000000002E-002    -7.8183563789746557E-011
  -3.5099999999999999E-002    -9.5047900106060013E-011
  -3.5000000000000003E-002    -1.1259419785414337E-010
  -3.4900000000000000E-002    -1.3006587473718412E-010
  -3.4799999999999998E-002    -1.4648211810186496E-010
  -3.4700000000000002E-002    -1.6063027297175125E-010
  -3.4599999999999999E-002    -1.7106951966106010E-010
  -3.4500000000000003E-002    -1.7614817937605665E-010
  -3.4400000000000000E-002    -1.7403693763906602E-010
  -3.4299999999999997E-002    -1.6277988679203048E-010
  -3.4200000000000001E-002    -1.4036448392484857E-010
  -3.4099999999999998E-002    -1.0481095852332700E-010
  -3.4000000000000002E-002    -5.4280493294589505E-011
  -3.3900000000000000E-002     1.2799590380641046E-011
  -3.3799999999999997E-002     9.7596694614843216E-011
  -3.3700000000000001E-002     2.0072436768270308E-010
  -3.3599999999999998E-002     3.2209018785422927E-010
  -3.3500000000000002E-002     4.6074724591171901E-010
  -3.3399999999999999E-002     6.1475796675480865E-010
  -3.3300000000000003E-002     7.8107909029512257E-010
  -3.3200000000000000E-002     9.5547880718527267E-010
  -3.3099999999999997E-002     1.1324953197444643E-009
  -3.3000000000000002E-002     1.3054474168328056E-009
  -3.2899999999999999E-002     1.4665062497698500E-009
  -3.2800000000000003E-002     1.6068349983910934E-009
  -3.2700000000000000E-002     1.7168025889802152E-009
  -3.2600000000000004E-002     1.7862734624785048E-009
  -3.2500000000000001E-002     1.8049725047930565E-009
  -3.2399999999999998E-002     1.7629203652447245E-009
  -3.2300000000000002E-002     1.6509287270594086E-009
  -3.2199999999999999E-002     1.4611426513155834E-009
  -3.2100000000000004E-002     1.1876107874897457E-009
  -3.2000000000000001E-002     8.2685991387165814E-010
  -3.1899999999999998E-002     3.7844710698564654E-010
  -3.1800000000000002E-002    -1.5454099111522623E-010
  -3.1699999999999999E-002    -7.6507422619442877E-010
  -3.1600000000000003E-002    -1.4418835014851084E-009
  -3.1500000000000000E-002    -2.1693162821634360E-009
  -3.1399999999999997E-002    -2.9273738988422338E-009
  -3.1300000000000001E-002    -3.6919549639691240E-009
  -3.1199999999999999E-002    -4.4353249961659458E-009
  -3.1100000000000003E-002    -5.1268229661616260E-009
  -3.1000000000000000E-002    -5.7338067627199507E-009
  -3.0900000000000000E-002    -6.2228249220197540E-009
  -3.0800000000000001E-002    -6.5609921939824289E-009
  -3.0699999999999998E-002    -6.7175349727222056E-009
  -3.0600000000000002E-002    -6.6654526342802001E-009
  -3.0499999999999999E-002    -6.3832343855096951E-009
  -3.0400000000000000E-002    -5.8565552407685573E-009
  -3.0300000000000001E-002    -5.0798689699149691E-009
  -3.0200000000000001E-002    -4.0578065352292469E-009
  -3.0100000000000002E-002    -2.8062845380816270E-009
  -2.9999999999999999E-002    -1.3532330811472093E-009
  -2.9899999999999999E-002     2.6114782558650518E-010
  -2.9800000000000000E-002     1.9846781995624951E-009
  -2.9700000000000001E-002     3.7540961450588384E-009
  -2.9600000000000001E-002     5.4966062812411565E-009
  -2.9499999999999998E-002     7.1320900296711898E-009
  -2.9400000000000003E-002     8.5759674917085249E-009
  -2.9300000000000000E-002     9.7426591239013760E-009
  -2.9200000000000000E-002     1.0549567441842100E-008
  -2.9100000000000001E-002     1.0921458404311579E-008
  -2.8999999999999998E-002     1.0795088378756645E-008
  -2.8900000000000002E-002     1.0123896387881359E-008
  -2.8799999999999999E-002     8.8825382604795777E-009
  -2.8700000000000000E-002     7.0710410859931017E-009
  -2.8600000000000000E-002     4.7183217333213179E-009
  -2.8500000000000001E-002     1.8848196337017953E-009
  -2.8400000000000002E-002    -1.3359882089503117E-009
  -2.8299999999999999E-002    -4.8174237932130382E-009
  -2.8200000000000003E-002    -8.4009759149239471E-009
  -2.8100000000000000E-002    -1.1899343732579837E-008
  -2.8000000000000001E-002    -1.5101237593739825E-008
  -2.7900000000000001E-002    -1.7777951555331128E-008
  -2.7799999999999998E-002    -1.9691643871055931E-008
  -2.7700000000000002E-002    -2.0605174455567976E-008
  -2.7600000000000000E-002    -2.0293255076353489E-008
  -2.7500000000000000E-002    -1.8554592529085312E-008
  -2.7400000000000001E-002    -1.5224607352593011E-008
  -2.7299999999999998E-002    -1.0188232479890758E-008
  -2.7200000000000002E-002    -3.3922504805161680E-009
  -2.7099999999999999E-002     5.1434523307136715E-009
  -2.7000000000000000E-002     1.5316320656211246E-008
  -2.6900000000000000E-002     2.6933893337854897E-008
  -2.6800000000000001E-002     3.9709512122954038E-008
  -2.6700000000000002E-002     5.3261501875567774E-008
  -2.6599999999999999E-002     6.7116296520453034E-008
  -2.6500000000000003E-002     8.0715871320080623E-008
  -2.6400000000000000E-002     9.3429683545309672E-008
  -2.6300000000000000E-002     1.0457114996142991E-007
  -2.6200000000000001E-002     1.1341852967916566E-007
  -2.6099999999999998E-002     1.1923987131012836E-007
  -2.6000000000000002E-002     1.2132146309795644E-007
  -2.5899999999999999E-002     1.1899897600642362E-007
  -2.5800000000000000E-002     1.1169044000780559E-007
  -2.5700000000000001E-002     9.8929795910862595E-008
  -2.5599999999999998E-002     8.0399836122069246E-008
  -2.5500000000000002E-002     5.5963063516628608E-008
  -2.5399999999999999E-002     2.5689022464803202E-008
  -2.5300000000000000E-002    -1.0123367921721638E-008
  -2.5200000000000000E-002    -5.0929909178876187E-008
  -2.5100000000000001E-002    -9.5933003763093438E-008
  -2.5000000000000001E-002    -1.4408240645025217E-007
  -2.4899999999999999E-002    -1.9408581408697501E-007
  -2.4800000000000003E-002    -2.4442977064609295E-007
  -2.4700000000000000E-002    -2.9341134677451919E-007
  -2.4600000000000000E-002    -3.3918027497747971E-007
  -2.4500000000000001E-002    -3.7979094713591621E-007
  -2.4399999999999998E-002    -4.1326342170577846E-007
  -2.4299999999999999E-002    -4.3765177792920440E-007
  -2.4199999999999999E-002    -4.5111806912245811E-007
  -2.4100000000000000E-002    -4.5200951603874273E-007
  -2.4000000000000000E-002    -4.3893618340007379E-007
  -2.3900000000000001E-002    -4.1084655322265462E-007
  -2.3800000000000002E-002    -3.6709764117404120E-007
  -2.3699999999999999E-002    -3.0751661483918724E-007
  -2.3599999999999999E-002    -2.3245091540502472E-007
  -2.3500000000000000E-002    -1.4280384164067073E-007
  -2.3400000000000001E-002    -4.0053098615544513E-008
  -2.3300000000000001E-002     7.3749880868945183E-008
  -2.3199999999999998E-002     1.9600156520027667E-007
  -2.3099999999999999E-002     3.2358965995626932E-007
  -2.3000000000000000E-002     4.5295848849491449E-007
  -2.2900000000000000E-002     5.8019594462166424E-007
  -2.2800000000000001E-002     7.0114009531607735E-007
  -2.2700000000000001E-002     8.1150358255399624E-007
  -2.2599999999999999E-002     9.0701229282785789E-007
  -2.2499999999999999E-002     9.8355451427778462E-007
  -2.2400000000000000E-002     1.0373357781645609E-006
  -2.2300000000000000E-002     1.0650338708728668E-006
  -2.2200000000000001E-002     1.0639488436936517E-006
  -2.2100000000000002E-002     1.0321418812964112E-006
  -2.1999999999999999E-002     9.6855694664554903E-007
  -2.1899999999999999E-002     8.7311963170577656E-007
  -2.1800000000000000E-002     7.4680792749859393E-007
  -2.1700000000000001E-002     5.9169042287976481E-007
  -2.1600000000000001E-002     4.1092786773333501E-007
  -2.1499999999999998E-002     2.0873608264082577E-007
  -2.1399999999999999E-002    -9.6915853120549400E-009
  -2.1299999999999999E-002    -2.3830203588204313E-007
  -2.1200000000000000E-002    -4.7033876171553857E-007
  -2.1100000000000001E-002    -6.9853342665737728E-007
  -2.1000000000000001E-002    -9.1532854185061296E-007
  -2.0899999999999998E-002    -1.1131240853501367E-006
  -2.0799999999999999E-002    -1.2845418950746534E-006
  -2.0700000000000000E-002    -1.4226978919396061E-006
  -2.0600000000000000E-002    -1.5214739050861681E-006
  -2.0500000000000001E-002    -1.5757780147396261E-006
  -2.0400000000000001E-002    -1.5817835219422705E-006
  -2.0299999999999999E-002    -1.5371368817795883E-006
  -2.0199999999999999E-002    -1.4411245956580387E-006
  -2.0100000000000000E-002    -1.2947903087479062E-006
  -2.0000000000000000E-002    -1.1009950640072930E-006
  -1.9900000000000001E-002    -8.6441502844536444E-007
  -1.9799999999999998E-002    -5.9147311048945994E-007
  -1.9699999999999999E-002    -2.9020316105743404E-007
  -1.9599999999999999E-002     2.9952417435197276E-008
  -1.9500000000000000E-002     3.5840776035911404E-007
  -1.9400000000000001E-002     6.8375538830878213E-007
  -1.9300000000000001E-002     9.9413603038556175E-007
  -1.9199999999999998E-002     1.2776453104379470E-006
  -1.9099999999999999E-002     1.5227652738758479E-006
  -1.9000000000000000E-002     1.7188046967930859E-006
  -1.8900000000000000E-002     1.8563335970611661E-006
  -1.8800000000000001E-002     1.9275953491160180E-006
  -1.8700000000000001E-002     1.9268795767857227E-006
  -1.8599999999999998E-002     1.8508402490624576E-006
  -1.8499999999999999E-002     1.6987444269034313E-006
  -1.8400000000000000E-002     1.4726377912666067E-006
  -1.8300000000000000E-002     1.1774176300605177E-006
  -1.8200000000000001E-002     8.2080492802560912E-007
  -1.8100000000000002E-002     4.1321101207358879E-007
  -1.7999999999999999E-002    -3.2501056068667822E-008
  -1.7899999999999999E-002    -5.0135764695369289E-007
  -1.7800000000000000E-002    -9.7671102139429422E-007
  -1.7700000000000000E-002    -1.4407598882826278E-006
  -1.7600000000000001E-002    -1.8751387642623740E-006
  -1.7499999999999998E-002    -2.2615590751229320E-006
  -1.7399999999999999E-002    -2.5824792828643695E-006
  -1.7299999999999999E-002    -2.8217828003107570E-006
  -1.7200000000000000E-002    -2.9654377158294665E-006
  -1.7100000000000001E-002    -3.0021135444258107E-006
  -1.7000000000000001E-002    -2.9237312446639407E-006
  -1.6899999999999998E-002    -2.7259211492491886E-006
  -1.6799999999999999E-002    -2.4083692551357672E-006
  -1.6700000000000000E-002    -1.9750332285184413E-006
  -1.6600000000000000E-002    -1.4342135727929417E-006
  -1.6500000000000001E-002    -7.9847120559861651E-007
  -1.6400000000000001E-002    -8.4386677201564453E-008
  -1.6299999999999999E-002     6.8783720053033903E-007
  -1.6199999999999999E-002     1.4949223441362847E-006
  -1.6100000000000000E-002     2.3111988411983475E-006
  -1.6000000000000000E-002     3.1094052701519104E-006
  -1.5900000000000001E-002     3.8615835364907980E-006
  -1.5799999999999998E-002     4.5400388444249984E-006
  -1.5699999999999999E-002     5.1183333198423497E-006
  -1.5599999999999999E-002     5.5722775869071484E-006
  -1.5500000000000000E-002     5.8808846006286331E-006
  -1.5400000000000000E-002     6.0272509472270031E-006
  -1.5300000000000001E-002     5.9993285503878724E-006
  -1.5199999999999998E-002     5.7905544963432476E-006
  -1.5099999999999999E-002     5.4003116929379757E-006
  -1.4999999999999999E-002     4.8341953515773639E-006
  -1.4900000000000000E-002     4.1040671021619346E-006
  -1.4800000000000001E-002     3.2278885555570014E-006
  -1.4700000000000001E-002     2.2293302208709065E-006
  -1.4599999999999998E-002     1.1371604387022671E-006
  -1.4499999999999999E-002    -1.5570517319929422E-008
  -1.4400000000000000E-002    -1.1925316130145802E-006
  -1.4300000000000000E-002    -2.3552656784886494E-006
  -1.4200000000000001E-002    -3.4644631341507193E-006
  -1.4099999999999998E-002    -4.4813136810262222E-006
  -1.3999999999999999E-002    -5.3688877414970193E-006
  -1.3899999999999999E-002    -6.0935012697882485E-006
  -1.3800000000000000E-002    -6.6260117819183506E-006
  -1.3700000000000000E-002    -6.9429970608325675E-006
  -1.3600000000000001E-002    -7.0277706072374713E-006
  -1.3499999999999998E-002    -6.8711901803908404E-006
  -1.3399999999999999E-002    -6.4722235038061626E-006
  -1.3299999999999999E-002    -5.8382420320413075E-006
  -1.3200000000000000E-002    -4.9850250434246846E-006
  -1.3100000000000001E-002    -3.9364595068036579E-006
  -1.3000000000000001E-002    -2.7239409519097535E-006
  -1.2899999999999998E-002    -1.3854873941454571E-006
  -1.2799999999999999E-002     3.5414505106245997E-008
  -1.2699999999999999E-002     1.4911956895957701E-006
  -1.2600000000000000E-002     2.9317798180272803E-006
  -1.2500000000000001E-002     4.3062959775852505E-006
  -1.2399999999999998E-002     5.5648756642767694E-006
  -1.2299999999999998E-002     6.6604629864741582E-006
  -1.2199999999999999E-002     7.5505827226152178E-006
  -1.2100000000000000E-002     8.1989937825710513E-006
  -1.2000000000000000E-002     8.5771671365364455E-006
  -1.1900000000000001E-002     8.6655309132765979E-006
  -1.1799999999999998E-002     8.4544299170374870E-006
  -1.1699999999999999E-002     7.9447572716162540E-006
  -1.1599999999999999E-002     7.1482218118035235E-006
  -1.1500000000000000E-002     6.0872380345244892E-006
  -1.1400000000000000E-002     4.7944299694790971E-006
  -1.1300000000000001E-002     3.3117553357442375E-006
  -1.1199999999999998E-002     1.6892710164029268E-006
  -1.1099999999999999E-002    -1.6423495452499992E-008
  -1.0999999999999999E-002    -1.7440155488657183E-006
  -1.0900000000000000E-002    -3.4295255773031386E-006
  -1.0800000000000001E-002    -5.0084986469300929E-006
  -1.0699999999999998E-002    -6.4182672758761328E-006
  -1.0599999999999998E-002    -7.6002052082912996E-006
  -1.0499999999999999E-002    -8.5018891695654020E-006
  -1.0400000000000000E-002    -9.0790927060879767E-006
  -1.0300000000000000E-002    -9.2975278676021844E-006
  -1.0200000000000001E-002    -9.1342753876233473E-006
  -1.0099999999999998E-002    -8.5788406067877077E-006
  -9.9999999999999985E-003    -7.6337864811648615E-006
  -9.8999999999999991E-003    -6.3149168454401661E-006
  -9.7999999999999997E-003    -4.6509912863257341E-006
  -9.7000000000000003E-003    -2.6829741273104446E-006
  -9.6000000000000009E-003    -4.6283537358249305E-007
  -9.4999999999999980E-003     1.9480628452583915E-006
  -9.3999999999999986E-003     4.4809403334511444E-006
  -9.2999999999999992E-003     7.0618712015857454E-006
  -9.1999999999999998E-003     9.6142730399151333E-006
  -9.1000000000000004E-003     1.2061531379004009E-005
  -9.0000000000000011E-003     1.4329658370115794E-005
  -8.8999999999999982E-003     1.6349898942280561E-005
  -8.7999999999999988E-003     1.8061178707284853E-005
  -8.6999999999999994E-003     1.9412305846344680E-005
  -8.5999999999999965E-003     2.0363846488180570E-005
  -8.5000000000000006E-003     2.0889590814476833E-005
  -8.3999999999999977E-003     2.0977557142032310E-005
  -8.3000000000000018E-003     2.0630492144846357E-005
  -8.1999999999999990E-003     1.9865836293320172E-005
  -8.0999999999999961E-003     1.8715152691584080E-005
  -8.0000000000000002E-003     1.7223035683855414E-005
  -7.8999999999999973E-003     1.5445528333657421E-005
  -7.8000000000000014E-003     1.3448107893054839E-005
  -7.6999999999999985E-003     1.1303303836029954E-005
  -7.6000000000000026E-003     9.0880466814269312E-006
  -7.4999999999999997E-003     6.8808285504928790E-006
  -7.3999999999999969E-003     4.7587864173692651E-006
  -7.3000000000000009E-003     2.7948253773502074E-006
  -7.1999999999999981E-003     1.0548848194957827E-006
  -7.1000000000000021E-003    -4.0455020666740893E-007
  -6.9999999999999993E-003    -1.5385844562842976E-006
  -6.8999999999999964E-003    -2.3156133011070779E-006
  -6.8000000000000005E-003    -2.7185260478290729E-006
  -6.6999999999999976E-003    -2.7453477287053829E-006
  -6.6000000000000017E-003    -2.4092942112474702E-006
  -6.4999999999999988E-003    -1.7382325268044951E-006
  -6.3999999999999960E-003    -7.7355753091978841E-007
  -6.3000000000000000E-003     4.3147554151801160E-007
  -6.1999999999999972E-003     1.8139077155865380E-006
  -6.1000000000000013E-003     3.3036403692676686E-006
  -5.9999999999999984E-003     4.8263150347338524E-006
  -5.9000000000000025E-003     6.3063985180633608E-006
  -5.7999999999999996E-003     7.6703527156496421E-006
  -5.6999999999999967E-003     8.8497699834988452E-006
  -5.6000000000000008E-003     9.7843494586413726E-006
  -5.4999999999999979E-003     1.0424595529912040E-005
  -5.4000000000000020E-003     1.0734121133282315E-005
  -5.2999999999999992E-003     1.0691466741263866E-005
  -5.1999999999999963E-003     1.0291356375091709E-005
  -5.1000000000000004E-003     9.5453278845525347E-006
  -4.9999999999999975E-003     8.4817038441542536E-006
  -4.9000000000000016E-003     7.1448907874582801E-006
  -4.7999999999999987E-003     5.5940322454262059E-006
  -4.6999999999999958E-003     3.9010501495795324E-006
  -4.5999999999999999E-003     2.1481394014699617E-006
  -4.4999999999999971E-003     4.2480641582187673E-007
  -4.4000000000000011E-003    -1.1754348179238150E-006
  -4.2999999999999983E-003    -2.5585936782590579E-006
  -4.2000000000000023E-003    -3.6338258269097423E-006
  -4.0999999999999995E-003    -4.3170034587092232E-006
  -3.9999999999999966E-003    -4.5341021177591756E-006
  -3.9000000000000007E-003    -4.2242631934641395E-006
  -3.7999999999999978E-003    -3.3424078083044151E-006
  -3.7000000000000019E-003    -1.8613052361615701E-006
  -3.5999999999999990E-003     2.2700766066918732E-007
  -3.4999999999999962E-003     2.9105178782629082E-006
  -3.4000000000000002E-003     6.1572586673719343E-006
  -3.2999999999999974E-003     9.9160906756878830E-006
  -3.2000000000000015E-003     1.4118222679826431E-005
  -3.0999999999999986E-003     1.8679415006772615E-005
  -2.9999999999999957E-003     2.3502794647356495E-005
  -2.8999999999999998E-003     2.8482170819188468E-005
  -2.7999999999999969E-003     3.3505752071505412E-005
  -2.7000000000000010E-003     3.8460097130155191E-005
  -2.5999999999999981E-003     4.3234183976892382E-005
  -2.5000000000000022E-003     4.7723424358991906E-005
  -2.3999999999999994E-003     5.1833460020134225E-005
  -2.2999999999999965E-003     5.5483596952399239E-005
  -2.2000000000000006E-003     5.8609781262930483E-005
  -2.0999999999999977E-003     6.1166931118350476E-005
  -2.0000000000000018E-003     6.3130581111181527E-005
  -1.8999999999999989E-003     6.4497762650717050E-005
  -1.7999999999999960E-003     6.5287065808661282E-005
  -1.7000000000000001E-003     6.5537875343579799E-005
  -1.5999999999999973E-003     6.5308828197885305E-005
  -1.5000000000000013E-003     6.4675565226934850E-005
  -1.3999999999999985E-003     6.3727777160238475E-005
  -1.2999999999999956E-003     6.2565755797550082E-005
  -1.1999999999999997E-003     6.1296545027289540E-005
  -1.0999999999999968E-003     6.0029833548469469E-005
  -1.0000000000000009E-003     5.8873796660918742E-005
  -8.9999999999999802E-004     5.7930992625188082E-005
  -8.0000000000000210E-004     5.7294528232887387E-005
  -6.9999999999999923E-004     5.7044650020543486E-005
  -5.9999999999999637E-004     5.7245852076448500E-005
  -5.0000000000000044E-004     5.7944704167312011E-005
  -3.9999999999999758E-004     5.9168451116420329E-005
  -3.0000000000000165E-004     6.0924405261175707E-005
  -1.9999999999999879E-004     6.3200255681294948E-005
  -9.9999999999995925E-005     6.5965221438091248E-005
   0.0000000000000000          6.9172034272924066E-005
   1.0000000000000286E-004     7.2759692557156086E-005
   1.9999999999999879E-004     7.6656826422549784E-005
   3.0000000000000165E-004     8.0785597674548626E-005
   4.0000000000000452E-004     8.5065963503438979E-005
   5.0000000000000044E-004     8.9420129370409995E-005
   6.0000000000000331E-004     9.3776950961910188E-005
   6.9999999999999923E-004     9.8076197900809348E-005
   8.0000000000000210E-004     1.0227247548755258E-004
   8.9999999999999802E-004     1.0633854253683239E-004
   1.0000000000000009E-003     1.1026798165403306E-004
   1.1000000000000038E-003     1.1407704005250707E-004
   1.1999999999999997E-003     1.1780559725593776E-004
   1.3000000000000025E-003     1.2151713599450886E-004
   1.3999999999999985E-003     1.2529775267466903E-004
   1.5000000000000013E-003     1.2925424380227923E-004
   1.6000000000000042E-003     1.3351115921977907E-004
   1.7000000000000001E-003     1.3820720778312534E-004
   1.8000000000000030E-003     1.4349092089105397E-004
   1.8999999999999989E-003     1.4951585035305470E-004
   2.0000000000000018E-003     1.5643540245946497E-004
   2.1000000000000046E-003     1.6439757018815726E-004
   2.2000000000000006E-003     1.7353981093037874E-004
   2.3000000000000034E-003     1.8398418615106493E-004
   2.3999999999999994E-003     1.9583302491810173E-004
   2.5000000000000022E-003     2.0916530047543347E-004
   2.5999999999999981E-003     2.2403387993108481E-004
   2.7000000000000010E-003     2.4046374892350286E-004
   2.8000000000000039E-003     2.5845135678537190E-004
   2.8999999999999998E-003     2.7796509675681591E-004
   3.0000000000000027E-003     2.9894700855948031E-004
   3.0999999999999986E-003     3.2131548505276442E-004
   3.2000000000000015E-003     3.4496904117986560E-004
   3.3000000000000043E-003     3.6979111609980464E-004
   3.4000000000000002E-003     3.9565545739606023E-004
   3.5000000000000031E-003     4.2243217467330396E-004
   3.5999999999999990E-003     4.4999414240010083E-004
   3.7000000000000019E-003     4.7822334454394877E-004
   3.7999999999999978E-003     5.0701724831014872E-004
   3.9000000000000007E-003     5.3629477042704821E-004
   4.0000000000000036E-003     5.6600145762786269E-004
   4.0999999999999995E-003     5.9611391043290496E-004
   4.2000000000000023E-003     6.2664330471307039E-004
   4.2999999999999983E-003     6.5763766178861260E-004
   4.4000000000000011E-003     6.8918266333639622E-004
   4.5000000000000040E-003     7.2140153497457504E-004
   4.5999999999999999E-003     7.5445341644808650E-004
   4.7000000000000028E-003     7.8853033483028412E-004
   4.7999999999999987E-003     8.2385318819433451E-004
   4.9000000000000016E-003     8.6066685616970062E-004
   5.0000000000000044E-003     8.9923420455306768E-004
   5.1000000000000004E-003     9.3982944963499904E-004
   5.2000000000000032E-003     9.8273158073425293E-004
   5.2999999999999992E-003     1.0282172588631511E-003
   5.4000000000000020E-003     1.0765545303002000E-003
   5.4999999999999979E-003     1.1279962491244078E-003
   5.6000000000000008E-003     1.1827746639028192E-003
   5.7000000000000037E-003     1.2410971103236079E-003
   5.7999999999999996E-003     1.3031426351517439E-003
   5.9000000000000025E-003     1.3690601335838437E-003
   5.9999999999999984E-003     1.4389677671715617E-003
   6.1000000000000013E-003     1.5129540115594864E-003
   6.2000000000000041E-003     1.5910799847915769E-003
   6.3000000000000000E-003     1.6733834054321051E-003
   6.4000000000000029E-003     1.7598837148398161E-003
   6.4999999999999988E-003     1.8505882471799850E-003
   6.6000000000000017E-003     1.9454995635896921E-003
   6.7000000000000046E-003     2.0446227863430977E-003
   6.8000000000000005E-003     2.1479744464159012E-003
   6.9000000000000034E-003     2.2555897012352943E-003
   6.9999999999999993E-003     2.3675309494137764E-003
   7.1000000000000021E-003     2.4838945828378201E-003
   7.1999999999999981E-003     2.6048170402646065E-003
   7.3000000000000009E-003     2.7304806280881166E-003
   7.4000000000000038E-003     2.8611172456294298E-003
   7.4999999999999997E-003     2.9970100149512291E-003
   7.6000000000000026E-003     3.1384942121803761E-003
   7.6999999999999985E-003     3.2859565690159798E-003
   7.8000000000000014E-003     3.4398317802697420E-003
   7.9000000000000042E-003     3.6005985457450151E-003
   8.0000000000000002E-003     3.7687737494707108E-003
   8.1000000000000030E-003     3.9449050091207027E-003
   8.1999999999999990E-003     4.1295620612800121E-003
   8.3000000000000018E-003     4.3233293108642101E-003
   8.4000000000000047E-003     4.5267958194017410E-003
   8.5000000000000006E-003     4.7405464574694633E-003
   8.6000000000000035E-003     4.9651530571281910E-003
   8.6999999999999994E-003     5.2011655643582344E-003
   8.8000000000000023E-003     5.4491055198013783E-003
   8.8999999999999982E-003     5.7094604708254337E-003
   9.0000000000000011E-003     5.9826793149113655E-003
   9.1000000000000039E-003     6.2691709026694298E-003
   9.1999999999999998E-003     6.5693017095327377E-003
   9.3000000000000027E-003     6.8833976984024048E-003
   9.3999999999999986E-003     7.2117480449378490E-003
   9.5000000000000015E-003     7.5546111911535263E-003
   9.6000000000000044E-003     7.9122204333543777E-003
   9.7000000000000003E-003     8.2847923040390015E-003
   9.8000000000000032E-003     8.6725372821092606E-003
   9.8999999999999991E-003     9.0756677091121674E-003
   1.0000000000000002E-002     9.4944098964333534E-003
   1.0100000000000005E-002     9.9290162324905396E-003
   1.0200000000000001E-002     1.0379774495959282E-002
   1.0300000000000004E-002     1.0847017168998718E-002
   1.0400000000000000E-002     1.1331131681799889E-002
   1.0500000000000002E-002     1.1832567863166332E-002
   1.0599999999999998E-002     1.2351842597126961E-002
   1.0700000000000001E-002     1.2889545410871506E-002
   1.0800000000000004E-002     1.3446339406073093E-002
   1.0900000000000000E-002     1.4022960327565670E-002
   1.1000000000000003E-002     1.4620216563344002E-002
   1.1099999999999999E-002     1.5238983556628227E-002
   1.1200000000000002E-002     1.5880199149250984E-002
   1.1300000000000004E-002     1.6544852405786514E-002
   1.1400000000000000E-002     1.7233975231647491E-002
   1.1500000000000003E-002     1.7948636785149574E-002
   1.1599999999999999E-002     1.8689928576350212E-002
   1.1700000000000002E-002     1.9458951428532600E-002
   1.1800000000000005E-002     2.0256809890270233E-002
   1.1900000000000001E-002     2.1084599196910858E-002
   1.2000000000000004E-002     2.1943394094705582E-002
   1.2100000000000000E-002     2.2834245115518570E-002
   1.2200000000000003E-002     2.3758169263601303E-002
   1.2299999999999998E-002     2.4716144427657127E-002
   1.2400000000000001E-002     2.5709109380841255E-002
   1.2500000000000004E-002     2.6737965643405914E-002
   1.2600000000000000E-002     2.7803575620055199E-002
   1.2700000000000003E-002     2.8906764462590218E-002
   1.2799999999999999E-002     3.0048327520489693E-002
   1.2900000000000002E-002     3.1229039654135704E-002
   1.3000000000000005E-002     3.2449662685394287E-002
   1.3100000000000001E-002     3.3710952848196030E-002
   1.3200000000000003E-002     3.5013675689697266E-002
   1.3299999999999999E-002     3.6358617246150970E-002
   1.3400000000000002E-002     3.7746585905551910E-002
   1.3500000000000005E-002     3.9178431034088135E-002
   1.3600000000000001E-002     4.0655050426721573E-002
   1.3700000000000004E-002     4.2177386581897736E-002
   1.3800000000000000E-002     4.3746445327997208E-002
   1.3900000000000003E-002     4.5363295823335648E-002
   1.3999999999999999E-002     4.7029074281454086E-002
   1.4100000000000001E-002     4.8744983971118927E-002
   1.4200000000000004E-002     5.0512280315160751E-002
   1.4300000000000000E-002     5.2332278341054916E-002
   1.4400000000000003E-002     5.4206348955631256E-002