  -4.0000000000000001E-002     0.0000000000000000
  -3.9899999999999998E-002     0.0000000000000000
  -3.9800000000000002E-002     0.0000000000000000
  -3.9699999999999999E-002     0.0000000000000000
  -3.9600000000000003E-002     0.0000000000000000
  -3.9500000000000000E-002     2.7037334028004630E-016
  -3.9399999999999998E-002     2.9246880880806148E-015
  -3.9300000000000002E-002     1.7189583293559206E-014
  -3.9199999999999999E-002     7.2678970860270281E-014
  -3.9100000000000003E-002     2.4720359765272037E-013
  -3.9000000000000000E-002     7.1775365598908403E-013
  -3.8900000000000004E-002     1.8446860792359354E-012
  -3.8800000000000001E-002     4.2991478432785613E-012
  -3.8699999999999998E-002     9.2416074792822656E-012
  -3.8600000000000002E-002     1.8554522501768034E-011
  -3.8500000000000000E-002     3.5123952357718480E-011
  -3.8400000000000004E-002     6.3153579588082209E-011
  -3.8300000000000001E-002     1.0848013459741068E-010
  -3.8199999999999998E-002     1.7884180247840220E-010
  -3.8100000000000002E-002     2.8403474017224539E-010
  -3.7999999999999999E-002     4.3587319864535345E-010
  -3.7900000000000003E-002     6.4785832254443676E-010
  -3.7800000000000000E-002     9.3444740834058848E-010
  -3.7699999999999997E-002     1.3098219175944337E-009
  -3.7600000000000001E-002     1.7860551926318635E-009
  -3.7499999999999999E-002     2.3706134832934822E-009
  -3.7400000000000003E-002     3.0631575054229643E-009
  -3.7300000000000000E-002     3.8516754230499828E-009
  -3.7200000000000004E-002     4.7080299658830427E-009
  -3.7100000000000001E-002     5.5831250733717752E-009
  -3.6999999999999998E-002     6.4019411993854192E-009
  -3.6900000000000002E-002     7.0588419553985204E-009
  -3.6799999999999999E-002     7.4136279337722044E-009
  -3.6700000000000003E-002     7.2888757252087544E-009
  -3.6600000000000001E-002     6.4693028711815259E-009
  -3.6499999999999998E-002     4.7036583517012787E-009
  -3.6400000000000002E-002     1.7101168259259225E-009
  -3.6299999999999999E-002    -2.8144888641890020E-009
  -3.6200000000000003E-002    -9.1807557112133509E-009
  -3.6100000000000000E-002    -1.7687900921714572E-008
  -3.6000000000000004E-002    -2.8599878021395853E-008
  -3.5900000000000001E-002    -4.2116216292242825E-008
  -3.5799999999999998E-002    -5.8338539332680739E-008
  -3.5700000000000003E-002    -7.7233600848103379E-008
  -3.5600000000000000E-002    -9.8593034181249095E-008
  -3.5500000000000004E-002    -1.2199380705624208E-007
  -3.5400000000000001E-002    -1.4675896409244160E-007
  -3.5299999999999998E-002    -1.7192348877870245E-007
  -3.5200000000000002E-002    -1.9620709679202264E-007
  -3.5099999999999999E-002    -2.1799732508043235E-007
  -3.5000000000000003E-002    -2.3534754234333377E-007
  -3.4900000000000000E-002    -2.4599083303655789E-007
  -3.4799999999999998E-002    -2.4737579451539204E-007
  -3.4700000000000002E-002    -2.3672502891258773E-007
  -3.4599999999999999E-002    -2.1111983983246319E-007
  -3.4500000000000003E-002    -1.6761073595716880E-007
  -3.4400000000000000E-002    -1.0335653399806688E-007
  -3.4299999999999997E-002    -1.5787602336558848E-008
  -3.4200000000000001E-002     9.7205550275702990E-008
  -3.4099999999999998E-002     2.3706580520865828E-007
  -3.4000000000000002E-002     4.0434923676002654E-007
  -3.3900000000000000E-002     5.9849986655535758E-007
  -3.3799999999999997E-002     8.1762698300735792E-007
  -3.3700000000000001E-002     1.0583005405351287E-006
  -3.3599999999999998E-002     1.3153675126886810E-006
  -3.3500000000000002E-002     1.5818120573385386E-006
  -3.3399999999999999E-002     1.8486724684407818E-006
  -3.3300000000000003E-002     2.1050188934168546E-006
  -3.3200000000000000E-002     2.3380148377327714E-006
  -3.3099999999999997E-002     2.5330718926852569E-006
  -3.3000000000000002E-002     2.6741024612420006E-006
  -3.2899999999999999E-002     2.7438820779934758E-006
  -3.2800000000000003E-002     2.7245323508395813E-006
  -3.2700000000000000E-002     2.5981044018408284E-006
  -3.2600000000000004E-002     2.3472728116757935E-006
  -3.2500000000000001E-002     1.9561325643735472E-006
  -3.2399999999999998E-002     1.4110763686403516E-006
  -3.2300000000000002E-002     7.0172120558709139E-007
  -3.2199999999999999E-002    -1.7812439523368084E-007
  -3.2100000000000004E-002    -1.2294816542635090E-006
  -3.2000000000000001E-002    -2.4472744826198323E-006
  -3.1899999999999998E-002    -3.8194862099771854E-006
  -3.1800000000000002E-002    -5.3263947847881354E-006
  -3.1699999999999999E-002    -6.9400380198203493E-006
  -3.1600000000000003E-002    -8.6238424046314321E-006
  -3.1500000000000000E-002    -1.0332515557820443E-005
  -3.1399999999999997E-002    -1.2012269507977180E-005
  -3.1300000000000001E-002    -1.3601343198388349E-005
  -3.1199999999999999E-002    -1.5030888789624441E-005
  -3.1100000000000003E-002    -1.6226311345235445E-005
  -3.1000000000000000E-002    -1.7108821339206770E-005
  -3.0900000000000000E-002    -1.7597665646462701E-005
  -3.0800000000000001E-002    -1.7612350347917527E-005
  -3.0699999999999998E-002    -1.7075630239560269E-005
  -3.0600000000000002E-002    -1.5916355550871231E-005
  -3.0499999999999999E-002    -1.4072834346734453E-005
  -3.0400000000000000E-002    -1.1496231309138238E-005
  -3.0300000000000001E-002    -8.1539747043279931E-006
  -3.0200000000000001E-002    -4.0331174204766285E-006
  -3.0100000000000002E-002     8.5647064906879677E-007
  -2.9999999999999999E-002     6.4793084675329737E-006
  -2.9899999999999999E-002     1.2771849469572771E-005
  -2.9800000000000000E-002     1.9640760001493618E-005
  -2.9700000000000001E-002     2.6961866751662455E-005
  -2.9600000000000001E-002     3.4579923521960154E-005
  -2.9499999999999998E-002     4.2309387936256826E-005
  -2.9400000000000003E-002     4.9936330469790846E-005
  -2.9300000000000000E-002     5.7221182942157611E-005
  -2.9200000000000000E-002     6.3903127738740295E-005
  -2.9100000000000001E-002     6.9705143687315285E-005
  -2.8999999999999998E-002     7.4340605351608247E-005
  -2.8900000000000002E-002     7.7520679042208940E-005
  -2.8799999999999999E-002     7.8962832049001008E-005
  -2.8700000000000000E-002     7.8400160418823361E-005
  -2.8600000000000000E-002     7.5591146014630795E-005
  -2.8500000000000001E-002     7.0330002927221358E-005
  -2.8400000000000002E-002     6.2456885643769056E-005
  -2.8299999999999999E-002     5.1868042646674439E-005
  -2.8200000000000003E-002     3.8525558920809999E-005
  -2.8100000000000000E-002     2.2465665097115561E-005
  -2.8000000000000001E-002     3.8063740248617250E-006
  -2.7900000000000001E-002    -1.7246895367861725E-005
  -2.7799999999999998E-002    -4.0397502743871883E-005
  -2.7700000000000002E-002    -6.5256113884970546E-005
  -2.7600000000000000E-002    -9.1341738880146295E-005
  -2.7500000000000000E-002    -1.1808589624706656E-004
  -2.7400000000000001E-002    -1.4483914128504694E-004
  -2.7299999999999998E-002    -1.7088149616029114E-004
  -2.7200000000000002E-002    -1.9543510279618204E-004
  -2.7099999999999999E-002    -2.1768065926153213E-004
  -2.7000000000000000E-002    -2.3677588615100831E-004
  -2.6900000000000000E-002    -2.5187741266563535E-004
  -2.6800000000000001E-002    -2.6216416154056787E-004
  -2.6700000000000002E-002    -2.6686253841035068E-004
  -2.6599999999999999E-002    -2.6527250884100795E-004
  -2.6500000000000003E-002    -2.5679497048258781E-004
  -2.6400000000000000E-002    -2.4095736443996429E-004
  -2.6300000000000000E-002    -2.1743919933214784E-004
  -2.6200000000000001E-002    -1.8609501421451569E-004
  -2.6099999999999998E-002    -1.4697499864269048E-004
  -2.6000000000000002E-002    -1.0034092701971531E-004
  -2.5899999999999999E-002    -4.6678931539645419E-005
  -2.5800000000000000E-002     1.3294072232383769E-005
  -2.5700000000000001E-002     7.8629767813254148E-005
  -2.5599999999999998E-002     1.4815339818596840E-004
  -2.5500000000000002E-002     2.2047685342840850E-004
  -2.5399999999999999E-002     2.9401760548353195E-004
  -2.5300000000000000E-002     3.6702578654512763E-004
  -2.5200000000000000E-002     4.3761692359112203E-004
  -2.5100000000000001E-002     5.0381192704662681E-004
  -2.5000000000000001E-002     5.6358374422416091E-004
  -2.4899999999999999E-002     6.1490637017413974E-004
  -2.4800000000000003E-002     6.5581040689721704E-004
  -2.4700000000000000E-002     6.8443984491750598E-004
  -2.4600000000000000E-002     6.9911009632050991E-004
  -2.4500000000000001E-002     6.9836719194427133E-004
  -2.4399999999999998E-002     6.8104139063507318E-004
  -2.4299999999999999E-002     6.4630125416442752E-004
  -2.4199999999999999E-002     5.9369794325903058E-004
  -2.4100000000000000E-002     5.2320619579404593E-004
  -2.4000000000000000E-002     4.3525375076569617E-004
  -2.3900000000000001E-002     3.3073956728912890E-004
  -2.3800000000000002E-002     2.1104420011397451E-004
  -2.3699999999999999E-002     7.8023578680586070E-005
  -2.3599999999999999E-002    -6.6008375142700970E-005
  -2.3500000000000000E-002    -2.1831078629475087E-004
  -2.3400000000000001E-002    -3.7576362956315279E-004
  -2.3300000000000001E-002    -5.3492194274440408E-004
  -2.3199999999999998E-002    -6.9208996137604117E-004
  -2.3099999999999999E-002    -8.4340147441253066E-004
  -2.3000000000000000E-002    -9.8491064272820950E-004
  -2.2900000000000000E-002    -1.1126904282718897E-003
  -2.2800000000000001E-002    -1.2229355052113533E-003
  -2.2700000000000001E-002    -1.3120690127834678E-003
  -2.2599999999999999E-002    -1.3768433127552271E-003
  -2.2499999999999999E-002    -1.4144449960440397E-003
  -2.2400000000000000E-002    -1.4225870836526155E-003
  -2.2300000000000000E-002    -1.3995927292853594E-003
  -2.2200000000000001E-002    -1.3444677460938692E-003
  -2.2100000000000002E-002    -1.2569570681080222E-003
  -2.1999999999999999E-002    -1.1375832837074995E-003
  -2.1899999999999999E-002    -9.8766526207327843E-004
  -2.1800000000000000E-002    -8.0931914271786809E-004
  -2.1700000000000001E-002    -6.0543091967701912E-004
  -2.1600000000000001E-002    -3.7961633643135428E-004
  -2.1499999999999998E-002    -1.3615214265882969E-004
  -2.1399999999999999E-002     1.2011186481686309E-004
  -2.1299999999999999E-002     3.8385405787266791E-004
  -2.1200000000000000E-002     6.4940756419673562E-004
  -2.1100000000000001E-002     9.1088854242116213E-004
  -2.1000000000000001E-002     1.1623456375673413E-003
  -2.0899999999999998E-002     1.3979070354253054E-003
  -2.0799999999999999E-002     1.6119324136525393E-003
  -2.0700000000000000E-002     1.7991625936701894E-003
  -2.0600000000000000E-002     1.9548598211258650E-003
  -2.0500000000000001E-002     2.0749394316226244E-003
  -2.0400000000000001E-002     2.1560825407505035E-003
  -2.0299999999999999E-002     2.1958346478641033E-003
  -2.0199999999999999E-002     2.1926725748926401E-003
  -2.0100000000000000E-002     2.1460608113557100E-003
  -2.0000000000000000E-002     2.0564643200486898E-003
  -1.9900000000000001E-002     1.9253479549661279E-003
  -1.9799999999999998E-002     1.7551380442455411E-003
  -1.9699999999999999E-002     1.5491626691073179E-003
  -1.9599999999999999E-002     1.3115628389641643E-003
  -1.9500000000000000E-002     1.0471825953572989E-003
  -1.9400000000000001E-002     7.6144118793308735E-004
  -1.9300000000000001E-002     4.6018161810934544E-004
  -1.9199999999999998E-002     1.4952213678043336E-004
  -1.9099999999999999E-002    -1.6431594849564135E-004
  -1.9000000000000000E-002    -4.7516499762423337E-004
  -1.8900000000000000E-002    -7.7707186574116349E-004
  -1.8800000000000001E-002    -1.0644507128745317E-003
  -1.8700000000000001E-002    -1.3322123559191823E-003
  -1.8599999999999998E-002    -1.5758849913254380E-003
  -1.8499999999999999E-002    -1.7917057266458869E-003
  -1.8400000000000000E-002    -1.9766835030168295E-003
  -1.8300000000000000E-002    -2.1286443807184696E-003
  -1.8200000000000001E-002    -2.2462366614490747E-003
  -1.8100000000000002E-002    -2.3289166856557131E-003
  -1.7999999999999999E-002    -2.3768974933773279E-003
  -1.7899999999999999E-002    -2.3910836316645145E-003
  -1.7800000000000000E-002    -2.3729719687253237E-003
  -1.7700000000000000E-002    -2.3245469201356173E-003
  -1.7600000000000001E-002    -2.2481526248157024E-003
  -1.7499999999999998E-002    -2.1463588345795870E-003
  -1.7399999999999999E-002    -2.0218414720147848E-003
  -1.7299999999999999E-002    -1.8772401381283998E-003
  -1.7200000000000000E-002    -1.7150541534647346E-003
  -1.7100000000000001E-002    -1.5375339426100254E-003
  -1.7000000000000001E-002    -1.3466057134792209E-003
  -1.6899999999999998E-002    -1.1438205838203430E-003
  -1.6799999999999999E-002    -9.3032355653122067E-004
  -1.6700000000000000E-002    -7.0686108665540814E-004
  -1.6600000000000000E-002    -4.7382089542225003E-004
  -1.6500000000000001E-002    -2.3129329201765358E-004
  -1.6400000000000001E-002     2.0834195311181247E-005
  -1.6299999999999999E-002     2.8275768272578716E-004
  -1.6199999999999999E-002     5.5462226737290621E-004
  -1.6100000000000000E-002     8.3637563511729240E-004
  -1.6000000000000000E-002     1.1276078876107931E-003
  -1.5900000000000001E-002     1.4274043496698141E-003
  -1.5799999999999998E-002     1.7342047067359090E-003
  -1.5699999999999999E-002     2.0456749480217695E-003
  -1.5599999999999999E-002     2.3586170282214880E-003
  -1.5500000000000000E-002     2.6689057704061270E-003
  -1.5400000000000000E-002     2.9714615084230900E-003
  -1.5300000000000001E-002     3.2602804712951183E-003
  -1.5199999999999998E-002     3.5285046324133873E-003
  -1.5099999999999999E-002     3.7685402203351259E-003
  -1.4999999999999999E-002     3.9722351357340813E-003
  -1.4900000000000000E-002     4.1310973465442657E-003
  -1.4800000000000001E-002     4.2365505360066891E-003
  -1.4700000000000001E-002     4.2802379466593266E-003
  -1.4599999999999998E-002     4.2543387971818447E-003
  -1.4499999999999999E-002     4.1519193910062313E-003
  -1.4400000000000000E-002     3.9672660641372204E-003
  -1.4300000000000000E-002     3.6962225567549467E-003
  -1.4200000000000001E-002     3.3365099225193262E-003
  -1.4099999999999998E-002     2.8879998717457056E-003
  -1.3999999999999999E-002     2.3529354948550463E-003
  -1.3899999999999999E-002     1.7361087957397103E-003
  -1.3800000000000000E-002     1.0449523106217384E-003
  -1.3700000000000000E-002     2.8954085428267717E-004
  -1.3600000000000001E-002    -5.1746744429692626E-004
  -1.3499999999999998E-002    -1.3610102469101548E-003
  -1.3399999999999999E-002    -2.2238828241825104E-003
  -1.3299999999999999E-002    -3.0870726332068443E-003
  -1.3200000000000000E-002    -3.9302064105868340E-003
  -1.3100000000000001E-002    -4.7320574522018433E-003
  -1.3000000000000001E-002    -5.4711080156266689E-003
  -1.2899999999999998E-002    -6.1261733062565327E-003
  -1.2799999999999999E-002    -6.6770412959158421E-003
  -1.2699999999999999E-002    -7.1051353588700294E-003
  -1.2600000000000000E-002    -7.3941494338214397E-003
  -1.2500000000000001E-002    -7.5306538492441177E-003
  -1.2399999999999998E-002    -7.5046601705253124E-003
  -1.2299999999999998E-002    -7.3100891895592213E-003
  -1.2199999999999999E-002    -6.9451513700187206E-003
  -1.2100000000000000E-002    -6.4126080833375454E-003
  -1.2000000000000000E-002    -5.7199127040803432E-003
  -1.1900000000000001E-002    -4.8792208544909954E-003
  -1.1799999999999998E-002    -3.9072236977517605E-003
  -1.1699999999999999E-002    -2.8248778544366360E-003
  -1.1599999999999999E-002    -1.6569632571190596E-003
  -1.1500000000000000E-002    -4.3151422869414091E-004
  -1.1400000000000000E-002     8.2087254850193858E-004
  -1.1300000000000001E-002     2.0678332075476646E-003
  -1.1199999999999998E-002     3.2761078327894211E-003
  -1.1099999999999999E-002     4.4125067070126534E-003
  -1.0999999999999999E-002     5.4448475129902363E-003
  -1.0900000000000000E-002     6.3429442234337330E-003
  -1.0800000000000001E-002     7.0795537903904915E-003
  -1.0699999999999998E-002     7.6312446035444736E-003
  -1.0599999999999998E-002     7.9792132601141930E-003
  -1.0499999999999999E-002     8.1099364906549454E-003
  -1.0400000000000000E-002     8.0157127231359482E-003
  -1.0300000000000000E-002     7.6950620859861374E-003
  -1.0200000000000001E-002     7.1528968401253223E-003
  -1.0099999999999998E-002     6.4005190506577492E-003
  -9.9999999999999985E-003     5.4554622620344162E-003
  -9.8999999999999991E-003     4.3411143124103546E-003
  -9.7999999999999997E-003     3.0861303675919771E-003
  -9.7000000000000003E-003     1.7237494466826320E-003
  -9.6000000000000009E-003     2.9086702852509916E-004
  -9.4999999999999980E-003    -1.1729263933375478E-003
  -9.3999999999999986E-003    -2.6264714542776346E-003
  -9.2999999999999992E-003    -4.0281806141138077E-003
  -9.1999999999999998E-003    -5.3372415713965893E-003
  -9.1000000000000004E-003    -6.5147625282406807E-003
  -9.0000000000000011E-003    -7.5249616056680679E-003
  -8.8999999999999982E-003    -8.3361724391579628E-003
  -8.7999999999999988E-003    -8.9217945933341980E-003
  -8.6999999999999994E-003    -9.2610651627182961E-003
  -8.5999999999999965E-003    -9.3397004529833794E-003
  -8.5000000000000006E-003    -9.1503476724028587E-003
  -8.3999999999999977E-003    -8.6927656084299088E-003
  -8.3000000000000018E-003    -7.9738963395357132E-003
  -8.1999999999999990E-003    -7.0076659321784973E-003
  -8.0999999999999961E-003    -5.8145215734839439E-003
  -8.0000000000000002E-003    -4.4210017658770084E-003
  -7.8999999999999973E-003    -2.8588490094989538E-003
  -7.8000000000000014E-003    -1.1641879100352526E-003
  -7.6999999999999985E-003     6.2339741270989180E-004
  -7.6000000000000026E-003     2.4620434269309044E-003
  -7.4999999999999997E-003     4.3087755329906940E-003
  -7.3999999999999969E-003     6.1203939840197563E-003
  -7.3000000000000009E-003     7.8548248857259750E-003
  -7.1999999999999981E-003     9.4717694446444511E-003
  -7.1000000000000021E-003     1.0934124700725079E-002
  -6.9999999999999993E-003     1.2208336032927036E-002
  -6.8999999999999964E-003     1.3265104033052921E-002
  -6.8000000000000005E-003     1.4079923741519451E-002
  -6.6999999999999976E-003     1.4633382670581341E-002
  -6.6000000000000017E-003     1.4911028556525707E-002
  -6.4999999999999988E-003     1.4903461560606956E-002
  -6.3999999999999960E-003     1.4605978503823280E-002
  -6.3000000000000000E-003     1.4018169604241848E-002
  -6.1999999999999972E-003     1.3143204152584076E-002
  -6.1000000000000013E-003     1.1987390927970409E-002
  -5.9999999999999984E-003     1.0559273883700371E-002
  -5.9000000000000025E-003     8.8685574010014534E-003
  -5.7999999999999996E-003     6.9259982556104660E-003
  -5.6999999999999967E-003     4.7417255118489265E-003
  -5.6000000000000008E-003     2.3252798710018396E-003
  -5.4999999999999979E-003    -3.1559483613818884E-004
  -5.4000000000000020E-003    -3.1750672496855259E-003
  -5.2999999999999992E-003    -6.2500187195837498E-003
  -5.1999999999999963E-003    -9.5397792756557465E-003
  -5.1000000000000004E-003    -1.3047109358012676E-002
  -4.9999999999999975E-003    -1.6777081415057182E-002
  -4.9000000000000016E-003    -2.0737182348966599E-002
  -4.7999999999999987E-003    -2.4937829002737999E-002
  -4.6999999999999958E-003    -2.9390715062618256E-002
  -4.5999999999999999E-003    -3.4108791500329971E-002
  -4.4999999999999971E-003    -3.9105799049139023E-002
  -4.4000000000000011E-003    -4.4395096600055695E-002
  -4.2999999999999983E-003    -4.9989245831966400E-002
  -4.2000000000000023E-003    -5.5899623781442642E-002
  -4.0999999999999995E-003    -6.2135223299264908E-002
  -3.9999999999999966E-003    -6.8702749907970428E-002
  -3.9000000000000007E-003    -7.5605832040309906E-002
  -3.7999999999999978E-003    -8.2845009863376617E-002
  -3.7000000000000019E-003    -9.0418234467506409E-002
  -3.5999999999999990E-003    -9.8318926990032196E-002
  -3.4999999999999962E-003   -0.10653931647539139
  -3.4000000000000002E-003   -0.11506742984056473
  -3.2999999999999974E-003   -0.12389203161001205
  -3.2000000000000015E-003   -0.13299797475337982
  -3.0999999999999986E-003   -0.14237223565578461
  -2.9999999999999957E-003   -0.15200102329254150
  -2.8999999999999998E-003   -0.16187231242656708
  -2.7999999999999969E-003   -0.17197862267494202
  -2.7000000000000010E-003   -0.18231385946273804
  -2.5999999999999981E-003   -0.19287791848182678
  -2.5000000000000022E-003   -0.20367559790611267
  -2.3999999999999994E-003   -0.21471838653087616
  -2.2999999999999965E-003   -0.22602342069149017
  -2.2000000000000006E-003   -0.23761674761772156
  -2.0999999999999977E-003   -0.24953031539916992
  -2.0000000000000018E-003   -0.26180478930473328
  -1.8999999999999989E-003   -0.27448794245719910
  -1.7999999999999960E-003   -0.28763231635093689
  -1.7000000000000001E-003   -0.30129972100257874
  -1.5999999999999973E-003   -0.31555679440498352
  -1.5000000000000013E-003   -0.33047479391098022
  -1.3999999999999985E-003   -0.34613078832626343
  -1.2999999999999956E-003   -0.36260554194450378
  -1.1999999999999997E-003   -0.37998294830322266
  -1.0999999999999968E-003   -0.39834693074226379
  -1.0000000000000009E-003   -0.41778424382209778
  -8.9999999999999802E-004   -0.43838354945182800
  -8.0000000000000210E-004   -0.46023333072662354
  -6.9999999999999923E-004   -0.48342385888099670
  -5.9999999999999637E-004   -0.50804144144058228
  -5.0000000000000044E-004   -0.53418052196502686
  -3.9999999999999758E-004   -0.56192600727081299
  -3.0000000000000165E-004   -0.59137362241744995
  -1.9999999999999879E-004   -0.62261599302291870
  -9.9999999999995925E-005   -0.65574818849563599
   0.0000000000000000        -0.69086712598800659
   1.0000000000000286E-004   -0.72808057069778442
   1.9999999999999879E-004   -0.76749032735824585
   3.0000000000000165E-004   -0.80921339988708496
   4.0000000000000452E-004   -0.85336881875991821
   5.0000000000000044E-004   -0.90008115768432617
   6.0000000000000331E-004   -0.94948267936706543
   6.9999999999999923E-004    -1.0017138719558716
   8.0000000000000210E-004    -1.0569239854812622
   8.9999999999999802E-004    -1.1152622699737549
   1.0000000000000009E-003    -1.1768913269042969
   1.1000000000000038E-003    -1.2419769763946533
   1.1999999999999997E-003    -1.3106944561004639
   1.3000000000000025E-003    -1.3832081556320190
   1.3999999999999985E-003    -1.4597040414810181
   1.5000000000000013E-003    -1.5403559207916260
   1.6000000000000042E-003    -1.6253540515899658
   1.7000000000000001E-003    -1.7148679494857788
   1.8000000000000030E-003    -1.8090810775756836
   1.8999999999999989E-003    -1.9081703424453735
   2.0000000000000018E-003    -2.0123116970062256
   2.1000000000000046E-003    -2.1216824054718018
   2.2000000000000006E-003    -2.2364511489868164
   2.3000000000000034E-003    -2.3567879199981689
   2.3999999999999994E-003    -2.4828681945800781
   2.5000000000000022E-003    -2.6148483753204346
   2.5999999999999981E-003    -2.7529354095458984
   2.7000000000000010E-003    -2.8973038196563721
   2.8000000000000039E-003    -3.0481295585632324
   2.8999999999999998E-003    -3.2056279182434082
   3.0000000000000027E-003    -3.3700237274169922
   3.0999999999999986E-003    -3.5415399074554443
   3.2000000000000015E-003    -3.7204351425170898
   3.3000000000000043E-003    -3.9070045948028564
   3.4000000000000002E-003    -4.1015415191650391
   3.5000000000000031E-003    -4.3043866157531738
   3.5999999999999990E-003    -4.5158939361572266
   3.7000000000000019E-003    -4.7364926338195801
   3.7999999999999978E-003    -4.9665975570678711
   3.9000000000000007E-003    -5.2066664695739746
   4.0000000000000036E-003    -5.4572200775146484
   4.0999999999999995E-003    -5.7187738418579102
   4.2000000000000023E-003    -5.9919047355651855
   4.2999999999999983E-003    -6.2771949768066406
   4.4000000000000011E-003    -6.5752620697021484
   4.5000000000000040E-003    -6.8867597579956055
   4.5999999999999999E-003    -7.2123265266418457
   4.7000000000000028E-003    -7.5526442527770996
   4.7999999999999987E-003    -7.9083704948425293
   4.9000000000000016E-003    -8.2802686691284180
   5.0000000000000044E-003    -8.6689453125000000
   5.1000000000000004E-003    -9.0750904083251953
   5.2000000000000032E-003    -9.4994010925292969
   5.2999999999999992E-003    -9.9425878524780273
   5.4000000000000020E-003    -10.405233383178711
   5.4999999999999979E-003    -10.888027191162109
   5.6000000000000008E-003    -11.391574859619141
   5.7000000000000037E-003    -11.916519165039062
   5.7999999999999996E-003    -12.463452339172363
   5.9000000000000025E-003    -13.032889366149902
   5.9999999999999984E-003    -13.625489234924316
   6.1000000000000013E-003    -14.241727828979492
   6.2000000000000041E-003    -14.882291793823242
   6.3000000000000000E-003    -15.547624588012695
   6.4000000000000029E-003    -16.238298416137695
   6.4999999999999988E-003    -16.954952239990234
   6.6000000000000017E-003    -17.698066711425781
   6.7000000000000046E-003    -18.468330383300781
   6.8000000000000005E-003    -19.266366958618164
   6.9000000000000034E-003    -20.092763900756836
   6.9999999999999993E-003    -20.948303222656250
   7.1000000000000021E-003    -21.833642959594727
   7.1999999999999981E-003    -22.749588012695312
   7.3000000000000009E-003    -23.696954727172852
   7.4000000000000038E-003    -24.676551818847656
   7.4999999999999997E-003    -25.689224243164062
   7.6000000000000026E-003    -26.736019134521484
   7.6999999999999985E-003    -27.817846298217773
   7.8000000000000014E-003    -28.935770034790039
   7.9000000000000042E-003    -30.090763092041016
   8.0000000000000002E-003    -31.283901214599609
   8.1000000000000030E-003    -32.516376495361328
   8.1999999999999990E-003    -33.789134979248047
   8.3000000000000018E-003    -35.103626251220703
   8.4000000000000047E-003    -36.460514068603516
   8.5000000000000006E-003    -37.861457824707031
   8.6000000000000035E-003    -39.307357788085938
   8.6999999999999994E-003    -40.799400329589844
   8.8000000000000023E-003    -42.338714599609375
   8.8999999999999982E-003    -43.926475524902344
   9.0000000000000011E-003    -45.563678741455078
   9.1000000000000039E-003    -47.251453399658203
   9.1999999999999998E-003    -48.990985870361328
   9.3000000000000027E-003    -50.783119201660156
   9.3999999999999986E-003    -52.628982543945312
   9.5000000000000015E-003    -54.529296875000000
   9.6000000000000044E-003    -56.485309600830078
   9.7000000000000003E-003    -58.497699737548828
   9.8000000000000032E-003    -60.567222595214844
   9.8999999999999991E-003    -62.694892883300781
   1.0000000000000002E-002    -64.881454467773438
   1.0100000000000005E-002    -67.127548217773438
   1.0200000000000001E-002    -69.434051513671875
   1.0300000000000004E-002    -71.801345825195312
   1.0400000000000000E-002    -74.230468750000000
   1.0500000000000002E-002    -76.721588134765625
   1.0599999999999998E-002    -79.275512695312500
   1.0700000000000001E-002    -81.892471313476562
   1.0800000000000004E-002    -84.572845458984375
   1.0900000000000000E-002    -87.317459106445312
   1.1000000000000003E-002    -90.126319885253906
   1.1099999999999999E-002    -92.999427795410156
   1.1200000000000002E-002    -95.937767028808594
   1.1300000000000004E-002    -98.941375732421875
   1.1400000000000000E-002    -102.00991821289062
   1.1500000000000003E-002    -105.14320373535156
   1.1599999999999999E-002    -108.34172058105469
   1.1700000000000002E-002    -111.60518646240234
   1.1800000000000005E-002    -114.93355560302734
   1.1900000000000001E-002    -118.32621765136719
   1.2000000000000004E-002    -121.78283691406250
   1.2100000000000000E-002    -125.30367279052734
   1.2200000000000003E-002    -128.88723754882812
   1.2299999999999998E-002    -132.53390502929688
   1.2400000000000001E-002    -136.24272155761719
   1.2500000000000004E-002    -140.01258850097656
   1.2600000000000000E-002    -143.84353637695312
   1.2700000000000003E-002    -147.73326110839844
   1.2799999999999999E-002    -151.68180847167969
   1.2900000000000002E-002    -155.68844604492188
   1.3000000000000005E-002    -159.75109863281250
   1.3100000000000001E-002    -163.86923217773438
   1.3200000000000003E-002    -168.04046630859375
   1.3299999999999999E-002    -172.26475524902344
   1.3400000000000002E-002    -176.53916931152344
   1.3500000000000005E-002    -180.86254882812500
   1.3600000000000001E-002    -185.23271179199219
   1.3700000000000004E-002    -189.64830017089844
   1.3800000000000000E-002    -194.10722351074219
   1.3900000000000003E-002    -198.60618591308594
   1.3999999999999999E-002    -203.14427185058594
   1.4100000000000001E-002    -207.71701049804688
   1.4200000000000004E-002    -212.32301330566406
   1.4300000000000000E-002    -216.95811462402344
   1.4400000000000003E-002    -221.62001037597656
   1.4499999999999999E-002    -226.30468750000000
   1.4600000000000002E-002    -231.00834655761719
   1.4700000000000005E-002    -235.72720336914062
   1.4800000000000001E-002    -240.45733642578125
   1.4900000000000004E-002    -245.19412231445312
   1.4999999999999999E-002    -249.93190002441406
   1.5100000000000002E-002    -254.66787719726562
   1.5200000000000005E-002    -259.39605712890625
   1.5300000000000001E-002    -264.11181640625000
   1.5400000000000004E-002    -268.80902099609375
   1.5500000000000000E-002    -273.48251342773438
   1.5600000000000003E-002    -278.12561035156250
   1.5699999999999999E-002    -282.73403930664062
   1.5800000000000002E-002    -287.29946899414062
   1.5900000000000004E-002    -291.81784057617188
   1.6000000000000000E-002    -296.28009033203125
   1.6100000000000003E-002    -300.68151855468750
   1.6199999999999999E-002    -305.01382446289062
   1.6300000000000002E-002    -309.27215576171875