  -4.0000000000000001E-002     0.0000000000000000
  -3.9899999999999998E-002     0.0000000000000000
  -3.9800000000000002E-002     0.0000000000000000
  -3.9699999999999999E-002     0.0000000000000000
  -3.9600000000000003E-002     0.0000000000000000
  -3.9500000000000000E-002     0.0000000000000000
  -3.9399999999999998E-002     0.0000000000000000
  -3.9300000000000002E-002     0.0000000000000000
  -3.9199999999999999E-002     0.0000000000000000
  -3.9100000000000003E-002     0.0000000000000000
  -3.9000000000000000E-002     9.8090892502737195E-045
  -3.8900000000000004E-002    -1.4433374182545616E-043
  -3.8800000000000001E-002    -2.0332840717353096E-042
  -3.8699999999999998E-002    -2.5458790499853277E-041
  -3.8600000000000002E-002    -2.5320902730963715E-040
  -3.8500000000000000E-002    -1.7574496794206839E-039
  -3.8400000000000004E-002    -3.9107213334622703E-039
  -3.8300000000000001E-002    -1.7594022487008741E-038
  -3.8199999999999998E-002    -5.9746131267747482E-038
  -3.8100000000000002E-002    -1.0435906868947782E-037
  -3.7999999999999999E-002    -1.4422107742892444E-037
  -3.7900000000000003E-002     1.0877058046292664E-038
  -3.7800000000000000E-002    -3.2013560248517614E-037
  -3.7699999999999997E-002    -2.7300214166839335E-036
  -3.7600000000000001E-002    -4.1051731314356278E-037
  -3.7499999999999999E-002     3.2432821125979953E-036
  -3.7400000000000003E-002     3.6159376416404764E-036
  -3.7300000000000000E-002    -9.0985638997108141E-035
  -3.7200000000000004E-002    -1.0407071635224634E-034
  -3.7100000000000001E-002    -4.5097110677102604E-034
  -3.6999999999999998E-002    -9.3239422121956886E-034
  -3.6900000000000002E-002    -4.8842860160196287E-034
  -3.6799999999999999E-002     2.4132239643519148E-033
  -3.6700000000000003E-002     5.6612189971265384E-033
  -3.6600000000000001E-002     6.4054259400000671E-033
  -3.6499999999999998E-002    -1.7063402528139399E-033
  -3.6400000000000002E-002    -1.0742945727920582E-032
  -3.6299999999999999E-002    -9.3116968671379821E-033
  -3.6200000000000003E-002    -8.0982516811993970E-033
  -3.6100000000000000E-002     6.1174130732541075E-032
  -3.6000000000000004E-002     2.4845645916070447E-031
  -3.5900000000000001E-002     3.2662671594095150E-031
  -3.5799999999999998E-002     2.8813089813372572E-031
  -3.5700000000000003E-002     3.6596509871148793E-032
  -3.5600000000000000E-002    -1.2709620069748845E-031
  -3.5500000000000004E-002    -3.9018682396448938E-031
  -3.5400000000000001E-002    -6.7716971080531504E-031
  -3.5299999999999998E-002    -9.9932357670183967E-031
  -3.5200000000000002E-002    -1.4529882240853094E-030
  -3.5099999999999999E-002    -2.9648707840168728E-030
  -3.5000000000000003E-002    -5.2741091236648744E-030
  -3.4900000000000000E-002    -6.0204972550810714E-030
  -3.4799999999999998E-002    -1.1049085669706646E-029
  -3.4700000000000002E-002    -2.3795290273977941E-029
  -3.4599999999999999E-002    -3.2599346490902229E-029
  -3.4500000000000003E-002    -2.2540137655096474E-029
  -3.4400000000000000E-002    -5.0877817962346778E-030
  -3.4299999999999997E-002     1.0957743175879390E-029
  -3.4200000000000001E-002     3.5368716389575088E-029
  -3.4099999999999998E-002     7.2175187630883857E-029
  -3.4000000000000002E-002     2.6110079015831881E-029
  -3.3900000000000000E-002    -5.4975441558352751E-029
  -3.3799999999999997E-002    -7.2741850387302268E-029
  -3.3700000000000001E-002    -1.1893122398964295E-030
  -3.3599999999999998E-002     8.0627438136912128E-029
  -3.3500000000000002E-002     1.0685340998714751E-028
  -3.3399999999999999E-002     1.5917422795106089E-029
  -3.3300000000000003E-002    -3.0292440520125355E-029
  -3.3200000000000000E-002     4.9622009323578005E-029
  -3.3099999999999997E-002    -1.9379624324560382E-028
  -3.3000000000000002E-002    -4.1707674060282626E-028
  -3.2899999999999999E-002    -7.3159212647019350E-028
  -3.2800000000000003E-002    -1.8834953521435686E-027
  -3.2700000000000000E-002    -2.4786543124638786E-027
  -3.2600000000000004E-002    -2.5460158307917610E-027
  -3.2500000000000001E-002    -2.8715892804725678E-027
  -3.2399999999999998E-002    -2.8521285287565126E-027
  -3.2300000000000002E-002    -2.3066379535509883E-027
  -3.2199999999999999E-002    -2.8257925923249838E-027
  -3.2100000000000004E-002    -2.7790352503211393E-027
  -3.2000000000000001E-002     1.0521257063760306E-027
  -3.1899999999999998E-002     8.0616076353946459E-027
  -3.1800000000000002E-002     2.0602010038036519E-026
  -3.1699999999999999E-002     3.1409563136191798E-026
  -3.1600000000000003E-002     4.7159864443709278E-026
  -3.1500000000000000E-002     5.5790375606864380E-026
  -3.1399999999999997E-002     7.3594651925935693E-026
  -3.1300000000000001E-002     9.2917559443267318E-026
  -3.1199999999999999E-002     7.4351348260341482E-026
  -3.1100000000000003E-002     5.4693489170057852E-026
  -3.1000000000000000E-002     4.0372831852906260E-026
  -3.0900000000000000E-002     8.1398774283345432E-028
  -3.0800000000000001E-002    -1.4580796526599864E-026
  -3.0699999999999998E-002     3.5514844590768520E-026
  -3.0600000000000002E-002     2.7892624005490222E-026
  -3.0499999999999999E-002    -2.5171385142428166E-026
  -3.0400000000000000E-002    -6.9170374842810224E-026
  -3.0300000000000001E-002    -1.7365271527530326E-025
  -3.0200000000000001E-002    -3.2129131239055295E-025
  -3.0100000000000002E-002    -4.7206378271130954E-025
  -2.9999999999999999E-002    -6.5479675539186912E-025
  -2.9899999999999999E-002    -9.2180063243737509E-025
  -2.9800000000000000E-002    -1.2323466732226863E-024
  -2.9700000000000001E-002    -1.1480320363813068E-024
  -2.9600000000000001E-002    -6.9218693805850176E-025
  -2.9499999999999998E-002    -7.6485235497891785E-026
  -2.9400000000000003E-002     2.7864620675950040E-025
  -2.9300000000000000E-002    -1.8165315768678010E-025
  -2.9200000000000000E-002    -3.6047566057849762E-025
  -2.9100000000000001E-002    -1.5133103314545965E-025
  -2.8999999999999998E-002     6.4890854968387976E-025
  -2.8900000000000002E-002     2.0815775257984517E-024
  -2.8799999999999999E-002     3.1650381416437978E-024
  -2.8700000000000000E-002     4.9161074028427074E-024
  -2.8600000000000000E-002     8.7215223169613868E-024
  -2.8500000000000001E-002     1.2422985479725020E-023
  -2.8400000000000002E-002     1.6215293075473000E-023
  -2.8299999999999999E-002     2.1314002450782193E-023
  -2.8200000000000003E-002     2.4701211827898363E-023
  -2.8100000000000000E-002     2.7500038254802769E-023
  -2.8000000000000001E-002     2.9866576794255112E-023
  -2.7900000000000001E-002     3.0010976205234008E-023
  -2.7799999999999998E-002     2.9868479526758505E-023
  -2.7700000000000002E-002     3.0005504665995395E-023
  -2.7600000000000000E-002     3.1406701493954302E-023
  -2.7500000000000000E-002     3.4340598262772459E-023
  -2.7400000000000001E-002     3.2003130825399321E-023
  -2.7299999999999998E-002     2.9608426796186967E-023
  -2.7200000000000002E-002     2.6765346850221473E-023
  -2.7099999999999999E-002     1.6916888609636653E-023
  -2.7000000000000000E-002    -1.6509301732064097E-024
  -2.6900000000000000E-002    -3.0374969248677466E-023
  -2.6800000000000001E-002    -5.3430098157809163E-023
  -2.6700000000000002E-002    -7.0416507501301133E-023
  -2.6599999999999999E-002    -9.8560489757592193E-023
  -2.6500000000000003E-002    -1.1365647913869977E-022
  -2.6400000000000000E-002    -1.2358217948368021E-022
  -2.6300000000000000E-002    -1.6546584678951426E-022
  -2.6200000000000001E-002    -2.0420059593187225E-022
  -2.6099999999999998E-002    -2.3305164999473101E-022
  -2.6000000000000002E-002    -2.8808145078324528E-022
  -2.5899999999999999E-002    -3.2993081210603307E-022
  -2.5800000000000000E-002    -3.5724572048359857E-022
  -2.5700000000000001E-002    -3.6998083850199692E-022
  -2.5599999999999998E-002    -3.6845812238475415E-022
  -2.5500000000000002E-002    -3.2179577552880639E-022
  -2.5399999999999999E-002    -2.0045495813613805E-022
  -2.5300000000000000E-002    -1.1995081923411995E-022
  -2.5200000000000000E-002    -1.6626045060212528E-023
  -2.5100000000000001E-002     1.5588222177658662E-022
  -2.5000000000000001E-002     3.3411402157956250E-022
  -2.4899999999999999E-002     5.4905708550501931E-022
  -2.4800000000000003E-002     7.4830769916348731E-022
  -2.4700000000000000E-002     8.9964979292769906E-022
  -2.4600000000000000E-002     1.0824307579335800E-021
  -2.4500000000000001E-002     1.1939472656956942E-021
  -2.4399999999999998E-002     1.3081155577897013E-021
  -2.4299999999999999E-002     1.4476290798660202E-021
  -2.4199999999999999E-002     1.6205305275997560E-021
  -2.4100000000000000E-002     1.7373957394912093E-021
  -2.4000000000000000E-002     1.6478311228850572E-021
  -2.3900000000000001E-002     1.5641685490016025E-021
  -2.3800000000000002E-002     1.4510399882024511E-021
  -2.3699999999999999E-002     1.2980542869649932E-021
  -2.3599999999999999E-002     1.1378810405172388E-021
  -2.3500000000000000E-002     8.1772503544223551E-022
  -2.3400000000000001E-002     4.8252791415069179E-022
  -2.3300000000000001E-002     1.5888072625354238E-022
  -2.3199999999999998E-002    -1.6735715658699974E-023
  -2.3099999999999999E-002    -1.6875042378513937E-022
  -2.3000000000000000E-002    -5.1908218864214649E-022
  -2.2900000000000000E-002    -8.6446594022256879E-022
  -2.2800000000000001E-002    -1.3948254319302652E-021
  -2.2700000000000001E-002    -2.2782908787958031E-021
  -2.2599999999999999E-002    -3.5288704310119902E-021
  -2.2499999999999999E-002    -4.9863776145114135E-021
  -2.2400000000000000E-002    -6.1530225683604767E-021
  -2.2300000000000000E-002    -6.7986103792704056E-021
  -2.2200000000000001E-002    -6.8735469650953145E-021
  -2.2100000000000002E-002    -6.7812807838787063E-021
  -2.1999999999999999E-002    -6.5250708787664258E-021
  -2.1899999999999999E-002    -7.1046526656308208E-021
  -2.1800000000000000E-002    -8.8321135539905491E-021
  -2.1700000000000001E-002    -9.3978154278908890E-021
  -2.1600000000000001E-002    -8.3148065926859630E-021
  -2.1499999999999998E-002    -7.5408474592911934E-021
  -2.1399999999999999E-002    -8.3811038263123811E-021
  -2.1299999999999999E-002    -6.8100584297011688E-021
  -2.1200000000000000E-002    -3.4351869759821747E-021
  -2.1100000000000001E-002     1.5623622216117146E-021
  -2.1000000000000001E-002     6.5198917103119495E-021
  -2.0899999999999998E-002     1.0191774722209683E-020
  -2.0799999999999999E-002     1.4803558668785699E-020
  -2.0700000000000000E-002     2.1627685631248805E-020
  -2.0600000000000000E-002     2.7628397914767987E-020
  -2.0500000000000001E-002     3.1555189072444866E-020
  -2.0400000000000001E-002     3.4650893127878966E-020
  -2.0299999999999999E-002     3.7770465867629195E-020
  -2.0199999999999999E-002     4.1076903877633981E-020
  -2.0100000000000000E-002     4.5732176198680120E-020
  -2.0000000000000000E-002     5.8491427453787768E-020
  -1.9900000000000001E-002     6.7440319684783911E-020
  -1.9799999999999998E-002     6.6314481634659492E-020
  -1.9699999999999999E-002     6.7856546629262938E-020
  -1.9599999999999999E-002     6.7137894698016282E-020
  -1.9500000000000000E-002     6.5320320398295857E-020
  -1.9400000000000001E-002     6.2367990007471926E-020
  -1.9300000000000001E-002     6.1429598838970265E-020
  -1.9199999999999998E-002     6.7275271303185440E-020
  -1.9099999999999999E-002     6.1332172472448003E-020
  -1.9000000000000000E-002     4.5717845940802492E-020
  -1.8900000000000000E-002     2.7557496257809975E-020
  -1.8800000000000001E-002     1.3905263141772985E-020
  -1.8700000000000001E-002     7.3031574333915077E-021
  -1.8599999999999998E-002     7.1980096710853942E-022
  -1.8499999999999999E-002    -6.6304200845932966E-021
  -1.8400000000000000E-002    -1.5255451314832539E-020
  -1.8300000000000000E-002    -2.9422992103095923E-020
  -1.8200000000000001E-002    -4.7589629651213550E-020
  -1.8100000000000002E-002    -6.2179005086897701E-020
  -1.7999999999999999E-002    -7.1447066249717137E-020
  -1.7899999999999999E-002    -6.8062204409058935E-020
  -1.7800000000000000E-002    -6.3390895770121778E-020
  -1.7700000000000000E-002    -4.4171971391737327E-020
  -1.7600000000000001E-002    -4.2679151108562062E-021
  -1.7499999999999998E-002     1.7212778748396078E-020
  -1.7399999999999999E-002     2.2858733946706581E-020
  -1.7299999999999999E-002     4.6074788107609761E-021
  -1.7200000000000000E-002    -5.1963198506071366E-020
  -1.7100000000000001E-002    -1.4091876057317229E-019
  -1.7000000000000001E-002    -1.4182067178419065E-019
  -1.6899999999999998E-002    -9.3387844589578665E-020
  -1.6799999999999999E-002    -1.3431162958101084E-019
  -1.6700000000000000E-002    -1.8923770179954192E-019
  -1.6600000000000000E-002    -2.3405220188795115E-019
  -1.6500000000000001E-002    -2.9635384296300837E-019
  -1.6400000000000001E-002    -3.8096955994108435E-019
  -1.6299999999999999E-002    -4.9939535387907622E-019
  -1.6199999999999999E-002    -6.1649951999336149E-019
  -1.6100000000000000E-002    -7.1188104434260341E-019
  -1.6000000000000000E-002    -7.2267378678246561E-019
  -1.5900000000000001E-002    -6.8962042498667089E-019
  -1.5799999999999998E-002    -6.5686417612714756E-019
  -1.5699999999999999E-002    -6.1855661477920430E-019
  -1.5599999999999999E-002    -4.8439794898803041E-019
  -1.5500000000000000E-002    -2.8645791940351851E-019
  -1.5400000000000000E-002     1.4140736582124971E-019
  -1.5300000000000001E-002     8.1738643220888184E-019
  -1.5199999999999998E-002     1.4453815913676225E-018
  -1.5099999999999999E-002     2.0605211747351585E-018
  -1.4999999999999999E-002     2.6939473433019809E-018
  -1.4900000000000000E-002     3.3714734054561491E-018
  -1.4800000000000001E-002     3.9820147951960794E-018
  -1.4700000000000001E-002     4.6230925912241704E-018
  -1.4599999999999998E-002     5.3027343745900961E-018
  -1.4499999999999999E-002     5.8682347460007484E-018
  -1.4400000000000000E-002     5.9408132273073761E-018
  -1.4300000000000000E-002     5.8195812231412981E-018
  -1.4200000000000001E-002     5.5621204303035557E-018
  -1.4099999999999998E-002     5.1217079654843974E-018
  -1.3999999999999999E-002     4.9160745875164712E-018
  -1.3899999999999999E-002     4.3878982597054367E-018
  -1.3800000000000000E-002     3.2117808115288055E-018
  -1.3700000000000000E-002     1.8607609859115119E-018
  -1.3600000000000001E-002     6.2277415022867076E-019
  -1.3499999999999998E-002    -7.4004638910366915E-019
  -1.3399999999999999E-002    -2.1438556923419664E-018
  -1.3299999999999999E-002    -3.6316190197670855E-018
  -1.3200000000000000E-002    -5.0080976034823830E-018
  -1.3100000000000001E-002    -6.3428718086642882E-018
  -1.3000000000000001E-002    -7.6651642719930745E-018
  -1.2899999999999998E-002    -9.1480095970862596E-018
  -1.2799999999999999E-002    -1.0535543036098022E-017
  -1.2699999999999999E-002    -1.1347492772032111E-017
  -1.2600000000000000E-002    -1.2663947408187804E-017
  -1.2500000000000001E-002    -1.4048737916288341E-017
  -1.2399999999999998E-002    -1.4562266529812286E-017
  -1.2299999999999998E-002    -1.4404131103388074E-017
  -1.2199999999999999E-002    -1.4443011900900516E-017
  -1.2100000000000000E-002    -1.4354151196416395E-017
  -1.2000000000000000E-002    -1.3169288588008700E-017
  -1.1900000000000001E-002    -1.1376650061443993E-017
  -1.1799999999999998E-002    -9.0927804019473191E-018
  -1.1699999999999999E-002    -6.6836210037896887E-018
  -1.1599999999999999E-002    -4.1323685200076993E-018
  -1.1500000000000000E-002    -3.7522820270693036E-019
  -1.1400000000000000E-002     3.8794956844374822E-018
  -1.1300000000000001E-002     7.0605241955382507E-018
  -1.1199999999999998E-002     1.0876317460232105E-017
  -1.1099999999999999E-002     1.6190710531965830E-017
  -1.0999999999999999E-002     2.0714447151093806E-017
  -1.0900000000000000E-002     2.4360909099772543E-017
  -1.0800000000000001E-002     2.6459166874437830E-017
  -1.0699999999999998E-002     2.7761025081504413E-017
  -1.0599999999999998E-002     2.8974919247870881E-017
  -1.0499999999999999E-002     2.9843733515014928E-017
  -1.0400000000000000E-002     3.0874622242660165E-017
  -1.0300000000000000E-002     3.1825903108153298E-017
  -1.0200000000000001E-002     3.2505339337137004E-017
  -1.0099999999999998E-002     3.0747448186563812E-017
  -9.9999999999999985E-003     2.7631927003303262E-017
  -9.8999999999999991E-003     2.4013782755714665E-017
  -9.7999999999999997E-003     1.7813177327013066E-017
  -9.7000000000000003E-003     1.0430426578216008E-017
  -9.6000000000000009E-003     4.0796283113319308E-018
  -9.4999999999999980E-003    -2.5973096934937889E-018
  -9.3999999999999986E-003    -1.0463843847782538E-017
  -9.2999999999999992E-003    -1.9679905593863535E-017
  -9.1999999999999998E-003    -2.9321236609289683E-017
  -9.1000000000000004E-003    -3.8871142660332794E-017
  -9.0000000000000011E-003    -4.9339311835538372E-017
  -8.8999999999999982E-003    -5.7494822984388593E-017
  -8.7999999999999988E-003    -6.2494348928773396E-017
  -8.6999999999999994E-003    -6.6307135391940620E-017
  -8.5999999999999965E-003    -7.1686059304801444E-017
  -8.5000000000000006E-003    -7.5759136345681955E-017
  -8.3999999999999977E-003    -7.1582648493342515E-017
  -8.3000000000000018E-003    -6.0737959938192600E-017
  -8.1999999999999990E-003    -4.8104903589980588E-017
  -8.0999999999999961E-003    -3.3212290902016675E-017
  -8.0000000000000002E-003    -1.5604800306121045E-017
  -7.8999999999999973E-003     4.5534576321273126E-018
  -7.8000000000000014E-003     2.8751779005828577E-017
  -7.6999999999999985E-003     4.9189023044404837E-017
  -7.6000000000000026E-003     6.3954600642615307E-017
  -7.4999999999999997E-003     8.2595585585085716E-017
  -7.3999999999999969E-003     1.0511263961630611E-016
  -7.3000000000000009E-003     1.2576877549729860E-016
  -7.1999999999999981E-003     1.4495593787207042E-016
  -7.1000000000000021E-003     1.6020565435664083E-016
  -6.9999999999999993E-003     1.6771380734066215E-016
  -6.8999999999999964E-003     1.7123868201110172E-016
  -6.8000000000000005E-003     1.8016143295659692E-016
  -6.6999999999999976E-003     1.8552554702777060E-016
  -6.6000000000000017E-003     1.7618535442306683E-016
  -6.4999999999999988E-003     1.6476764146165448E-016
  -6.3999999999999960E-003     1.5228192583287287E-016
  -6.3000000000000000E-003     1.3113013671139370E-016
  -6.1999999999999972E-003     9.7928470117164654E-017
  -6.1000000000000013E-003     5.5154702561696476E-017
  -5.9999999999999984E-003     1.0118859901511172E-017
  -5.9000000000000025E-003    -3.1746248923886892E-017
  -5.7999999999999996E-003    -7.8059075642938696E-017
  -5.6999999999999967E-003    -1.3079418226868896E-016
  -5.6000000000000008E-003    -1.8434128908839068E-016
  -5.4999999999999979E-003    -2.4681200712142466E-016
  -5.4000000000000020E-003    -3.1409035181417604E-016
  -5.2999999999999992E-003    -3.8862628655723908E-016
  -5.1999999999999963E-003    -4.5189493609636621E-016
  -5.1000000000000004E-003    -4.9308344840382347E-016
  -4.9999999999999975E-003    -5.3027947091439757E-016
  -4.9000000000000016E-003    -5.6434279500911086E-016
  -4.7999999999999987E-003    -5.8211582264355182E-016
  -4.6999999999999958E-003    -5.7566582556888794E-016
  -4.5999999999999999E-003    -5.3881041618222846E-016
  -4.4999999999999971E-003    -4.8675875926579401E-016
  -4.4000000000000011E-003    -4.2287714904043038E-016
  -4.2999999999999983E-003    -3.4217582029298090E-016
  -4.2000000000000023E-003    -2.3842172226239719E-016
  -4.0999999999999995E-003    -1.1711643982021433E-016
  -3.9999999999999966E-003     3.1480925779326833E-017
  -3.9000000000000007E-003     2.1059326210863500E-016
  -3.7999999999999978E-003     3.8354684173079186E-016
  -3.7000000000000019E-003     5.3672766804404855E-016
  -3.5999999999999990E-003     6.6134320818366042E-016
  -3.4999999999999962E-003     8.1898800400806568E-016
  -3.4000000000000002E-003     1.0049636166984039E-015
  -3.2999999999999974E-003     1.1783363320456638E-015
  -3.2000000000000015E-003     1.3156384669714546E-015
  -3.0999999999999986E-003     1.4115485369846511E-015
  -2.9999999999999957E-003     1.4714209549822029E-015
  -2.8999999999999998E-003     1.4883799310147733E-015
  -2.7999999999999969E-003     1.4474087355978459E-015
  -2.7000000000000010E-003     1.3529021991782499E-015
  -2.5999999999999981E-003     1.2310930380115691E-015
  -2.5000000000000022E-003     1.0531950491436031E-015
  -2.3999999999999994E-003     7.9240683957380485E-016
  -2.2999999999999965E-003     4.6237966873615755E-016
  -2.2000000000000006E-003     1.0330075011534545E-016
  -2.0999999999999977E-003    -2.9276227396054957E-016
  -2.0000000000000018E-003    -7.4092830632530634E-016
  -1.8999999999999989E-003    -1.2323738577069360E-015
  -1.7999999999999960E-003    -1.7433794115439172E-015
  -1.7000000000000001E-003    -2.2587058922030794E-015
  -1.5999999999999973E-003    -2.7973796713830039E-015
  -1.5000000000000013E-003    -3.2934468462830898E-015
  -1.3999999999999985E-003    -3.7200687544531111E-015
  -1.2999999999999956E-003    -4.0447246246744228E-015
  -1.1999999999999997E-003    -4.3049090056319472E-015
  -1.0999999999999968E-003    -4.4384589963596382E-015
  -1.0000000000000009E-003    -4.3857231485800591E-015
  -8.9999999999999802E-004    -4.1756615187598344E-015
  -8.0000000000000210E-004    -3.7203999443354875E-015
  -6.9999999999999923E-004    -3.0718918264015715E-015
  -5.9999999999999637E-004    -2.2442036293549017E-015
  -5.0000000000000044E-004    -1.2720390341983156E-015
  -3.9999999999999758E-004    -1.8130875231854267E-016
  -3.0000000000000165E-004     1.0847756137907956E-015
  -1.9999999999999879E-004     2.5339865178630435E-015
  -9.9999999999995925E-005     4.1291378106154183E-015
   0.0000000000000000          5.8072790621991645E-015
   1.0000000000000286E-004     7.4961933023225645E-015
   1.9999999999999879E-004     9.0950781045481995E-015
   3.0000000000000165E-004     1.0527774195489593E-014
   4.0000000000000452E-004     1.1693841255294279E-014
   5.0000000000000044E-004     1.2488857909257692E-014
   6.0000000000000331E-004     1.2999461228323846E-014
   6.9999999999999923E-004     1.3132676641037372E-014
   8.0000000000000210E-004     1.2690721107181443E-014
   8.9999999999999802E-004     1.1747705774476074E-014
   1.0000000000000009E-003     1.0318693429822289E-014
   1.1000000000000038E-003     8.1122242712346193E-015
   1.1999999999999997E-003     5.3186863177838873E-015
   1.3000000000000025E-003     1.9688139482029786E-015
   1.3999999999999985E-003    -1.9337734657244891E-015
   1.5000000000000013E-003    -6.1158904343335853E-015
   1.6000000000000042E-003    -1.0600937513341631E-014
   1.7000000000000001E-003    -1.5209699683526798E-014
   1.8000000000000030E-003    -1.9953927832966345E-014
   1.8999999999999989E-003    -2.4746306417325510E-014
   2.0000000000000018E-003    -2.9284273573779163E-014
   2.1000000000000046E-003    -3.3357766825474131E-014
   2.2000000000000006E-003    -3.6724367036972128E-014
   2.3000000000000034E-003    -3.9153488123108010E-014
   2.3999999999999994E-003    -4.0575144833647839E-014
   2.5000000000000022E-003    -4.0822058325904256E-014
   2.5999999999999981E-003    -3.9693559718409141E-014
   2.7000000000000010E-003    -3.7145264484726367E-014
   2.8000000000000039E-003    -3.3026912368144812E-014
   2.8999999999999998E-003    -2.7285546868802135E-014
   3.0000000000000027E-003    -2.0072780107993279E-014
   3.0999999999999986E-003    -1.1227300590144294E-014
   3.2000000000000015E-003    -8.9567942584365410E-016
   3.3000000000000043E-003     1.0364507747873380E-014
   3.4000000000000002E-003     2.2528350644940125E-014
   3.5000000000000031E-003     3.5141309892398886E-014
   3.5999999999999990E-003     4.7918845947443264E-014
   3.7000000000000019E-003     6.0655541461902829E-014
   3.7999999999999978E-003     7.2438603238630245E-014
   3.9000000000000007E-003     8.3106434331948337E-014
   4.0000000000000036E-003     9.2080585777781776E-014
   4.0999999999999995E-003     9.8739498023171779E-014
   4.2000000000000023E-003     1.0278958267233643E-013
   4.2999999999999983E-003     1.0379474650644774E-013
   4.4000000000000011E-003     1.0160120899986580E-013
   4.5000000000000040E-003     9.5629308237334815E-014
   4.5999999999999999E-003     8.5788499784925087E-014
   4.7000000000000028E-003     7.2267285742850379E-014
   4.7999999999999987E-003     5.4990551229348178E-014
   4.9000000000000016E-003     3.4253233116652432E-014
   5.0000000000000044E-003     1.0589995541729000E-014
   5.1000000000000004E-003    -1.5326678321674406E-014
   5.2000000000000032E-003    -4.2955243040928431E-014
   5.2999999999999992E-003    -7.1296416578707500E-014
   5.4000000000000020E-003    -9.9717807524723340E-014
   5.4999999999999979E-003    -1.2747737435959972E-013
   5.6000000000000008E-003    -1.5326696617586066E-013
   5.7000000000000037E-003    -1.7600112719225874E-013
   5.7999999999999996E-003    -1.9484976512048474E-013
   5.9000000000000025E-003    -2.0863920400376879E-013
   5.9999999999999984E-003    -2.1627824856561284E-013
   6.1000000000000013E-003    -2.1725045265368059E-013
   6.2000000000000041E-003    -2.1116948792886114E-013
   6.3000000000000000E-003    -1.9708605407398050E-013
   6.4000000000000029E-003    -1.7480674297399440E-013
   6.4999999999999988E-003    -1.4442335944785806E-013
   6.6000000000000017E-003    -1.0603636160311583E-013
   6.7000000000000046E-003    -6.1289115330185467E-014
   6.8000000000000005E-003    -1.1447125968747519E-014
   6.9000000000000034E-003     4.2617486959144885E-014
   6.9999999999999993E-003     9.9678613616187989E-014
   7.1000000000000021E-003     1.5727172439795184E-013
   7.1999999999999981E-003     2.1337608329535795E-013
   7.3000000000000009E-003     2.6626175765077920E-013
   7.4000000000000038E-003     3.1351511014035549E-013
   7.4999999999999997E-003     3.5229729290070511E-013
   7.6000000000000026E-003     3.8038130045943419E-013
   7.6999999999999985E-003     3.9622368970884669E-013
   7.8000000000000014E-003     3.9842556879589319E-013
   7.9000000000000042E-003     3.8537106990775560E-013
   8.0000000000000002E-003     3.5695711252288487E-013
   8.1000000000000030E-003     3.1311433480729622E-013
   8.1999999999999990E-003     2.5325574970480602E-013
   8.3000000000000018E-003     1.7845179002030920E-013
   8.4000000000000047E-003     9.0229703591550303E-014
   8.5000000000000006E-003    -8.7493082440506798E-015
   8.6000000000000035E-003    -1.1458371686375035E-013
   8.6999999999999994E-003    -2.2510988841213664E-013
   8.8000000000000023E-003    -3.3767850711810543E-013
   8.8999999999999982E-003    -4.4706507376299220E-013
   9.0000000000000011E-003    -5.4740088330229586E-013
   9.1000000000000039E-003    -6.3275670510523629E-013
   9.1999999999999998E-003    -6.9921163043523693E-013
   9.3000000000000027E-003    -7.4251656255810983E-013
   9.3999999999999986E-003    -7.5815059525502493E-013
   9.5000000000000015E-003    -7.4257467579455505E-013
   9.6000000000000044E-003    -6.9379793793747369E-013
   9.7000000000000003E-003    -6.1157909249029418E-013
   9.8000000000000032E-003    -4.9478959341167639E-013
   9.8999999999999991E-003    -3.4496418308688215E-013
   1.0000000000000002E-002    -1.6521658173507259E-013
   1.0100000000000005E-002     4.1300736973188396E-014
   1.0200000000000001E-002     2.6807191449290668E-013
   1.0300000000000004E-002     5.0867491642458962E-013
   1.0400000000000000E-002     7.5605781401158478E-013
   1.0500000000000002E-002     9.9925243860626844E-013
   1.0599999999999998E-002     1.2269679629944852E-012
   1.0700000000000001E-002     1.4294897730804390E-012
   1.0800000000000004E-002     1.5971282456284097E-012
   1.0900000000000000E-002     1.7186589608073066E-012
   1.1000000000000003E-002     1.7846436134449917E-012
   1.1099999999999999E-002     1.7866563263579938E-012
   1.1200000000000002E-002     1.7161097846593587E-012
   1.1300000000000004E-002     1.5678552206521701E-012
   1.1400000000000000E-002     1.3412669412626865E-012
   1.1500000000000003E-002     1.0398412816567393E-012
   1.1599999999999999E-002     6.6617967652699006E-013
   1.1700000000000002E-002     2.2495320764568533E-013
   1.1800000000000005E-002    -2.7269516939681937E-013
   1.1900000000000001E-002    -8.1292318796638563E-013
   1.2000000000000004E-002    -1.3797372532681207E-012
   1.2100000000000000E-002    -1.9531479298479093E-012
   1.2200000000000003E-002    -2.5123067688703760E-012
   1.2299999999999998E-002    -3.0358870799218618E-012
   1.2400000000000001E-002    -3.5015755486117461E-012
   1.2500000000000004E-002    -3.8854084880024509E-012
   1.2600000000000000E-002    -4.1623245648769736E-012
   1.2700000000000003E-002    -4.3133266056094577E-012
   1.2799999999999999E-002    -4.3222413495525025E-012
   1.2900000000000002E-002    -4.1726986449441839E-012
   1.3000000000000005E-002    -3.8555582337895800E-012
   1.3100000000000001E-002    -3.3723510095562403E-012
   1.3200000000000003E-002    -2.7245512703583108E-012
   1.3299999999999999E-002    -1.9125736151065498E-012
   1.3400000000000002E-002    -9.5116156704350141E-013
   1.3500000000000005E-002     1.3185673798481179E-013
   1.3600000000000001E-002     1.3094008299505133E-012
   1.3700000000000004E-002     2.5500057794503039E-012
   1.3800000000000000E-002     3.8125141064992984E-012
   1.3900000000000003E-002     5.0540144985733448E-012
   1.3999999999999999E-002     6.2275276081769082E-012
   1.4100000000000001E-002     7.2825365529660679E-012
   1.4200000000000004E-002     8.1723759703944410E-012
   1.4300000000000000E-002     8.8519304733414295E-012
   1.4400000000000003E-002     9.2780939181524857E-012
   1.4499999999999999E-002     9.4132453568041008E-012