  -4.0000000000000001E-002     0.0000000000000000
  -3.9899999999999998E-002     0.0000000000000000
  -3.9800000000000002E-002     0.0000000000000000
  -3.9699999999999999E-002     0.0000000000000000
  -3.9600000000000003E-002    -1.1321184292649862E-017
  -3.9500000000000000E-002    -1.2244131244312849E-016
  -3.9399999999999998E-002    -7.0818349489211278E-016
  -3.9300000000000002E-002    -2.9191618333744909E-015
  -3.9199999999999999E-002    -9.6244720025162427E-015
  -3.9100000000000003E-002    -2.6989376716596986E-014
  -3.9000000000000000E-002    -6.6837289554918383E-014
  -3.8900000000000004E-002    -1.4986194793800700E-013
  -3.8800000000000001E-002    -3.0961740333027010E-013
  -3.8699999999999998E-002    -5.9702519620771777E-013
  -3.8600000000000002E-002    -1.0849128670095687E-012
  -3.8500000000000000E-002    -1.8718590046040706E-012
  -3.8400000000000004E-002    -3.0843971040445117E-012
  -3.8300000000000001E-002    -4.8764607803175597E-012
  -3.8199999999999998E-002    -7.4248758183403929E-012
  -3.8100000000000002E-002    -1.0919759887983993E-011
  -3.7999999999999999E-002    -1.5548907647544574E-011
  -3.7900000000000003E-002    -2.1475635506029711E-011
  -3.7800000000000000E-002    -2.8810157384762114E-011
  -3.7699999999999997E-002    -3.7575342143325585E-011
  -3.7600000000000001E-002    -4.7668608643691712E-011
  -3.7499999999999999E-002    -5.8822731408003648E-011
  -3.7400000000000003E-002    -7.0569348975535462E-011
  -3.7300000000000000E-002    -8.2209926366427766E-011
  -3.7200000000000004E-002    -9.2799587458891608E-011
  -3.7100000000000001E-002    -1.0114978993280843E-010
  -3.6999999999999998E-002    -1.0585569226728708E-010
  -3.6900000000000002E-002    -1.0535363553776378E-010
  -3.6799999999999999E-002    -9.8012979676820322E-011
  -3.6700000000000003E-002    -8.2264757506056441E-011
  -3.6600000000000001E-002    -5.6767184702932738E-011
  -3.6499999999999998E-002    -2.0605010753182995E-011
  -3.6400000000000002E-002     2.6483801263132989E-011
  -3.6299999999999999E-002     8.3864512556708348E-011
  -3.6200000000000003E-002     1.4975955198170965E-010
  -3.6100000000000000E-002     2.2101806496088727E-010
  -3.6000000000000004E-002     2.9292265835145770E-010
  -3.5900000000000001E-002     3.5905722839402188E-010
  -3.5799999999999998E-002     4.1126127503510190E-010
  -3.5700000000000003E-002     4.3969569651913787E-010
  -3.5600000000000000E-002     4.3304343444461324E-010
  -3.5500000000000004E-002     3.7886419002042260E-010
  -3.5400000000000001E-002     2.6411650644320162E-010
  -3.5299999999999998E-002     7.5852414627153308E-011
  -3.5200000000000002E-002    -1.9792037453392197E-010
  -3.5099999999999999E-002    -5.6722482266735597E-010
  -3.5000000000000003E-002    -1.0389797910903553E-009
  -3.4900000000000000E-002    -1.6157861715271338E-009
  -3.4799999999999998E-002    -2.2946919919775155E-009
  -3.4700000000000002E-002    -3.0660045613473130E-009
  -3.4599999999999999E-002    -3.9122296513482979E-009
  -3.4500000000000003E-002    -4.8072270608656709E-009
  -3.4400000000000000E-002    -5.7156737121033530E-009
  -3.4299999999999997E-002    -6.5929270931519568E-009
  -3.4200000000000001E-002    -7.3853758664199631E-009
  -3.4099999999999998E-002    -8.0313515837815430E-009
  -3.4000000000000002E-002    -8.4626625707073799E-009
  -3.3900000000000000E-002    -8.6067828419800207E-009
  -3.3799999999999997E-002    -8.3897013780642737E-009
  -3.3700000000000001E-002    -7.7394020081555936E-009
  -3.3599999999999998E-002    -6.5899117274170749E-009
  -3.3500000000000002E-002    -4.8858073142810099E-009
  -3.3399999999999999E-002    -2.5870294795282689E-009
  -3.3300000000000003E-002     3.2617908374277249E-010
  -3.3200000000000000E-002     3.8484402331562251E-009
  -3.3099999999999997E-002     7.9447639578233975E-009
  -3.3000000000000002E-002     1.2546707672811408E-008
  -3.2899999999999999E-002     1.7549462327792753E-008
  -3.2800000000000003E-002     2.2810148436747113E-008
  -3.2700000000000000E-002     2.8147594477445637E-008
  -3.2600000000000004E-002     3.3343848571121271E-008
  -3.2500000000000001E-002     3.8147611292060901E-008
  -3.2399999999999998E-002     4.2279726386595939E-008
  -3.2300000000000002E-002     4.5440778251304437E-008
  -3.2199999999999999E-002     4.7320789064997371E-008
  -3.2100000000000004E-002     4.7610850373303037E-008
  -3.2000000000000001E-002     4.6016474186671985E-008
  -3.1899999999999998E-002     4.2272326084002998E-008
  -3.1800000000000002E-002     3.6157842941975105E-008
  -3.1699999999999999E-002     2.7513232581100056E-008
  -3.1600000000000003E-002     1.6255190971037337E-008
  -3.1500000000000000E-002     2.3916226776776739E-009
  -3.1399999999999997E-002    -1.3965374634494765E-008
  -3.1300000000000001E-002    -3.2589060339205389E-008
  -3.1199999999999999E-002    -5.3130872146311958E-008
  -3.1100000000000003E-002    -7.5117242204214563E-008
  -3.1000000000000000E-002    -9.7951030397780414E-008
  -3.0900000000000000E-002    -1.2091810219772015E-007
  -3.0800000000000001E-002    -1.4319940078166837E-007
  -3.0699999999999998E-002    -1.6388864310101781E-007
  -3.0600000000000002E-002    -1.8201563989350689E-007
  -3.0499999999999999E-002    -1.9657497318803507E-007
  -3.0400000000000000E-002    -2.0655946286751714E-007
  -3.0300000000000001E-002    -2.1099761227105773E-007
  -3.0200000000000001E-002    -2.0899412334074441E-007
  -3.0100000000000002E-002    -1.9977214549271594E-007
  -2.9999999999999999E-002    -1.8271582291617960E-007
  -2.9899999999999999E-002    -1.5741156289550418E-007
  -2.9800000000000000E-002    -1.2368627722025849E-007
  -2.9700000000000001E-002    -8.1640905591484625E-008
  -2.9600000000000001E-002    -3.1677366507665283E-008
  -2.9499999999999998E-002     2.5482673748911111E-008
  -2.9400000000000003E-002     8.8788716823273717E-008
  -2.9300000000000000E-002     1.5686332233144640E-007
  -2.9200000000000000E-002     2.2801589238952147E-007
  -2.9100000000000001E-002     3.0026910735614365E-007
  -2.8999999999999998E-002     3.7139807318453677E-007
  -2.8900000000000002E-002     4.3898185708712845E-007
  -2.8799999999999999E-002     5.0046679689330631E-007
  -2.8700000000000000E-002     5.5324028380709933E-007
  -2.8600000000000000E-002     5.9471307167768828E-007
  -2.8500000000000001E-002     6.2240837905847002E-007
  -2.8400000000000002E-002     6.3405451555809123E-007
  -2.8299999999999999E-002     6.2767838926447439E-007
  -2.8200000000000003E-002     6.0169691096234601E-007
  -2.8100000000000000E-002     5.5500242979178438E-007
  -2.8000000000000001E-002     4.8703896027291194E-007
  -2.7900000000000001E-002     3.9786598904356651E-007
  -2.7799999999999998E-002     2.8820622333114443E-007
  -2.7700000000000002E-002     1.5947537690408353E-007
  -2.7600000000000000E-002     1.3790663722090812E-008
  -2.7500000000000000E-002    -1.4604304965359916E-007
  -2.7400000000000001E-002    -3.1657083354730275E-007
  -2.7299999999999998E-002    -4.9374909849575488E-007
  -2.7200000000000002E-002    -6.7303056994205690E-007
  -2.7099999999999999E-002    -8.4947106415711460E-007
  -2.7000000000000000E-002    -1.0178561069551506E-006
  -2.6900000000000000E-002    -1.1728443496394902E-006
  -2.6800000000000001E-002    -1.3091234905004967E-006
  -2.6700000000000002E-002    -1.4215748933565919E-006
  -2.6599999999999999E-002    -1.5054413324833149E-006
  -2.6500000000000003E-002    -1.5564927480227198E-006
  -2.6400000000000000E-002    -1.5711841570009710E-006
  -2.6300000000000000E-002    -1.5468003766727634E-006
  -2.6200000000000001E-002    -1.4815818758506794E-006
  -2.6099999999999998E-002    -1.3748265246249503E-006
  -2.6000000000000002E-002    -1.2269633771211375E-006
  -2.5899999999999999E-002    -1.0395943945695763E-006
  -2.5800000000000000E-002    -8.1550081176828826E-007
  -2.5700000000000001E-002    -5.5861403325252468E-007
  -2.5599999999999998E-002    -2.7394861490392941E-007
  -2.5500000000000002E-002     3.2500341973218383E-008
  -2.5399999999999999E-002     3.5389402341934328E-007
  -2.5300000000000000E-002     6.8271754116722150E-007
  -2.5200000000000000E-002     1.0109739605468349E-006
  -2.5100000000000001E-002     1.3303990726853954E-006
  -2.5000000000000001E-002     1.6326905551977688E-006
  -2.4899999999999999E-002     1.9097442418569699E-006
  -2.4800000000000003E-002     2.1538896817219211E-006
  -2.4700000000000000E-002     2.3581183086207602E-006
  -2.4600000000000000E-002     2.5162948986690026E-006
  -2.4500000000000001E-002     2.6233456082991324E-006
  -2.4399999999999998E-002     2.6754166810860625E-006
  -2.4299999999999999E-002     2.6699967747845221E-006
  -2.4199999999999999E-002     2.6059985884785419E-006
  -2.4100000000000000E-002     2.4837966066115769E-006
  -2.4000000000000000E-002     2.3052191409078659E-006
  -2.3900000000000001E-002     2.0734944428113522E-006
  -2.3800000000000002E-002     1.7931521369973780E-006
  -2.3699999999999999E-002     1.4698830455017742E-006
  -2.3599999999999999E-002     1.1103622910013655E-006
  -2.3500000000000000E-002     7.2204198886538506E-007
  -2.3400000000000001E-002     3.1291969548874476E-007
  -2.3300000000000001E-002    -1.0870727606970831E-007
  -2.3199999999999998E-002    -5.3449417691808776E-007
  -2.3099999999999999E-002    -9.5629764018667629E-007
  -2.3000000000000000E-002    -1.3664119933309848E-006
  -2.2900000000000000E-002    -1.7577834796611569E-006
  -2.2800000000000001E-002    -2.1241951344563859E-006
  -2.2700000000000001E-002    -2.4604134978289949E-006
  -2.2599999999999999E-002    -2.7622936613624915E-006
  -2.2499999999999999E-002    -3.0268358841567533E-006
  -2.2400000000000000E-002    -3.2521932098461548E-006
  -2.2300000000000000E-002    -3.4376289477222599E-006
  -2.2200000000000001E-002    -3.5834261780109955E-006
  -2.2100000000000002E-002    -3.6907526919094380E-006
  -2.1999999999999999E-002    -3.7614872780977748E-006
  -2.1899999999999999E-002    -3.7980153138050810E-006
  -2.1800000000000000E-002    -3.8030018458812265E-006
  -2.1700000000000001E-002    -3.7791530758113367E-006
  -2.1600000000000001E-002    -3.7289776173565770E-006
  -2.1499999999999998E-002    -3.6545582133840071E-006
  -2.1399999999999999E-002    -3.5573459626903059E-006
  -2.1299999999999999E-002    -3.4379884255031357E-006
  -2.1200000000000000E-002    -3.2962007026071660E-006
  -2.1100000000000001E-002    -3.1306892651628004E-006
  -2.1000000000000001E-002    -2.9391335374384653E-006
  -2.0899999999999998E-002    -2.7182315989193739E-006
  -2.0799999999999999E-002    -2.4638115974084940E-006
  -2.0700000000000000E-002    -2.1710068267566385E-006
  -2.0600000000000000E-002    -1.8344940144743305E-006
  -2.0500000000000001E-002    -1.4487866337731248E-006
  -2.0400000000000001E-002    -1.0085745998367202E-006
  -2.0299999999999999E-002    -5.0910034588014241E-007
  -2.0199999999999999E-002     5.3442303027395610E-008
  -2.0100000000000000E-002     6.8150171728120768E-007
  -2.0000000000000000E-002     1.3757708074990660E-006
  -1.9900000000000001E-002     2.1348137124732602E-006
  -1.9799999999999998E-002     2.9547354643000290E-006
  -1.9699999999999999E-002     3.8289094845822547E-006
  -1.9599999999999999E-002     4.7477783482463565E-006
  -1.9500000000000000E-002     5.6987428251886740E-006
  -1.9400000000000001E-002     6.6661464188655373E-006
  -1.9300000000000001E-002     7.6313699537422508E-006
  -1.9199999999999998E-002     8.5730362116009928E-006
  -1.9099999999999999E-002     9.4673232524655759E-006
  -1.9000000000000000E-002     1.0288395060342737E-005
  -1.8900000000000000E-002     1.1008934052370023E-005
  -1.8800000000000001E-002     1.1600767720665317E-005
  -1.8700000000000001E-002     1.2035576219204813E-005
  -1.8599999999999998E-002     1.2285666343814228E-005
  -1.8499999999999999E-002     1.2324791896389797E-005
  -1.8400000000000000E-002     1.2128994058002718E-005
  -1.8300000000000000E-002     1.1677441762003582E-005
  -1.8200000000000001E-002     1.0953251148748677E-005
  -1.8100000000000002E-002     9.9442513601388782E-006
  -1.7999999999999999E-002     8.6436757555929944E-006
  -1.7899999999999999E-002     7.0507585405721329E-006
  -1.7800000000000000E-002     5.1712117965507787E-006
  -1.7700000000000000E-002     3.0175635856721783E-006
  -1.7600000000000001E-002     6.0934576140425634E-007
  -1.7499999999999998E-002    -2.0268835214665160E-006
  -1.7399999999999999E-002    -4.8576880544715095E-006
  -1.7299999999999999E-002    -7.8430766734527424E-006
  -1.7200000000000000E-002    -1.0936999387922697E-005
  -1.7100000000000001E-002    -1.4088008356338833E-005
  -1.7000000000000001E-002    -1.7240075976587832E-005
  -1.6899999999999998E-002    -2.0333554857643321E-005
  -1.6799999999999999E-002    -2.3306256480282173E-005
  -1.6700000000000000E-002    -2.6094630811712705E-005
  -1.6600000000000000E-002    -2.8635025955736637E-005
  -1.6500000000000001E-002    -3.0864990549162030E-005
  -1.6400000000000001E-002    -3.2724601624067873E-005
  -1.6299999999999999E-002    -3.4157772461185232E-005
  -1.6199999999999999E-002    -3.5113538615405560E-005
  -1.6100000000000000E-002    -3.5547265724744648E-005
  -1.6000000000000000E-002    -3.5421777283772826E-005
  -1.5900000000000001E-002    -3.4708355087786913E-005
  -1.5799999999999998E-002    -3.3387608709745109E-005
  -1.5699999999999999E-002    -3.1450188544113189E-005
  -1.5599999999999999E-002    -2.8897320589749143E-005
  -1.5500000000000000E-002    -2.5741164790815674E-005
  -1.5400000000000000E-002    -2.2004976926837116E-005
  -1.5300000000000001E-002    -1.7723079508868977E-005
  -1.5199999999999998E-002    -1.2940637134306598E-005
  -1.5099999999999999E-002    -7.7132344813435338E-006
  -1.4999999999999999E-002    -2.1062744508526521E-006
  -1.4900000000000000E-002     3.8058021800679853E-006
  -1.4800000000000001E-002     9.9404587672324851E-006
  -1.4700000000000001E-002     1.6208157830988057E-005
  -1.4599999999999998E-002     2.2513577278004959E-005
  -1.4499999999999999E-002     2.8756952815456316E-005
  -1.4400000000000000E-002     3.4835502447094768E-005
  -1.4300000000000000E-002     4.0644925320520997E-005
  -1.4200000000000001E-002     4.6080949687166139E-005
  -1.4099999999999998E-002     5.1040915423072875E-005
  -1.3999999999999999E-002     5.5425360187655315E-005
  -1.3899999999999999E-002     5.9139580116607249E-005
  -1.3800000000000000E-002     6.2095161410979927E-005
  -1.3700000000000000E-002     6.4211446442641318E-005
  -1.3600000000000001E-002     6.5416919824201614E-005
  -1.3499999999999998E-002     6.5650499891489744E-005
  -1.3399999999999999E-002     6.4862688304856420E-005
  -1.3299999999999999E-002     6.3016581407282501E-005
  -1.3200000000000000E-002     6.0088728787377477E-005
  -1.3100000000000001E-002     5.6069795391522348E-005
  -1.3000000000000001E-002     5.0965038099093363E-005
  -1.2899999999999998E-002     4.4794564018957317E-005
  -1.2799999999999999E-002     3.7593363231280819E-005
  -1.2699999999999999E-002     2.9411108698695898E-005
  -1.2600000000000000E-002     2.0311701518949121E-005
  -1.2500000000000001E-002     1.0372576070949435E-005
  -1.2399999999999998E-002    -3.1625253882339166E-007
  -1.2299999999999998E-002    -1.1653393812594004E-005
  -1.2199999999999999E-002    -2.3527518351329491E-005
  -1.2100000000000000E-002    -3.5819022741634399E-005
  -1.2000000000000000E-002    -4.8401929234387353E-005
  -1.1900000000000001E-002    -6.1145961808506399E-005
  -1.1799999999999998E-002    -7.3918788984883577E-005
  -1.1699999999999999E-002    -8.6588392150588334E-005
  -1.1599999999999999E-002    -9.9025543022435158E-005
  -1.1500000000000000E-002    -1.1110633931821212E-004
  -1.1400000000000000E-002    -1.2271474406588823E-004
  -1.1300000000000001E-002    -1.3374509580899030E-004
  -1.1199999999999998E-002    -1.4410448784474283E-004
  -1.1099999999999999E-002    -1.5371506742667407E-004
  -1.0999999999999999E-002    -1.6251613851636648E-004
  -1.0900000000000000E-002    -1.7046600987669080E-004
  -1.0800000000000001E-002    -1.7754355212673545E-004
  -1.0699999999999998E-002    -1.8374946375843138E-004
  -1.0599999999999998E-002    -1.8910712969955057E-004
  -1.0499999999999999E-002    -1.9366313063073903E-004
  -1.0400000000000000E-002    -1.9748733029700816E-004
  -1.0300000000000000E-002    -2.0067252626176924E-004
  -1.0200000000000001E-002    -2.0333366410341114E-004
  -1.0099999999999998E-002    -2.0560664415825158E-004
  -9.9999999999999985E-003    -2.0764673536177725E-004
  -9.8999999999999991E-003    -2.0962655253242701E-004
  -9.7999999999999997E-003    -2.1173375716898590E-004
  -9.7000000000000003E-003    -2.1416842355392873E-004
  -9.6000000000000009E-003    -2.1714017202612013E-004
  -9.4999999999999980E-003    -2.2086512763053179E-004
  -9.3999999999999986E-003    -2.2556274780072272E-004
  -9.2999999999999992E-003    -2.3145266459323466E-004
  -9.1999999999999998E-003    -2.3875148326624185E-004
  -9.1000000000000004E-003    -2.4766972637735307E-004
  -9.0000000000000011E-003    -2.5840895250439644E-004
  -8.8999999999999982E-003    -2.7115916600450873E-004
  -8.7999999999999988E-003    -2.8609650325961411E-004
  -8.6999999999999994E-003    -3.0338118085637689E-004
  -8.5999999999999965E-003    -3.2315604039467871E-004
  -8.5000000000000006E-003    -3.4554552985355258E-004
  -8.3999999999999977E-003    -3.7065506330691278E-004
  -8.3000000000000018E-003    -3.9857084630057216E-004
  -8.1999999999999990E-003    -4.2936031240969896E-004
  -8.0999999999999961E-003    -4.6307302545756102E-004
  -8.0000000000000002E-003    -4.9974193098023534E-004
  -7.8999999999999973E-003    -5.3938518976792693E-004
  -7.8000000000000014E-003    -5.8200821513310075E-004
  -7.6999999999999985E-003    -6.2760611763224006E-004
  -7.6000000000000026E-003    -6.7616655724123120E-004
  -7.4999999999999997E-003    -7.2767253732308745E-004
  -7.3999999999999969E-003    -7.8210537321865559E-004
  -7.3000000000000009E-003    -8.3944789366796613E-004
  -7.1999999999999981E-003    -8.9968746760860085E-004
  -7.1000000000000021E-003    -9.6281897276639938E-004
  -6.9999999999999993E-003    -1.0288476478308439E-003
  -6.8999999999999964E-003    -1.0977919446304440E-003
  -6.8000000000000005E-003    -1.1696853907778859E-003
  -6.6999999999999976E-003    -1.2445792090147734E-003
  -6.6000000000000017E-003    -1.3225440634414554E-003
  -6.4999999999999988E-003    -1.4036712236702442E-003
  -6.3999999999999960E-003    -1.4880739618092775E-003
  -6.3000000000000000E-003    -1.5758882509544492E-003
  -6.1999999999999972E-003    -1.6672733472660184E-003
  -6.1000000000000013E-003    -1.7624119063839316E-003
  -5.9999999999999984E-003    -1.8615097505971789E-003
  -5.9000000000000025E-003    -1.9647958688437939E-003
  -5.7999999999999996E-003    -2.0725217182189226E-003
  -5.6999999999999967E-003    -2.1849609911441803E-003
  -5.6000000000000008E-003    -2.3024086840450764E-003
  -5.4999999999999979E-003    -2.4251802824437618E-003
  -5.4000000000000020E-003    -2.5536108296364546E-003
  -5.2999999999999992E-003    -2.6880549266934395E-003
  -5.1999999999999963E-003    -2.8288855683058500E-003
  -5.1000000000000004E-003    -2.9764934442937374E-003
  -4.9999999999999975E-003    -3.1312871724367142E-003
  -4.9000000000000016E-003    -3.2936928328126669E-003
  -4.7999999999999987E-003    -3.4641535021364689E-003
  -4.6999999999999958E-003    -3.6431294865906239E-003
  -4.5999999999999999E-003    -3.8310983218252659E-003
  -4.4999999999999971E-003    -4.0285554714500904E-003
  -4.4000000000000011E-003    -4.2360136285424232E-003
  -4.2999999999999983E-003    -4.4540045782923698E-003
  -4.2000000000000023E-003    -4.6830778010189533E-003
  -4.0999999999999995E-003    -4.9238018691539764E-003
  -3.9999999999999966E-003    -5.1767649129033089E-003
  -3.9000000000000007E-003    -5.4425741545855999E-003
  -3.7999999999999978E-003    -5.7218568399548531E-003
  -3.7000000000000019E-003    -6.0152602382004261E-003
  -3.5999999999999990E-003    -6.3234511762857437E-003
  -3.4999999999999962E-003    -6.6471155732870102E-003
  -3.4000000000000002E-003    -6.9869589060544968E-003
  -3.2999999999999974E-003    -7.3437057435512543E-003
  -3.2000000000000015E-003    -7.7180983498692513E-003
  -3.0999999999999986E-003    -8.1108966842293739E-003
  -2.9999999999999957E-003    -8.5228784009814262E-003
  -2.8999999999999998E-003    -8.9548369869589806E-003
  -2.7999999999999969E-003    -9.4075817614793777E-003
  -2.7000000000000010E-003    -9.8819369450211525E-003
  -2.5999999999999981E-003    -1.0378741659224033E-002
  -2.5000000000000022E-003    -1.0898849926888943E-002
  -2.3999999999999994E-003    -1.1443128809332848E-002
  -2.2999999999999965E-003    -1.2012461200356483E-002
  -2.2000000000000006E-003    -1.2607745826244354E-002
  -2.0999999999999977E-003    -1.3229895383119583E-002
  -2.0000000000000018E-003    -1.3879838399589062E-002
  -1.8999999999999989E-003    -1.4558522030711174E-002
  -1.7999999999999960E-003    -1.5266912989318371E-002
  -1.7000000000000001E-003    -1.6005996614694595E-002
  -1.5999999999999973E-003    -1.6776785254478455E-002
  -1.5000000000000013E-003    -1.7580315470695496E-002
  -1.3999999999999985E-003    -1.8417650833725929E-002
  -1.2999999999999956E-003    -1.9289882853627205E-002
  -1.1999999999999997E-003    -2.0198140293359756E-002
  -1.0999999999999968E-003    -2.1143589168787003E-002
  -1.0000000000000009E-003    -2.2127429023385048E-002
  -8.9999999999999802E-004    -2.3150904104113579E-002
  -8.0000000000000210E-004    -2.4215305224061012E-002
  -6.9999999999999923E-004    -2.5321966037154198E-002
  -5.9999999999999637E-004    -2.6472270488739014E-002
  -5.0000000000000044E-004    -2.7667654678225517E-002
  -3.9999999999999758E-004    -2.8909604996442795E-002
  -3.0000000000000165E-004    -3.0199661850929260E-002
  -1.9999999999999879E-004    -3.1539425253868103E-002
  -9.9999999999995925E-005    -3.2930545508861542E-002
   0.0000000000000000         -3.4374732524156570E-002
   1.0000000000000286E-004    -3.5873752087354660E-002
   1.9999999999999879E-004    -3.7429425865411758E-002
   3.0000000000000165E-004    -3.9043627679347992E-002
   4.0000000000000452E-004    -4.0718290954828262E-002
   5.0000000000000044E-004    -4.2455401271581650E-002
   6.0000000000000331E-004    -4.4256988912820816E-002
   6.9999999999999923E-004    -4.6125140041112900E-002
   8.0000000000000210E-004    -4.8061989247798920E-002
   8.9999999999999802E-004    -5.0069712102413177E-002
   1.0000000000000009E-003    -5.2150525152683258E-002
   1.1000000000000038E-003    -5.4306685924530029E-002
   1.1999999999999997E-003    -5.6540492922067642E-002
   1.3000000000000025E-003    -5.8854274451732635E-002
   1.3999999999999985E-003    -6.1250392347574234E-002
   1.5000000000000013E-003    -6.3731238245964050E-002
   1.6000000000000042E-003    -6.6299222409725189E-002
   1.7000000000000001E-003    -6.8956777453422546E-002
   1.8000000000000030E-003    -7.1706354618072510E-002
   1.8999999999999989E-003    -7.4550412595272064E-002
   2.0000000000000018E-003    -7.7491417527198792E-002
   2.1000000000000046E-003    -8.0531850457191467E-002
   2.2000000000000006E-003    -8.3674192428588867E-002
   2.3000000000000034E-003    -8.6920924484729767E-002
   2.3999999999999994E-003    -9.0274520218372345E-002
   2.5000000000000022E-003    -9.3737438321113586E-002
   2.5999999999999981E-003    -9.7312122583389282E-002
   2.7000000000000010E-003   -0.10100100189447403
   2.8000000000000039E-003   -0.10480649024248123
   2.8999999999999998E-003   -0.10873097926378250
   3.0000000000000027E-003   -0.11277683079242706
   3.0999999999999986E-003   -0.11694636940956116
   3.2000000000000015E-003   -0.12124188989400864
   3.3000000000000043E-003   -0.12566564977169037
   3.4000000000000002E-003   -0.13021987676620483
   3.5000000000000031E-003   -0.13490676879882812
   3.5999999999999990E-003   -0.13972847163677216
   3.7000000000000019E-003   -0.14468710124492645
   3.7999999999999978E-003   -0.14978474378585815
   3.9000000000000007E-003   -0.15502342581748962
   4.0000000000000036E-003   -0.16040514409542084
   4.0999999999999995E-003   -0.16593188047409058
   4.2000000000000023E-003   -0.17160555720329285
   4.2999999999999983E-003   -0.17742805182933807
   4.4000000000000011E-003   -0.18340122699737549
   4.5000000000000040E-003   -0.18952691555023193
   4.5999999999999999E-003   -0.19580689072608948
   4.7000000000000028E-003   -0.20224288105964661
   4.7999999999999987E-003   -0.20883661508560181
   4.9000000000000016E-003   -0.21558977663516998
   5.0000000000000044E-003   -0.22250397503376007
   5.1000000000000004E-003   -0.22958078980445862
   5.2000000000000032E-003   -0.23682175576686859
   5.2999999999999992E-003   -0.24422834813594818
   5.4000000000000020E-003   -0.25180196762084961
   5.4999999999999979E-003   -0.25954395532608032
   5.6000000000000008E-003   -0.26745557785034180
   5.7000000000000037E-003   -0.27553796768188477
   5.7999999999999996E-003   -0.28379219770431519
   5.9000000000000025E-003   -0.29221922159194946
   5.9999999999999984E-003   -0.30081981420516968
   6.1000000000000013E-003   -0.30959463119506836
   6.2000000000000041E-003   -0.31854417920112610
   6.3000000000000000E-003   -0.32766881585121155
   6.4000000000000029E-003   -0.33696869015693665
   6.4999999999999988E-003   -0.34644374251365662
   6.6000000000000017E-003   -0.35609373450279236
   6.7000000000000046E-003   -0.36591815948486328
   6.8000000000000005E-003   -0.37591630220413208
   6.9000000000000034E-003   -0.38608717918395996
   6.9999999999999993E-003   -0.39642953872680664
   7.1000000000000021E-003   -0.40694189071655273
   7.1999999999999981E-003   -0.41762241721153259
   7.3000000000000009E-003   -0.42846903204917908
   7.4000000000000038E-003   -0.43947938084602356
   7.4999999999999997E-003   -0.45065078139305115
   7.6000000000000026E-003   -0.46198019385337830
   7.6999999999999985E-003   -0.47346431016921997
   7.8000000000000014E-003   -0.48509952425956726
   7.9000000000000042E-003   -0.49688190221786499
   8.0000000000000002E-003   -0.50880724191665649
   8.1000000000000030E-003   -0.52087092399597168
   8.1999999999999990E-003   -0.53306806087493896
   8.3000000000000018E-003   -0.54539340734481812
   8.4000000000000047E-003   -0.55784147977828979
   8.5000000000000006E-003   -0.57040643692016602
   8.6000000000000035E-003   -0.58308202028274536
   8.6999999999999994E-003   -0.59586173295974731
   8.8000000000000023E-003   -0.60873878002166748
   8.8999999999999982E-003   -0.62170600891113281
   9.0000000000000011E-003   -0.63475596904754639
   9.1000000000000039E-003   -0.64788085222244263
   9.1999999999999998E-003   -0.66107249259948730
   9.3000000000000027E-003   -0.67432236671447754
   9.3999999999999986E-003   -0.68762165307998657
   9.5000000000000015E-003   -0.70096117258071899
   9.6000000000000044E-003   -0.71433138847351074
   9.7000000000000003E-003   -0.72772234678268433
   9.8000000000000032E-003   -0.74112373590469360
   9.8999999999999991E-003   -0.75452494621276855
   1.0000000000000002E-002   -0.76791489124298096
   1.0100000000000005E-002   -0.78128212690353394
   1.0200000000000001E-002   -0.79461485147476196
   1.0300000000000004E-002   -0.80790084600448608
   1.0400000000000000E-002   -0.82112747430801392
   1.0500000000000002E-002   -0.83428168296813965
   1.0599999999999998E-002   -0.84735006093978882
   1.0700000000000001E-002   -0.86031877994537354
   1.0800000000000004E-002   -0.87317359447479248
   1.0900000000000000E-002   -0.88589990139007568
   1.1000000000000003E-002   -0.89848262071609497
   1.1099999999999999E-002   -0.91090631484985352
   1.1200000000000002E-002   -0.92315530776977539
   1.1300000000000004E-002   -0.93521344661712646
   1.1400000000000000E-002   -0.94706416130065918
   1.1500000000000003E-002   -0.95869058370590210
   1.1599999999999999E-002   -0.97007548809051514
   1.1700000000000002E-002   -0.98120135068893433
   1.1800000000000005E-002   -0.99205029010772705
   1.1900000000000001E-002    -1.0026041269302368
   1.2000000000000004E-002    -1.0128444433212280
   1.2100000000000000E-002    -1.0227524042129517
   1.2200000000000003E-002    -1.0323089361190796
   1.2299999999999998E-002    -1.0414948463439941
   1.2400000000000001E-002    -1.0502905845642090
   1.2500000000000004E-002    -1.0586764812469482
   1.2600000000000000E-002    -1.0666327476501465
   1.2700000000000003E-002    -1.0741391181945801
   1.2799999999999999E-002    -1.0811753273010254
   1.2900000000000002E-002    -1.0877211093902588
   1.3000000000000005E-002    -1.0937559604644775
   1.3100000000000001E-002    -1.0992592573165894
   1.3200000000000003E-002    -1.1042102575302124
   1.3299999999999999E-002    -1.1085883378982544
   1.3400000000000002E-002    -1.1123727560043335
   1.3500000000000005E-002    -1.1155426502227783
   1.3600000000000001E-002    -1.1180772781372070
   1.3700000000000004E-002    -1.1199558973312378
   1.3800000000000000E-002    -1.1211577653884888
   1.3900000000000003E-002    -1.1216623783111572
   1.3999999999999999E-002    -1.1214493513107300
   1.4100000000000001E-002    -1.1204982995986938
   1.4200000000000004E-002    -1.1187889575958252
   1.4300000000000000E-002    -1.1163014173507690
   1.4400000000000003E-002    -1.1130160093307495
   1.4499999999999999E-002    -1.1089133024215698
   1.4600000000000002E-002    -1.1039741039276123
   1.4700000000000005E-002    -1.0981794595718384
   1.4800000000000001E-002    -1.0915108919143677
   1.4900000000000004E-002    -1.0839502811431885
   1.4999999999999999E-002    -1.0754798650741577
   1.5100000000000002E-002    -1.0660822391510010
   1.5200000000000005E-002    -1.0557404756546021
   1.5300000000000001E-002    -1.0444382429122925
   1.5400000000000004E-002    -1.0321596860885620
   1.5500000000000000E-002    -1.0188895463943481
   1.5600000000000003E-002    -1.0046130418777466