  -4.0000000000000001E-002     0.0000000000000000
  -3.9899999999999998E-002     0.0000000000000000
  -3.9800000000000002E-002     0.0000000000000000
  -3.9699999999999999E-002    -6.6979387802149765E-014
  -3.9600000000000003E-002    -5.9786339290726631E-013
  -3.9500000000000000E-002    -2.8884969503067959E-012
  -3.9399999999999998E-002    -1.0082355957063971E-011
  -3.9300000000000002E-002    -2.8521605216491608E-011
  -3.9199999999999999E-002    -6.9460881491067994E-011
  -3.9100000000000003E-002    -1.5103569783736503E-010
  -3.9000000000000000E-002    -3.0030833375604971E-010
  -3.8900000000000004E-002    -5.5515081420765000E-010
  -3.8800000000000001E-002    -9.6567298601968332E-010
  -3.8699999999999998E-002    -1.5948697917878008E-009
  -3.8600000000000002E-002    -2.5181519092143390E-009
  -3.8500000000000000E-002    -3.8214409414649708E-009
  -3.8400000000000004E-002    -5.5975553081566432E-009
  -3.8300000000000001E-002    -7.9406925479474921E-009
  -3.8199999999999998E-002    -1.0938919103864464E-008
  -3.8100000000000002E-002    -1.4664713887668768E-008
  -3.7999999999999999E-002    -1.9163763909091358E-008
  -3.7900000000000003E-002    -2.4442385893053142E-008
  -3.7800000000000000E-002    -3.0454106791921731E-008
  -3.7699999999999997E-002    -3.7086117288254172E-008
  -3.7600000000000001E-002    -4.4146457156557517E-008
  -3.7499999999999999E-002    -5.1352905927615211E-008
  -3.7400000000000003E-002    -5.8324634011341914E-008
  -3.7300000000000000E-002    -6.4577719172120851E-008
  -3.7200000000000004E-002    -6.9525526669167448E-008
  -3.7100000000000001E-002    -7.2484979796172411E-008
  -3.6999999999999998E-002    -7.2689431362960022E-008
  -3.6900000000000002E-002    -6.9308725869632326E-008
  -3.6799999999999999E-002    -6.1476612245314755E-008
  -3.6700000000000003E-002    -4.8325446755370649E-008
  -3.6600000000000001E-002    -2.9027566128547733E-008
  -3.6499999999999998E-002    -2.8423643438912904E-009
  -3.6400000000000002E-002     3.0832413955295124E-008
  -3.6299999999999999E-002     7.2407061679768958E-008
  -3.6200000000000003E-002     1.2204627353185060E-007
  -3.6100000000000000E-002     1.7961814080535987E-007
  -3.6000000000000004E-002     2.4464873149554478E-007
  -3.5900000000000001E-002     3.1628528063265549E-007
  -3.5799999999999998E-002     3.9327102285824367E-007
  -3.5700000000000003E-002     4.7393459112754499E-007
  -3.5600000000000000E-002     5.5619671002204996E-007
  -3.5500000000000004E-002     6.3759591739653843E-007
  -3.5400000000000001E-002     7.1533548862134921E-007
  -3.5299999999999998E-002     7.8635156341988477E-007
  -3.5200000000000002E-002     8.4740247530135093E-007
  -3.5099999999999999E-002     8.9517817514206399E-007
  -3.5000000000000003E-002     9.2642744675686117E-007
  -3.4900000000000000E-002     9.3809887857787544E-007
  -3.4799999999999998E-002     9.2749161240135436E-007
  -3.4700000000000002E-002     8.9241035539089353E-007
  -3.4599999999999999E-002     8.3131760675314581E-007
  -3.4500000000000003E-002     7.4347656209283741E-007
  -3.4400000000000000E-002     6.2907741948947660E-007
  -3.4299999999999997E-002     4.8933907237369567E-007
  -3.4200000000000001E-002     3.2657882798048377E-007
  -3.4099999999999998E-002     1.4424391281409044E-007
  -3.4000000000000002E-002    -5.3101558705748175E-008
  -3.3900000000000000E-002    -2.5983814566643559E-007
  -3.3799999999999997E-002    -4.6940428433117631E-007
  -3.3700000000000001E-002    -6.7446177354213432E-007
  -3.3599999999999998E-002    -8.6711207814005320E-007
  -3.3500000000000002E-002    -1.0391596561021288E-006
  -3.3399999999999999E-002    -1.1824163266282994E-006
  -3.3300000000000003E-002    -1.2890373000118416E-006
  -3.3200000000000000E-002    -1.3518783816834912E-006
  -3.3099999999999997E-002    -1.3648609638039488E-006
  -3.3000000000000002E-002    -1.3233302524895407E-006
  -3.2899999999999999E-002    -1.2243901892361464E-006
  -3.2800000000000003E-002    -1.0671990366972750E-006
  -3.2700000000000000E-002    -8.5320851894721272E-007
  -3.2600000000000004E-002    -5.8633065691537922E-007
  -3.2500000000000001E-002    -2.7301817340230627E-007
  -3.2399999999999998E-002     7.7753782079525990E-008
  -3.2300000000000002E-002     4.5461410991265438E-007
  -3.2199999999999999E-002     8.4403546907196869E-007
  -3.2100000000000004E-002     1.2306884400459239E-006
  -3.2000000000000001E-002     1.5979073850758141E-006
  -3.1899999999999998E-002     1.9282583707536105E-006
  -3.1800000000000002E-002     2.2041965621610871E-006
  -3.1699999999999999E-002     2.4087942165351706E-006
  -3.1600000000000003E-002     2.5265160275012022E-006
  -3.1500000000000000E-002     2.5440149329369888E-006
  -3.1399999999999997E-002     2.4509174636477837E-006
  -3.1300000000000001E-002     2.2405649815482320E-006
  -3.1199999999999999E-002     1.9106782929156907E-006
  -3.1100000000000003E-002     1.4639100527347182E-006
  -3.1000000000000000E-002     9.0825272991423844E-007
  -3.0900000000000000E-002     2.5727294428179448E-007
  -3.0800000000000001E-002    -4.6985377366581815E-007
  -3.0699999999999998E-002    -1.2485263596317964E-006
  -3.0600000000000002E-002    -2.0491329451033380E-006
  -3.0499999999999999E-002    -2.8377010039548622E-006
  -3.0400000000000000E-002    -3.5767770896200091E-006
  -3.0300000000000001E-002    -4.2265237425453961E-006
  -3.0200000000000001E-002    -4.7460084715567064E-006
  -3.0100000000000002E-002    -5.0946514420502353E-006
  -2.9999999999999999E-002    -5.2337895795062650E-006
  -2.9899999999999999E-002    -5.1283072934893426E-006
  -2.9800000000000000E-002    -4.7482758418482263E-006
  -2.9700000000000001E-002    -4.0705408537178300E-006
  -2.9600000000000001E-002    -3.0801941193203675E-006
  -2.9499999999999998E-002    -1.7718633671393036E-006
  -2.9400000000000003E-002    -1.5075794124186359E-007
  -2.9300000000000000E-002     1.7665886389295338E-006
  -2.9200000000000000E-002     3.9519277379440609E-006
  -2.9100000000000001E-002     6.3652992139395792E-006
  -2.8999999999999998E-002     8.9554596343077719E-006
  -2.8900000000000002E-002     1.1660749805741943E-005
  -2.8799999999999999E-002     1.4410399671760388E-005
  -2.8700000000000000E-002     1.7126252714660950E-005
  -2.8600000000000000E-002     1.9724890080397017E-005
  -2.8500000000000001E-002     2.2120080757304095E-005
  -2.8400000000000002E-002     2.4225510060205124E-005
  -2.8299999999999999E-002     2.5957700927392580E-005
  -2.8200000000000003E-002     2.7239035262027755E-005
  -2.8100000000000000E-002     2.8000766178593040E-005
  -2.8000000000000001E-002     2.8185926566948183E-005
  -2.7900000000000001E-002     2.7752010282711126E-005
  -2.7799999999999998E-002     2.6673320462577976E-005
  -2.7700000000000002E-002     2.4942883101175539E-005
  -2.7600000000000000E-002     2.2573827664018609E-005
  -2.7500000000000000E-002     1.9600158339017071E-005
  -2.7400000000000001E-002     1.6076848623924889E-005
  -2.7299999999999998E-002     1.2079229236405808E-005
  -2.7200000000000002E-002     7.7016311479383148E-006
  -2.7099999999999999E-002     3.0553130727639655E-006
  -2.7000000000000000E-002    -1.7343005538350553E-006
  -2.6900000000000000E-002    -6.5310146055708174E-006
  -2.6800000000000001E-002    -1.1191795238119084E-005
  -2.6700000000000002E-002    -1.5571133189951070E-005
  -2.6599999999999999E-002    -1.9525699826772325E-005
  -2.6500000000000003E-002    -2.2919142793398350E-005
  -2.6400000000000000E-002    -2.5626877686590888E-005
  -2.6300000000000000E-002    -2.7540683731785975E-005
  -2.6200000000000001E-002    -2.8572936571436003E-005
  -2.6099999999999998E-002    -2.8660324460361153E-005
  -2.6000000000000002E-002    -2.7766882340074517E-005
  -2.5899999999999999E-002    -2.5886207367875613E-005
  -2.5800000000000000E-002    -2.3042743123369291E-005
  -2.5700000000000001E-002    -1.9292050637886859E-005
  -2.5599999999999998E-002    -1.4720010767632630E-005
  -2.5500000000000002E-002    -9.4409424491459504E-006
  -2.5399999999999999E-002    -3.5946609386883210E-006
  -2.5300000000000000E-002     2.6574602998152841E-006
  -2.5200000000000000E-002     9.1373267423477955E-006
  -2.5100000000000001E-002     1.5655718016205356E-005
  -2.5000000000000001E-002     2.2018472009222023E-005
  -2.4899999999999999E-002     2.8033062335452996E-005
  -2.4800000000000003E-002     3.3515341783640906E-005
  -2.4700000000000000E-002     3.8296231650747359E-005
  -2.4600000000000000E-002     4.2228090023854747E-005
  -2.4500000000000001E-002     4.5190547098172829E-005
  -2.4399999999999998E-002     4.7095571062527597E-005
  -2.4299999999999999E-002     4.7891553549561650E-005
  -2.4199999999999999E-002     4.7566220018779859E-005
  -2.4100000000000000E-002     4.6148255933076143E-005
  -2.4000000000000000E-002     4.3707525037461892E-005
  -2.3900000000000001E-002     4.0353828808292747E-005
  -2.3800000000000002E-002     3.6234203435014933E-005
  -2.3699999999999999E-002     3.1528797990176827E-005
  -2.3599999999999999E-002     2.6445470211911015E-005
  -2.3500000000000000E-002     2.1213209038251080E-005
  -2.3400000000000001E-002     1.6074622180894949E-005
  -2.3300000000000001E-002     1.1277708836132661E-005
  -2.3199999999999998E-002     7.0672062975063454E-006
  -2.3099999999999999E-002     3.6758099213329842E-006
  -2.3000000000000000E-002     1.3155710121282027E-006
  -2.2900000000000000E-002     1.6979618067125557E-007
  -2.2800000000000001E-002     3.8575828398279555E-007
  -2.2700000000000001E-002     2.0685163235611981E-006
  -2.2599999999999999E-002     5.2760701692022849E-006
  -2.2499999999999999E-002     1.0016081432695501E-005
  -2.2400000000000000E-002     1.6244346625171602E-005
  -2.2300000000000000E-002     2.3865082766860723E-005
  -2.2200000000000001E-002     3.2733085390646011E-005
  -2.2100000000000002E-002     4.2657749872887507E-005
  -2.1999999999999999E-002     5.3408817620947957E-005
  -2.1899999999999999E-002     6.4723732066340744E-005
  -2.1800000000000000E-002     7.6316318882163614E-005
  -2.1700000000000001E-002     8.7886590335983783E-005
  -2.1600000000000001E-002     9.9131269962526858E-005
  -2.1499999999999998E-002     1.0975469922414050E-004
  -2.1399999999999999E-002     1.1947978782700375E-004
  -2.1299999999999999E-002     1.2805854203179479E-004
  -2.1200000000000000E-002     1.3528176350519061E-004
  -2.1100000000000001E-002     1.4098768588155508E-004
  -2.1000000000000001E-002     1.4506904699373990E-004
  -2.0899999999999998E-002     1.4747839304618537E-004
  -2.0799999999999999E-002     1.4823136734776199E-004
  -2.0700000000000000E-002     1.4740781625732780E-004
  -2.0600000000000000E-002     1.4515063958242536E-004
  -2.0500000000000001E-002     1.4166238543111831E-004
  -2.0400000000000001E-002     1.3719961862079799E-004
  -2.0299999999999999E-002     1.3206529547460377E-004
  -2.0199999999999999E-002     1.2659933418035507E-004
  -2.0100000000000000E-002     1.2116772995796055E-004
  -2.0000000000000000E-002     1.1615055700531229E-004
  -1.9900000000000001E-002     1.1192925740033388E-004
  -1.9799999999999998E-002     1.0887376265600324E-004
  -1.9699999999999999E-002     1.0732981172623113E-004
  -1.9599999999999999E-002     1.0760698205558583E-004
  -1.9500000000000000E-002     1.0996793571393937E-004
  -1.9400000000000001E-002     1.1461917893029749E-004
  -1.9300000000000001E-002     1.2170381523901597E-004
  -1.9199999999999998E-002     1.3129656144883484E-004
  -1.9099999999999999E-002     1.4340119378175586E-004
  -1.9000000000000000E-002     1.5795067884027958E-004
  -1.8900000000000000E-002     1.7480987298768014E-004
  -1.8800000000000001E-002     1.9378088472876698E-004
  -1.8700000000000001E-002     2.1461083088070154E-004
  -1.8599999999999998E-002     2.3700177553109825E-004
  -1.8499999999999999E-002     2.6062258984893560E-004
  -1.8400000000000000E-002     2.8512213611975312E-004
  -1.8300000000000000E-002     3.1014357227832079E-004
  -1.8200000000000001E-002     3.3533902023918927E-004
  -1.8100000000000002E-002     3.6038414691574872E-004
  -1.7999999999999999E-002     3.8499222137033939E-004
  -1.7899999999999999E-002     4.0892692049965262E-004
  -1.7800000000000000E-002     4.3201356311328709E-004
  -1.7700000000000000E-002     4.5414827764034271E-004
  -1.7600000000000001E-002     4.7530466690659523E-004
  -1.7499999999999998E-002     4.9553776625543833E-004
  -1.7399999999999999E-002     5.1498506218194962E-004
  -1.7299999999999999E-002     5.3386483341455460E-004
  -1.7200000000000000E-002     5.5247114505618811E-004
  -1.7100000000000001E-002     5.7116622338071465E-004
  -1.7000000000000001E-002     5.9037038590759039E-004
  -1.6899999999999998E-002     6.1054981779307127E-004
  -1.6799999999999999E-002     6.3220248557627201E-004
  -1.6700000000000000E-002     6.5584288677200675E-004
  -1.6600000000000000E-002     6.8198627559468150E-004
  -1.6500000000000001E-002     7.1113283047452569E-004
  -1.6400000000000001E-002     7.4375217081978917E-004
  -1.6299999999999999E-002     7.8026927076280117E-004
  -1.6199999999999999E-002     8.2105206092819571E-004
  -1.6100000000000000E-002     8.6640118388459086E-004
  -1.6000000000000000E-002     9.1654254356399179E-004
  -1.5900000000000001E-002     9.7162253223359585E-004
  -1.5799999999999998E-002     1.0317065753042698E-003
  -1.5699999999999999E-002     1.0967811103910208E-003
  -1.5599999999999999E-002     1.1667585931718349E-003
  -1.5500000000000000E-002     1.2414857046678662E-003
  -1.5400000000000000E-002     1.3207545271143317E-003
  -1.5300000000000001E-002     1.4043156988918781E-003
  -1.5199999999999998E-002     1.4918938977643847E-003
  -1.5099999999999999E-002     1.5832048375159502E-003
  -1.4999999999999999E-002     1.6779726138338447E-003
  -1.4900000000000000E-002     1.7759475158527493E-003
  -1.4800000000000001E-002     1.8769231392070651E-003
  -1.4700000000000001E-002     1.9807522185146809E-003
  -1.4599999999999998E-002     2.0873609464615583E-003
  -1.4499999999999999E-002     2.1967606153339148E-003
  -1.4400000000000000E-002     2.3090564645826817E-003
  -1.4300000000000000E-002     2.4244538508355618E-003
  -1.4200000000000001E-002     2.5432603433728218E-003
  -1.4099999999999998E-002     2.6658840943127871E-003
  -1.3999999999999999E-002     2.7928298804908991E-003
  -1.3899999999999999E-002     2.9246907215565443E-003
  -1.3800000000000000E-002     3.0621367041021585E-003
  -1.3700000000000000E-002     3.2059019431471825E-003
  -1.3600000000000001E-002     3.3567680511623621E-003
  -1.3499999999999998E-002     3.5155473742634058E-003
  -1.3399999999999999E-002     3.6830650642514229E-003
  -1.3299999999999999E-002     3.8601406849920750E-003
  -1.3200000000000000E-002     4.0475712157785892E-003
  -1.3100000000000001E-002     4.2461147531867027E-003
  -1.3000000000000001E-002     4.4564763084053993E-003
  -1.2899999999999998E-002     4.6792970970273018E-003
  -1.2799999999999999E-002     4.9151456914842129E-003
  -1.2699999999999999E-002     5.1645128987729549E-003
  -1.2600000000000000E-002     5.4278108291327953E-003
  -1.2500000000000001E-002     5.7053761556744576E-003
  -1.2399999999999998E-002     5.9974761679768562E-003
  -1.2299999999999998E-002     6.3043185509741306E-003
  -1.2199999999999999E-002     6.6260653547942638E-003
  -1.2100000000000000E-002     6.9628488272428513E-003
  -1.2000000000000000E-002     7.3147895745933056E-003
  -1.1900000000000001E-002     7.6820161193609238E-003
  -1.1799999999999998E-002     8.0646863207221031E-003
  -1.1699999999999999E-002     8.4630073979496956E-003
  -1.1599999999999999E-002     8.8772540912032127E-003
  -1.1500000000000000E-002     9.3077886849641800E-003
  -1.1400000000000000E-002     9.7550777718424797E-003
  -1.1300000000000001E-002     1.0219702497124672E-002
  -1.1199999999999998E-002     1.0702368803322315E-002
  -1.1099999999999999E-002     1.1203913018107414E-002
  -1.0999999999999999E-002     1.1725305579602718E-002
  -1.0900000000000000E-002     1.2267646379768848E-002
  -1.0800000000000001E-002     1.2832157313823700E-002
  -1.0699999999999998E-002     1.3420174829661846E-002
  -1.0599999999999998E-002     1.4033133164048195E-002
  -1.0499999999999999E-002     1.4672546647489071E-002
  -1.0400000000000000E-002     1.5339992940425873E-002
  -1.0300000000000000E-002     1.6037093475461006E-002
  -1.0200000000000001E-002     1.6765488311648369E-002
  -1.0099999999999998E-002     1.7526818439364433E-002
  -9.9999999999999985E-003     1.8322700634598732E-002
  -9.8999999999999991E-003     1.9154714420437813E-002
  -9.7999999999999997E-003     2.0024385303258896E-002
  -9.7000000000000003E-003     2.0933171734213829E-002
  -9.6000000000000009E-003     2.1882459521293640E-002
  -9.4999999999999980E-003     2.2873554378747940E-002
  -9.3999999999999986E-003     2.3907680064439774E-002
  -9.2999999999999992E-003     2.4985987693071365E-002
  -9.1999999999999998E-003     2.6109566912055016E-002
  -9.1000000000000004E-003     2.7279453352093697E-002
  -9.0000000000000011E-003     2.8496649116277695E-002
  -8.8999999999999982E-003     2.9762143269181252E-002
  -8.7999999999999988E-003     3.1076932325959206E-002
  -8.6999999999999994E-003     3.2442048192024231E-002
  -8.5999999999999965E-003     3.3858574926853180E-002
  -8.5000000000000006E-003     3.5327687859535217E-002
  -8.3999999999999977E-003     3.6850661039352417E-002
  -8.3000000000000018E-003     3.8428891450166702E-002
  -8.1999999999999990E-003     4.0063921362161636E-002
  -8.0999999999999961E-003     4.1757449507713318E-002
  -8.0000000000000002E-003     4.3511342257261276E-002
  -7.8999999999999973E-003     4.5327633619308472E-002
  -7.8000000000000014E-003     4.7208525240421295E-002
  -7.6999999999999985E-003     4.9156386405229568E-002
  -7.6000000000000026E-003     5.1173739135265350E-002
  -7.4999999999999997E-003     5.3263243287801743E-002
  -7.3999999999999969E-003     5.5427674204111099E-002
  -7.3000000000000009E-003     5.7669904083013535E-002
  -7.1999999999999981E-003     5.9992879629135132E-002
  -7.1000000000000021E-003     6.2399592250585556E-002
  -6.9999999999999993E-003     6.4893044531345367E-002
  -6.8999999999999964E-003     6.7476242780685425E-002
  -6.8000000000000005E-003     7.0152148604393005E-002
  -6.6999999999999976E-003     7.2923667728900909E-002
  -6.6000000000000017E-003     7.5793638825416565E-002
  -6.4999999999999988E-003     7.8764803707599640E-002
  -6.3999999999999960E-003     8.1839799880981445E-002
  -6.3000000000000000E-003     8.5021167993545532E-002
  -6.1999999999999972E-003     8.8311344385147095E-002
  -6.1000000000000013E-003     9.1712661087512970E-002
  -5.9999999999999984E-003     9.5227360725402832E-002
  -5.9000000000000025E-003     9.8857611417770386E-002
  -5.7999999999999996E-003    0.10260552167892456
  -5.6999999999999967E-003    0.10647317767143250
  -5.6000000000000008E-003    0.11046267300844193
  -5.4999999999999979E-003    0.11457611620426178
  -5.4000000000000020E-003    0.11881566047668457
  -5.2999999999999992E-003    0.12318354845046997
  -5.1999999999999963E-003    0.12768213450908661
  -5.1000000000000004E-003    0.13231386244297028
  -4.9999999999999975E-003    0.13708133995532990
  -4.9000000000000016E-003    0.14198733866214752
  -4.7999999999999987E-003    0.14703477919101715
  -4.6999999999999958E-003    0.15222673118114471
  -4.5999999999999999E-003    0.15756644308567047
  -4.4999999999999971E-003    0.16305731236934662
  -4.4000000000000011E-003    0.16870285570621490
  -4.2999999999999983E-003    0.17450669407844543
  -4.2000000000000023E-003    0.18047252297401428
  -4.0999999999999995E-003    0.18660409748554230
  -3.9999999999999966E-003    0.19290517270565033
  -3.9000000000000007E-003    0.19937944412231445
  -3.7999999999999978E-003    0.20603056252002716
  -3.7000000000000019E-003    0.21286208927631378
  -3.5999999999999990E-003    0.21987745165824890
  -3.4999999999999962E-003    0.22707988321781158
  -3.4000000000000002E-003    0.23447242379188538
  -3.2999999999999974E-003    0.24205790460109711
  -3.2000000000000015E-003    0.24983891844749451
  -3.0999999999999986E-003    0.25781780481338501
  -2.9999999999999957E-003    0.26599666476249695
  -2.8999999999999998E-003    0.27437734603881836
  -2.7999999999999969E-003    0.28296145796775818
  -2.7000000000000010E-003    0.29175037145614624
  -2.5999999999999981E-003    0.30074524879455566
  -2.5000000000000022E-003    0.30994707345962524
  -2.3999999999999994E-003    0.31935673952102661
  -2.2999999999999965E-003    0.32897493243217468
  -2.2000000000000006E-003    0.33880224823951721
  -2.0999999999999977E-003    0.34883925318717957
  -2.0000000000000018E-003    0.35908642411231995
  -1.8999999999999989E-003    0.36954423785209656
  -1.7999999999999960E-003    0.38021317124366760
  -1.7000000000000001E-003    0.39109367132186890
  -1.5999999999999973E-003    0.40218621492385864
  -1.5000000000000013E-003    0.41349133849143982
  -1.3999999999999985E-003    0.42500951886177063
  -1.2999999999999956E-003    0.43674120306968689
  -1.1999999999999997E-003    0.44868683815002441
  -1.0999999999999968E-003    0.46084675192832947
  -1.0000000000000009E-003    0.47322115302085876
  -8.9999999999999802E-004    0.48581013083457947
  -8.0000000000000210E-004    0.49861356616020203
  -6.9999999999999923E-004    0.51163113117218018
  -5.9999999999999637E-004    0.52486211061477661
  -5.0000000000000044E-004    0.53830552101135254
  -3.9999999999999758E-004    0.55195999145507812
  -3.0000000000000165E-004    0.56582367420196533
  -1.9999999999999879E-004    0.57989424467086792
  -9.9999999999995925E-005    0.59416896104812622
   0.0000000000000000         0.60864448547363281
   1.0000000000000286E-004    0.62331688404083252
   1.9999999999999879E-004    0.63818174600601196
   3.0000000000000165E-004    0.65323406457901001
   4.0000000000000452E-004    0.66846835613250732
   5.0000000000000044E-004    0.68387860059738159
   6.0000000000000331E-004    0.69945812225341797
   6.9999999999999923E-004    0.71519982814788818
   8.0000000000000210E-004    0.73109620809555054
   8.9999999999999802E-004    0.74713927507400513
   1.0000000000000009E-003    0.76332056522369385
   1.1000000000000038E-003    0.77963125705718994
   1.1999999999999997E-003    0.79606217145919800
   1.3000000000000025E-003    0.81260383129119873
   1.3999999999999985E-003    0.82924640178680420
   1.5000000000000013E-003    0.84597969055175781
   1.6000000000000042E-003    0.86279332637786865
   1.7000000000000001E-003    0.87967652082443237
   1.8000000000000030E-003    0.89661818742752075
   1.8999999999999989E-003    0.91360700130462646
   2.0000000000000018E-003    0.93063122034072876
   2.1000000000000046E-003    0.94767874479293823
   2.2000000000000006E-003    0.96473699808120728
   2.3000000000000034E-003    0.98179292678833008
   2.3999999999999994E-003    0.99883306026458740
   2.5000000000000022E-003     1.0158432722091675
   2.5999999999999981E-003     1.0328088998794556
   2.7000000000000010E-003     1.0497145652770996
   2.8000000000000039E-003     1.0665440559387207
   2.8999999999999998E-003     1.0832805633544922
   3.0000000000000027E-003     1.0999063253402710
   3.0999999999999986E-003     1.1164028644561768
   3.2000000000000015E-003     1.1327509880065918
   3.3000000000000043E-003     1.1489304304122925
   3.4000000000000002E-003     1.1649200916290283
   3.5000000000000031E-003     1.1806981563568115
   3.5999999999999990E-003     1.1962419748306274
   3.7000000000000019E-003     1.2115279436111450
   3.7999999999999978E-003     1.2265315055847168
   3.9000000000000007E-003     1.2412275075912476
   4.0000000000000036E-003     1.2555900812149048
   4.0999999999999995E-003     1.2695924043655396
   4.2000000000000023E-003     1.2832072973251343
   4.2999999999999983E-003     1.2964068651199341
   4.4000000000000011E-003     1.3091624975204468
   4.5000000000000040E-003     1.3214453458786011
   4.5999999999999999E-003     1.3332257270812988
   4.7000000000000028E-003     1.3444734811782837
   4.7999999999999987E-003     1.3551582098007202
   4.9000000000000016E-003     1.3652490377426147
   5.0000000000000044E-003     1.3747144937515259
   5.1000000000000004E-003     1.3835227489471436
   5.2000000000000032E-003     1.3916416168212891
   5.2999999999999992E-003     1.3990383148193359
   5.4000000000000020E-003     1.4056797027587891
   5.4999999999999979E-003     1.4115321636199951
   5.6000000000000008E-003     1.4165616035461426
   5.7000000000000037E-003     1.4207334518432617
   5.7999999999999996E-003     1.4240126609802246
   5.9000000000000025E-003     1.4263634681701660
   5.9999999999999984E-003     1.4277493953704834
   6.1000000000000013E-003     1.4281333684921265
   6.2000000000000041E-003     1.4274777173995972
   6.3000000000000000E-003     1.4257442951202393
   6.4000000000000029E-003     1.4228942394256592
   6.4999999999999988E-003     1.4188879728317261
   6.6000000000000017E-003     1.4136853218078613
   6.7000000000000046E-003     1.4072453975677490
   6.8000000000000005E-003     1.3995265960693359
   6.9000000000000034E-003     1.3904870748519897
   6.9999999999999993E-003     1.3800847530364990
   7.1000000000000021E-003     1.3682770729064941
   7.1999999999999981E-003     1.3550209999084473
   7.3000000000000009E-003     1.3402732610702515
   7.4000000000000038E-003     1.3239905834197998
   7.4999999999999997E-003     1.3061295747756958
   7.6000000000000026E-003     1.2866468429565430
   7.6999999999999985E-003     1.2654989957809448
   7.8000000000000014E-003     1.2426428794860840
   7.9000000000000042E-003     1.2180355787277222
   8.0000000000000002E-003     1.1916342973709106
   8.1000000000000030E-003     1.1633965969085693
   8.1999999999999990E-003     1.1332805156707764
   8.3000000000000018E-003     1.1012445688247681
   8.4000000000000047E-003     1.0672477483749390
   8.5000000000000006E-003     1.0312495231628418
   8.6000000000000035E-003    0.99320989847183228
   8.6999999999999994E-003    0.95308959484100342
   8.8000000000000023E-003    0.91084975004196167
   8.8999999999999982E-003    0.86645197868347168
   9.0000000000000011E-003    0.81985867023468018
   9.1000000000000039E-003    0.77103292942047119
   9.1999999999999998E-003    0.71993863582611084
   9.3000000000000027E-003    0.66654026508331299
   9.3999999999999986E-003    0.61080288887023926
   9.5000000000000015E-003    0.55269259214401245
   9.6000000000000044E-003    0.49217614531517029
   9.7000000000000003E-003    0.42922085523605347
   9.8000000000000032E-003    0.36379536986351013
   9.8999999999999991E-003    0.29586929082870483
   1.0000000000000002E-002    0.22541311383247375
   1.0100000000000005E-002    0.15239860117435455
   1.0200000000000001E-002     7.6798915863037109E-002
   1.0300000000000004E-002    -1.4114591758698225E-003
   1.0400000000000000E-002    -8.2256734371185303E-002
   1.0500000000000002E-002   -0.16575944423675537
   1.0599999999999998E-002   -0.25194042921066284
   1.0700000000000001E-002   -0.34081852436065674
   1.0800000000000004E-002   -0.43241089582443237
   1.0900000000000000E-002   -0.52673286199569702
   1.1000000000000003E-002   -0.62379729747772217
   1.1099999999999999E-002   -0.72361493110656738
   1.1200000000000002E-002   -0.82619422674179077
   1.1300000000000004E-002   -0.93154126405715942
   1.1400000000000000E-002    -1.0396597385406494
   1.1500000000000003E-002    -1.1505507230758667
   1.1599999999999999E-002    -1.2642123699188232
   1.1700000000000002E-002    -1.3806403875350952
   1.1800000000000005E-002    -1.4998276233673096
   1.1900000000000001E-002    -1.6217641830444336
   1.2000000000000004E-002    -1.7464371919631958
   1.2100000000000000E-002    -1.8738310337066650
   1.2200000000000003E-002    -2.0039272308349609
   1.2299999999999998E-002    -2.1367042064666748
   1.2400000000000001E-002    -2.2721371650695801
   1.2500000000000004E-002    -2.4101986885070801
   1.2600000000000000E-002    -2.5508582592010498
   1.2700000000000003E-002    -2.6940822601318359
   1.2799999999999999E-002    -2.8398334980010986
   1.2900000000000002E-002    -2.9880716800689697
   1.3000000000000005E-002    -3.1387536525726318
   1.3100000000000001E-002    -3.2918326854705811
   1.3200000000000003E-002    -3.4472587108612061
   1.3299999999999999E-002    -3.6049783229827881
   1.3400000000000002E-002    -3.7649345397949219
   1.3500000000000005E-002    -3.9270670413970947
   1.3600000000000001E-002    -4.0913114547729492
   1.3700000000000004E-002    -4.2576003074645996
   1.3800000000000000E-002    -4.4258618354797363
   1.3900000000000003E-002    -4.5960206985473633
   1.3999999999999999E-002    -4.7679977416992188
   1.4100000000000001E-002    -4.9417099952697754
   1.4200000000000004E-002    -5.1170701980590820
   1.4300000000000000E-002    -5.2939867973327637
   1.4400000000000003E-002    -5.4723644256591797
   1.4499999999999999E-002    -5.6521039009094238
   1.4600000000000002E-002    -5.8331022262573242
   1.4700000000000005E-002    -6.0152516365051270
   1.4800000000000001E-002    -6.1984400749206543
   1.4900000000000004E-002    -6.3825521469116211
   1.4999999999999999E-002    -6.5674681663513184
   1.5100000000000002E-002    -6.7530646324157715
   1.5200000000000005E-002    -6.9392142295837402
   1.5300000000000001E-002    -7.1257848739624023
   1.5400000000000004E-002    -7.3126411437988281
   1.5500000000000000E-002    -7.4996442794799805
   1.5600000000000003E-002    -7.6866517066955566
   1.5699999999999999E-002    -7.8735170364379883
   1.5800000000000002E-002    -8.0600900650024414
   1.5900000000000004E-002    -8.2462177276611328
   1.6000000000000000E-002    -8.4317426681518555
   1.6100000000000003E-002    -8.6165056228637695
   1.6199999999999999E-002    -8.8003435134887695
   1.6300000000000002E-002    -8.9830904006958008
   1.6400000000000005E-002    -9.1645765304565430