  -4.0000000000000001E-002     0.0000000000000000
  -3.9899999999999998E-002     0.0000000000000000
  -3.9800000000000002E-002     0.0000000000000000
  -3.9699999999999999E-002     0.0000000000000000
  -3.9600000000000003E-002     0.0000000000000000
  -3.9500000000000000E-002     0.0000000000000000
  -3.9399999999999998E-002     2.7037331890845384E-024
  -3.9300000000000002E-002     3.4654344021996960E-023
  -3.9199999999999999E-002     2.3850077296186119E-022
  -3.9100000000000003E-002     1.1691368960288968E-021
  -3.9000000000000000E-002     4.5718090702253277E-021
  -3.8900000000000004E-002     1.5152016579759331E-020
  -3.8800000000000001E-002     4.4179083206300722E-020
  -3.8699999999999998E-002     1.1619762786171543E-019
  -3.8600000000000002E-002     2.8063224144567239E-019
  -3.8500000000000000E-002     6.3061204842412869E-019
  -3.8400000000000004E-002     1.3318314067551713E-018
  -3.8300000000000001E-002     2.6645865674594111E-018
  -3.8199999999999998E-002     5.0821426760150673E-018
  -3.8100000000000002E-002     9.2881166220598789E-018
  -3.7999999999999999E-002     1.6334438126480594E-017
  -3.7900000000000003E-002     2.7739490261437207E-017
  -3.7800000000000000E-002     4.5623126833027540E-017
  -3.7699999999999997E-002     7.2851232533088539E-017
  -3.7600000000000001E-002     1.1317756456191442E-016
  -3.7499999999999999E-002     1.7136445316887918E-016
  -3.7400000000000003E-002     2.5325745139399706E-016
  -3.7300000000000000E-002     3.6578204619780702E-016
  -3.7200000000000004E-002     5.1682334669563815E-016
  -3.7100000000000001E-002     7.1494498833312944E-016
  -3.6999999999999998E-002     9.6889790671638148E-016
  -3.6900000000000002E-002     1.2868701575882648E-015
  -3.6799999999999999E-002     1.6754308520316509E-015
  -3.6700000000000003E-002     2.1381277875461143E-015
  -3.6600000000000001E-002     2.6737137081168233E-015
  -3.6499999999999998E-002     3.2739924053087899E-015
  -3.6400000000000002E-002     3.9213076890947350E-015
  -3.6299999999999999E-002     4.5857241445692708E-015
  -3.6200000000000003E-002     5.2219958127889144E-015
  -3.6100000000000000E-002     5.7664601209545061E-015
  -3.6000000000000004E-002     6.1340453150085603E-015
  -3.5900000000000001E-002     6.2156315284880945E-015
  -3.5799999999999998E-002     5.8760560199338455E-015
  -3.5700000000000003E-002     4.9530950392876697E-015
  -3.5600000000000000E-002     3.2577977706319981E-015
  -3.5500000000000004E-002     5.7657045675655553E-016
  -3.5400000000000001E-002    -3.3245950006107090E-015
  -3.5299999999999998E-002    -8.6933498594232717E-015
  -3.5200000000000002E-002    -1.5781340196772096E-014
  -3.5099999999999999E-002    -2.4831401041272572E-014
  -3.5000000000000003E-002    -3.6061435006737655E-014
  -3.4900000000000000E-002    -4.9644946628017023E-014
  -3.4799999999999998E-002    -6.5688360512735494E-014
  -3.4700000000000002E-002    -8.4205530731778361E-014
  -3.4599999999999999E-002    -1.0508995475048966E-013
  -3.4500000000000003E-002    -1.2808557112078262E-013
  -3.4400000000000000E-002    -1.5275729628710238E-013
  -3.4299999999999997E-002    -1.7846259138445258E-013
  -3.4200000000000001E-002    -2.0432577342317099E-013
  -3.4099999999999998E-002    -2.2921690045162035E-013
  -3.4000000000000002E-002    -2.5173735166729438E-013
  -3.3900000000000000E-002    -2.7021432509079235E-013
  -3.3799999999999997E-002    -2.8270628568173584E-013
  -3.3700000000000001E-002    -2.8702197953436870E-013
  -3.3599999999999998E-002    -2.8075466756115330E-013
  -3.3500000000000002E-002    -2.6133370641112652E-013
  -3.3399999999999999E-002    -2.2609458793024229E-013
  -3.3300000000000003E-002    -1.7236875175883487E-013
  -3.3200000000000000E-002    -9.7592737385333861E-014
  -3.3099999999999997E-002     5.6341778209114996E-016
  -3.3000000000000002E-002     1.2405029260753597E-013
  -3.2899999999999999E-002     2.7427818588381114E-013
  -3.2800000000000003E-002     4.5194490511102359E-013
  -3.2700000000000000E-002     6.5685700151654758E-013
  -3.2600000000000004E-002     8.8775010563188483E-013
  -3.2500000000000001E-002     1.1421159157309901E-012
  -3.2399999999999998E-002     1.4160430640564048E-012
  -3.2300000000000002E-002     1.7040809952365010E-012
  -3.2199999999999999E-002     1.9991363165577924E-012
  -3.2100000000000004E-002     2.2924101852894729E-012
  -3.2000000000000001E-002     2.5733892013851678E-012
  -3.1899999999999998E-002     2.8298956060435199E-012
  -3.1800000000000002E-002     3.0482070860482491E-012
  -3.1699999999999999E-002     3.2132547490848484E-012
  -3.1600000000000003E-002     3.3089019805393471E-012
  -3.1500000000000000E-002     3.3183106869921764E-012
  -3.1399999999999997E-002     3.2243942758858335E-012
  -3.1300000000000001E-002     3.0103552029620007E-012
  -3.1199999999999999E-002     2.6603025338189923E-012
  -3.1100000000000003E-002     2.1599410628125870E-012
  -3.1000000000000000E-002     1.4973165936293942E-012
  -3.0900000000000000E-002     6.6360388321570762E-013
  -3.0800000000000001E-002    -3.4608543786861234E-013
  -3.0699999999999998E-002    -1.5318981977027746E-012
  -3.0600000000000002E-002    -2.8884672431672698E-012
  -3.0499999999999999E-002    -4.4042000948985027E-012
  -3.0400000000000000E-002    -6.0606610875757472E-012
  -3.0300000000000001E-002    -7.8320839397294506E-012
  -3.0200000000000001E-002    -9.6850470351905749E-012
  -3.0100000000000002E-002    -1.1578340716744684E-011
  -2.9999999999999999E-002    -1.3463070068497895E-011
  -2.9899999999999999E-002    -1.5283007498423373E-011
  -2.9800000000000000E-002    -1.6975225045068321E-011
  -2.9700000000000001E-002    -1.8471033730316222E-011
  -2.9600000000000001E-002    -1.9697226488757380E-011
  -2.9499999999999998E-002    -2.0577617734773845E-011
  -2.9400000000000003E-002    -2.1034916863893471E-011
  -2.9300000000000000E-002    -2.0992851554324510E-011
  -2.9200000000000000E-002    -2.0378573828416791E-011
  -2.9100000000000001E-002    -1.9125265607322639E-011
  -2.8999999999999998E-002    -1.7174907329664535E-011
  -2.8900000000000002E-002    -1.4481141979993950E-011
  -2.8799999999999999E-002    -1.1012170342272753E-011
  -2.8700000000000000E-002    -6.7535699255216741E-012
  -2.8600000000000000E-002    -1.7109678474361290E-012
  -2.8500000000000001E-002     4.0875454063171723E-012
  -2.8400000000000002E-002     1.0589359250579022E-011
  -2.8299999999999999E-002     1.7715742067769824E-011
  -2.8200000000000003E-002     2.5360803734830739E-011
  -2.8100000000000000E-002     3.3391119730330487E-011
  -2.8000000000000001E-002     4.1646092824310088E-011
  -2.7900000000000001E-002     4.9939132690246524E-011
  -2.7799999999999998E-002     5.8059702878754393E-011
  -2.7700000000000002E-002     6.5776301072517640E-011
  -2.7600000000000000E-002     7.2840337927981835E-011
  -2.7500000000000000E-002     7.8990952667723491E-011
  -2.7400000000000001E-002     8.3960713381792118E-011
  -2.7299999999999998E-002     8.7482077137934766E-011
  -2.7200000000000002E-002     8.9294627247937797E-011
  -2.7099999999999999E-002     8.9152830951011452E-011
  -2.7000000000000000E-002     8.6834227308596468E-011
  -2.6900000000000000E-002     8.2147864899351219E-011
  -2.6800000000000001E-002     7.4942725636351071E-011
  -2.6700000000000002E-002     6.5115947356364501E-011
  -2.6599999999999999E-002     5.2620543339321202E-011
  -2.6500000000000003E-002     3.7472414060601977E-011
  -2.6400000000000000E-002     1.9756335456477814E-011
  -2.6300000000000000E-002    -3.6931704439427393E-013
  -2.6200000000000001E-002    -2.2669361179894487E-011
  -2.6099999999999998E-002    -4.6830355565630200E-011
  -2.6000000000000002E-002    -7.2461099620557690E-011
  -2.5899999999999999E-002    -9.9095252836800540E-011
  -2.5800000000000000E-002    -1.2619619238485313E-010
  -2.5700000000000001E-002    -1.5316418966460077E-010
  -2.5599999999999998E-002    -1.7934589924273325E-010
  -2.5500000000000002E-002    -2.0404607170565470E-010
  -2.5399999999999999E-002    -2.2654148001954866E-010
  -2.5300000000000000E-002    -2.4609672633069124E-010
  -2.5200000000000000E-002    -2.6198171410030113E-010
  -2.5100000000000001E-002    -2.7349050801817043E-010
  -2.5000000000000001E-002    -2.7996119311701761E-010
  -2.4899999999999999E-002    -2.8079605307596012E-010
  -2.4800000000000003E-002    -2.7548183179071373E-010
  -2.4700000000000000E-002    -2.6360952309900654E-010
  -2.4600000000000000E-002    -2.4489280048278772E-010
  -2.4500000000000001E-002    -2.1918497572492868E-010
  -2.4399999999999998E-002    -1.8649348731969440E-010
  -2.4299999999999999E-002    -1.4699157169228982E-010
  -2.4199999999999999E-002    -1.0102664538269579E-010
  -2.4100000000000000E-002    -4.9124742468320548E-011
  -2.4000000000000000E-002     8.0092191559466563E-012
  -2.3900000000000001E-002     6.9495714738465608E-011
  -2.3800000000000002E-002     1.3428960721206806E-010
  -2.3699999999999999E-002     2.0119395038875609E-010
  -2.3599999999999999E-002     2.6887850279599945E-010
  -2.3500000000000000E-002     3.3590297210395192E-010
  -2.3400000000000001E-002     4.0074435436743272E-010
  -2.3300000000000001E-002     4.6182807578176721E-010
  -2.3199999999999998E-002     5.1756260388557962E-010
  -2.3099999999999999E-002     5.6637622369848373E-010
  -2.3000000000000000E-002     6.0675581226021791E-010
  -2.2900000000000000E-002     6.3728627930359494E-010
  -2.2800000000000001E-002     6.5668986914957372E-010
  -2.2700000000000001E-002     6.6386413033470149E-010
  -2.2599999999999999E-002     6.5791766479250668E-010
  -2.2499999999999999E-002     6.3820276841042300E-010
  -2.2400000000000000E-002     6.0434340865000991E-010
  -2.2300000000000000E-002     5.5625820616356236E-010
  -2.2200000000000001E-002     4.9417708813948025E-010
  -2.2100000000000002E-002     4.1865128030948995E-010
  -2.1999999999999999E-002     3.3055591597275225E-010
  -2.1899999999999999E-002     2.3108470692534411E-010
  -2.1800000000000000E-002     1.2173684282856811E-010
  -2.1700000000000001E-002     4.2957920207142841E-012
  -2.1600000000000001E-002    -1.1919955300587759E-010
  -2.1499999999999998E-002    -2.4649107754903810E-010
  -2.1399999999999999E-002    -3.7514411022065985E-010
  -2.1299999999999999E-002    -5.0259602035751527E-010
  -2.1200000000000000E-002    -6.2620941765345606E-010
  -2.1100000000000001E-002    -7.4332873190030568E-010
  -2.1000000000000001E-002    -8.5133911031931575E-010
  -2.0899999999999998E-002    -9.4772611980431520E-010
  -2.0799999999999999E-002    -1.0301339781193519E-009
  -2.0700000000000000E-002    -1.0964225083398560E-009
  -2.0600000000000000E-002    -1.1447194303570996E-009
  -2.0500000000000001E-002    -1.1734677674013483E-009
  -2.0400000000000001E-002    -1.1814667022491676E-009
  -2.0299999999999999E-002    -1.1679048839141615E-009
  -2.0199999999999999E-002    -1.1323846305089091E-009
  -2.0100000000000000E-002    -1.0749376944119149E-009
  -2.0000000000000000E-002    -9.9603014724891636E-010
  -1.9900000000000001E-002    -8.9655793900078606E-010
  -1.9799999999999998E-002    -7.7783224305960630E-010
  -1.9699999999999999E-002    -6.4155514234442990E-010
  -1.9599999999999999E-002    -4.8978643363284391E-010
  -1.9500000000000000E-002    -3.2490210521984864E-010
  -1.9400000000000001E-002    -1.4954597282734738E-010
  -1.9300000000000001E-002     3.3424579076735128E-011
  -1.9199999999999998E-002     2.2099694296784378E-010
  -1.9099999999999999E-002     4.1006453788128283E-010
  -1.9000000000000000E-002     5.9748900271827665E-010
  -1.8900000000000000E-002     7.8016176852102603E-010
  -1.8800000000000001E-002     9.5506380581866779E-010
  -1.8700000000000001E-002     1.1193213023119597E-009
  -1.8599999999999998E-002     1.2702566776212620E-009
  -1.8499999999999999E-002     1.4054332142521275E-009
  -1.8400000000000000E-002     1.5226927496669873E-009
  -1.8300000000000000E-002     1.6201854302622110E-009
  -1.8200000000000001E-002     1.6963915827616916E-009
  -1.8100000000000002E-002     1.7501354809823511E-009
  -1.7999999999999999E-002     1.7805902308154486E-009
  -1.7899999999999999E-002     1.7872759938697413E-009
  -1.7800000000000000E-002     1.7700508836426820E-009
  -1.7700000000000000E-002     1.7290960885318896E-009
  -1.7600000000000001E-002     1.6648958878207054E-009
  -1.7499999999999998E-002     1.5782141149500717E-009
  -1.7399999999999999E-002     1.4700687334112672E-009
  -1.7299999999999999E-002     1.3417048583264091E-009
  -1.7200000000000000E-002     1.1945686662073740E-009
  -1.7100000000000001E-002     1.0302819708485345E-009
  -1.7000000000000001E-002     8.5061985233281234E-010
  -1.6899999999999998E-002     6.5749172772910924E-010
  -1.6799999999999999E-002     4.5292539163632739E-010
  -1.6700000000000000E-002     2.3905580293082096E-010
  -1.6600000000000000E-002     1.8117618516555467E-011
  -1.6500000000000001E-002    -2.0755876184441746E-010
  -1.6400000000000001E-002    -4.3554806983259198E-010
  -1.6299999999999999E-002    -6.6332900283683216E-010
  -1.6199999999999999E-002    -8.8828239208638138E-010
  -1.6100000000000000E-002    -1.1076896067052644E-009
  -1.6000000000000000E-002    -1.3187330116792850E-009
  -1.5900000000000001E-002    -1.5185003254813978E-009
  -1.5799999999999998E-002    -1.7039935018559049E-009
  -1.5699999999999999E-002    -1.8721446615188597E-009
  -1.5599999999999999E-002    -2.0198389627523738E-009
  -1.5500000000000000E-002    -2.1439474640061462E-009
  -1.5400000000000000E-002    -2.2413668698817446E-009
  -1.5300000000000001E-002    -2.3090716005924605E-009
  -1.5199999999999998E-002    -2.3441735219620341E-009
  -1.5099999999999999E-002    -2.3439903351629710E-009
  -1.4999999999999999E-002    -2.3061217380160315E-009
  -1.4900000000000000E-002    -2.2285306933156335E-009
  -1.4800000000000001E-002    -2.1096286939581432E-009
  -1.4700000000000001E-002    -1.9483612501147718E-009
  -1.4599999999999998E-002    -1.7442913780030267E-009
  -1.4499999999999999E-002    -1.4976782036768554E-009
  -1.4400000000000000E-002    -1.2095457968541723E-009
  -1.4300000000000000E-002    -8.8174068046953380E-010
  -1.4200000000000001E-002    -5.1697340852641105E-010
  -1.4099999999999998E-002    -1.1884102035786270E-010
  -1.3999999999999999E-002     3.0817137730565491E-010
  -1.3899999999999999E-002     7.5871314786368771E-010
  -1.3800000000000000E-002     1.2266159199469939E-009
  -1.3700000000000000E-002     1.7049681666492233E-009
  -1.3600000000000001E-002     2.1862158749996752E-009
  -1.3499999999999998E-002     2.6622890558769541E-009
  -1.3399999999999999E-002     3.1247520126953532E-009
  -1.3299999999999999E-002     3.5649763141520907E-009
  -1.3200000000000000E-002     3.9743297541861011E-009
  -1.3100000000000001E-002     4.3443812991483810E-009
  -1.3000000000000001E-002     4.6671120301766678E-009
  -1.2899999999999998E-002     4.9351318587298465E-009
  -1.2799999999999999E-002     5.1418895807842091E-009
  -1.2699999999999999E-002     5.2818771578699852E-009
  -1.2600000000000000E-002     5.3508131259150105E-009
  -1.2500000000000001E-002     5.3458077964307904E-009
  -1.2399999999999998E-002     5.2654960391862460E-009
  -1.2299999999999998E-002     5.1101376463691395E-009
  -1.2199999999999999E-002     4.8816786168970339E-009
  -1.2100000000000000E-002     4.5837680318072671E-009
  -1.2000000000000000E-002     4.2217309648151513E-009
  -1.1900000000000001E-002     3.8024952075943474E-009
  -1.1799999999999998E-002     3.3344671468427123E-009
  -1.1699999999999999E-002     2.8273667851408391E-009
  -1.1599999999999999E-002     2.2920174647111935E-009
  -1.1500000000000000E-002     1.7400986207505298E-009
  -1.1400000000000000E-002     1.1838645619377530E-009
  -1.1300000000000001E-002     6.3583932563560097E-010
  -1.1199999999999998E-002     1.0849242337851450E-010
  -1.1099999999999999E-002    -3.8609337948969369E-010
  -1.0999999999999999E-002    -8.3655415927808008E-010
  -1.0900000000000000E-002    -1.2325664933143798E-009
  -1.0800000000000001E-002    -1.5651493434631902E-009
  -1.0699999999999998E-002    -1.8269367130230307E-009
  -1.0599999999999998E-002    -2.0124117927622365E-009
  -1.0499999999999999E-002    -2.1180945886101199E-009
  -1.0400000000000000E-002    -2.1426778129551849E-009
  -1.0300000000000000E-002    -2.0871040451453382E-009
  -1.0200000000000001E-002    -1.9545798313203022E-009
  -1.0099999999999998E-002    -1.7505265015316240E-009
  -9.9999999999999985E-003    -1.4824680372171883E-009
  -9.8999999999999991E-003    -1.1598549898295119E-009
  -9.7999999999999997E-003    -7.9383077888905973E-010
  -9.7000000000000003E-003    -3.9694525444389228E-010
  -9.6000000000000009E-003     1.7177743602547757E-011
  -9.4999999999999980E-003     4.3420939066507458E-010
  -9.3999999999999986E-003     8.3951173790453026E-010
  -9.2999999999999992E-003     1.2185493725169749E-009
  -9.1999999999999998E-003     1.5573051737050037E-009
  -9.1000000000000004E-003     1.8426886683187149E-009
  -9.0000000000000011E-003     2.0629244978920269E-009
  -8.8999999999999982E-003     2.2079107431238754E-009
  -8.7999999999999988E-003     2.2695352264179292E-009
  -8.6999999999999994E-003     2.2419417433638955E-009
  -8.5999999999999965E-003     2.1217374523985200E-009
  -8.5000000000000006E-003     1.9081363156203679E-009
  -8.3999999999999977E-003     1.6030317073756351E-009
  -8.3000000000000018E-003     1.2109995228826165E-009
  -8.1999999999999990E-003     7.3922828969230636E-010
  -8.0999999999999961E-003     1.9738043144368334E-010
  -8.0000000000000002E-003    -4.0261263767327193E-010
  -7.8999999999999973E-003    -1.0468156341758572E-009
  -7.8000000000000014E-003    -1.7196071233627208E-009
  -7.6999999999999985E-003    -2.4040405222081063E-009
  -7.6000000000000026E-003    -3.0822400187702215E-009
  -7.4999999999999997E-003    -3.7358192095382492E-009
  -7.3999999999999969E-003    -4.3463108667651795E-009
  -7.3000000000000009E-003    -4.8955981490905742E-009
  -7.1999999999999981E-003    -5.3663375965129489E-009
  -7.1000000000000021E-003    -5.7423590327232432E-009
  -6.9999999999999993E-003    -6.0090394882195142E-009
  -6.8999999999999964E-003    -6.1536362672143241E-009
  -6.8000000000000005E-003    -6.1655818228700809E-009
  -6.6999999999999976E-003    -6.0367284504536656E-009
  -6.6000000000000017E-003    -5.7615414661427167E-009
  -6.4999999999999988E-003    -5.3372439801080418E-009
  -6.3999999999999960E-003    -4.7639119316045253E-009
  -6.3000000000000000E-003    -4.0445198301597429E-009
  -6.1999999999999972E-003    -3.1849463066890848E-009
  -6.1000000000000013E-003    -2.1939405847604121E-009
  -5.9999999999999984E-003    -1.0830610852607947E-009
  -5.9000000000000025E-003     1.3341115712162122E-010
  -5.7999999999999996E-003     1.4385689306450899E-009
  -5.6999999999999967E-003     2.8129867324366842E-009
  -5.6000000000000008E-003     4.2348218265431115E-009
  -5.4999999999999979E-003     5.6799094316772880E-009
  -5.4000000000000020E-003     7.1218413388862700E-009
  -5.2999999999999992E-003     8.5320230880370218E-009
  -5.1999999999999963E-003     9.8797050540611053E-009
  -5.1000000000000004E-003     1.1131988664203618E-008
  -4.9999999999999975E-003     1.2253800640849022E-008
  -4.9000000000000016E-003     1.3207841931262010E-008
  -4.7999999999999987E-003     1.3954511324243413E-008
  -4.6999999999999958E-003     1.4451803309611932E-008
  -4.5999999999999999E-003     1.4655187285939064E-008
  -4.4999999999999971E-003     1.4517484103748757E-008
  -4.4000000000000011E-003     1.3988723068791842E-008
  -4.2999999999999983E-003     1.3016010491639918E-008
  -4.2000000000000023E-003     1.1543406230885012E-008
  -4.0999999999999995E-003     9.5118046772313392E-009
  -3.9999999999999966E-003     6.8588512647238531E-009
  -3.9000000000000007E-003     3.5188705282962474E-009
  -3.7999999999999978E-003    -5.7716886825431857E-010
  -3.7000000000000019E-003    -5.5016586841816206E-009
  -3.5999999999999990E-003    -1.1330330451642112E-008
  -3.4999999999999962E-003    -1.8142191748893310E-008
  -3.4000000000000002E-003    -2.6019446153213721E-008
  -3.2999999999999974E-003    -3.5047374780106111E-008
  -3.2000000000000015E-003    -4.5314227037351884E-008
  -3.0999999999999986E-003    -5.6911055423825019E-008
  -2.9999999999999957E-003    -6.9931608948081703E-008
  -2.8999999999999998E-003    -8.4472169703531108E-008
  -2.7999999999999969E-003    -1.0063146049787974E-007
  -2.7000000000000010E-003    -1.1851052761358005E-007
  -2.5999999999999981E-003    -1.3821274080783041E-007
  -2.5000000000000022E-003    -1.5984373646915628E-007
  -2.3999999999999994E-003    -1.8351148867168376E-007
  -2.2999999999999965E-003    -2.0932641575654998E-007
  -2.2000000000000006E-003    -2.3740157928386907E-007
  -2.0999999999999977E-003    -2.6785289719555294E-007
  -2.0000000000000018E-003    -3.0079954171924328E-007
  -1.8999999999999989E-003    -3.3636422358540585E-007
  -1.7999999999999960E-003    -3.7467376046151912E-007
  -1.7000000000000001E-003    -4.1585965959711757E-007
  -1.5999999999999973E-003    -4.6005854414943315E-007
  -1.5000000000000013E-003    -5.0741300583467819E-007
  -1.3999999999999985E-003    -5.5807220178394346E-007
  -1.2999999999999956E-003    -6.1219270719448105E-007
  -1.1999999999999997E-003    -6.6993925429414958E-007
  -1.0999999999999968E-003    -7.3148567025782540E-007
  -1.0000000000000009E-003    -7.9701555932842894E-007
  -8.9999999999999802E-004    -8.6672326915504527E-007
  -8.0000000000000210E-004    -9.4081480028762599E-007
  -6.9999999999999923E-004    -1.0195086588282720E-006
  -5.9999999999999637E-004    -1.1030367659259355E-006
  -5.0000000000000044E-004    -1.1916453104277025E-006
  -3.9999999999999758E-004    -1.2855956583734951E-006
  -3.0000000000000165E-004    -1.3851653193341917E-006
  -1.9999999999999879E-004    -1.4906486285326537E-006
  -9.9999999999995925E-005    -1.6023581110857776E-006
   0.0000000000000000         -1.7206250504386844E-006
   1.0000000000000286E-004    -1.8458007389199338E-006
   1.9999999999999879E-004    -1.9782571598625509E-006
   3.0000000000000165E-004    -2.1183884655329166E-006
   4.0000000000000452E-004    -2.2666120003123069E-006
   5.0000000000000044E-004    -2.4233693238784326E-006
   6.0000000000000331E-004    -2.5891272343869787E-006
   6.9999999999999923E-004    -2.7643800422083586E-006
   8.0000000000000210E-004    -2.9496500246750657E-006
   8.9999999999999802E-004    -3.1454892450710759E-006
   1.0000000000000009E-003    -3.3524811442475766E-006
   1.1000000000000038E-003    -3.5712419048650190E-006
   1.1999999999999997E-003    -3.8024222703825217E-006
   1.3000000000000025E-003    -4.0467098187946249E-006
   1.3999999999999985E-003    -4.3048294173786417E-006
   1.5000000000000013E-003    -4.5775464059261139E-006
   1.6000000000000042E-003    -4.8656665967428125E-006
   1.7000000000000001E-003    -5.1700403673748951E-006
   1.8000000000000030E-003    -5.4915626606089063E-006
   1.8999999999999989E-003    -5.8311757129558828E-006
   2.0000000000000018E-003    -6.1898708736407571E-006
   2.1000000000000046E-003    -6.5686890593497083E-006
   2.2000000000000006E-003    -6.9687239374616183E-006
   2.3000000000000034E-003    -7.3911232902901247E-006
   2.3999999999999994E-003    -7.8370912888203748E-006
   2.5000000000000022E-003    -8.3078875832143240E-006
   2.5999999999999981E-003    -8.8048318502842449E-006
   2.7000000000000010E-003    -9.3293047029874288E-006
   2.8000000000000039E-003    -9.8827513284049928E-006
   2.8999999999999998E-003    -1.0466678759257775E-005
   3.0000000000000027E-003    -1.1082663149863947E-005
   3.0999999999999986E-003    -1.1732347957149614E-005
   3.2000000000000015E-003    -1.2417448488122318E-005
   3.3000000000000043E-003    -1.3139752809365746E-005
   3.4000000000000002E-003    -1.3901127204007935E-005
   3.5000000000000031E-003    -1.4703516171721276E-005
   3.5999999999999990E-003    -1.5548950614174828E-005
   3.7000000000000019E-003    -1.6439542378066108E-005
   3.7999999999999978E-003    -1.7377500626025721E-005
   3.9000000000000007E-003    -1.8365124560659751E-005
   4.0000000000000036E-003    -1.9404815247980878E-005
   4.0999999999999995E-003    -2.0499077436397783E-005
   4.2000000000000023E-003    -2.1650528651662171E-005
   4.2999999999999983E-003    -2.2861897377879359E-005
   4.4000000000000011E-003    -2.4136039428412914E-005
   4.5000000000000040E-003    -2.5475932488916442E-005
   4.5999999999999999E-003    -2.6884694307227619E-005
   4.7000000000000028E-003    -2.8365579055389389E-005
   4.7999999999999987E-003    -2.9921990062575787E-005
   4.9000000000000016E-003    -3.1557483453070745E-005
   5.0000000000000044E-003    -3.3275780879193917E-005
   5.1000000000000004E-003    -3.5080767702311277E-005
   5.2000000000000032E-003    -3.6976507544750348E-005
   5.2999999999999992E-003    -3.8967238651821390E-005
   5.4000000000000020E-003    -4.1057395719690248E-005
   5.4999999999999979E-003    -4.3251606257399544E-005
   5.6000000000000008E-003    -4.5554694224847481E-005
   5.7000000000000037E-003    -4.7971698222681880E-005
   5.7999999999999996E-003    -5.0507867854321375E-005
   5.9000000000000025E-003    -5.3168674639891833E-005
   5.9999999999999984E-003    -5.5959808378247544E-005
   6.1000000000000013E-003    -5.8887198974844068E-005
   6.2000000000000041E-003    -6.1957005527801812E-005
   6.3000000000000000E-003    -6.5175634517800063E-005
   6.4000000000000029E-003    -6.8549736170098186E-005
   6.4999999999999988E-003    -7.2086222644429654E-005
   6.6000000000000017E-003    -7.5792260759044439E-005
   6.7000000000000046E-003    -7.9675279266666621E-005
   6.8000000000000005E-003    -8.3742976130452007E-005
   6.9000000000000034E-003    -8.8003347627818584E-005
   6.9999999999999993E-003    -9.2464644694700837E-005
   7.1000000000000021E-003    -9.7135423857253045E-005
   7.1999999999999981E-003    -1.0202453995589167E-004
   7.3000000000000009E-003    -1.0714114614529535E-004
   7.4000000000000038E-003    -1.1249472299823537E-004
   7.4999999999999997E-003    -1.1809507122961804E-004
   7.6000000000000026E-003    -1.2395231169648468E-004
   7.6999999999999985E-003    -1.3007690722588450E-004
   7.8000000000000014E-003    -1.3647967716678977E-004
   7.9000000000000042E-003    -1.4317181194201112E-004
   8.0000000000000002E-003    -1.5016485122032464E-004
   8.1000000000000030E-003    -1.5747072757221758E-004
   8.1999999999999990E-003    -1.6510178102180362E-004
   8.3000000000000018E-003    -1.7307071539107710E-004
   8.4000000000000047E-003    -1.8139070016331971E-004
   8.5000000000000006E-003    -1.9007528317160904E-004
   8.6000000000000035E-003    -1.9913847791031003E-004
   8.6999999999999994E-003    -2.0859474898315966E-004
   8.8000000000000023E-003    -2.1845901210326701E-004
   8.8999999999999982E-003    -2.2874664864502847E-004
   9.0000000000000011E-003    -2.3947356385178864E-004
   9.1000000000000039E-003    -2.5065612862817943E-004
   9.1999999999999998E-003    -2.6231119409203529E-004
   9.3000000000000027E-003    -2.7445616433396935E-004
   9.3999999999999986E-003    -2.8710896731354296E-004
   9.5000000000000015E-003    -3.0028808396309614E-004
   9.6000000000000044E-003    -3.1401246087625623E-004
   9.7000000000000003E-003    -3.2830168493092060E-004
   9.8000000000000032E-003    -3.4317589597776532E-004
   9.8999999999999991E-003    -3.5865578684024513E-004
   1.0000000000000002E-002    -3.7476263241842389E-004
   1.0100000000000005E-002    -3.9151828968897462E-004
   1.0200000000000001E-002    -4.0894519770517945E-004
   1.0300000000000004E-002    -4.2706646490842104E-004
   1.0400000000000000E-002    -4.4590572360903025E-004
   1.0500000000000002E-002    -4.6548730460926890E-004
   1.0599999999999998E-002    -4.8583612078800797E-004
   1.0700000000000001E-002    -5.0697766710072756E-004
   1.0800000000000004E-002    -5.2893819520249963E-004
   1.0900000000000000E-002    -5.5174442240968347E-004
   1.1000000000000003E-002    -5.7542382273823023E-004
   1.1099999999999999E-002    -6.0000451048836112E-004
   1.1200000000000002E-002    -6.2551518203690648E-004
   1.1300000000000004E-002    -6.5198517404496670E-004
   1.1400000000000000E-002    -6.7944457987323403E-004
   1.1500000000000003E-002    -7.0792413316667080E-004
   1.1599999999999999E-002    -7.3745509143918753E-004
   1.1700000000000002E-002    -7.6806946890428662E-004
   1.1800000000000005E-002    -7.9979992005974054E-004
   1.1900000000000001E-002    -8.3267968147993088E-004
   1.2000000000000004E-002    -8.6674268823117018E-004
   1.2100000000000000E-002    -9.0202351566404104E-004
   1.2200000000000003E-002    -9.3855743762105703E-004
   1.2299999999999998E-002    -9.7638019360601902E-004
   1.2400000000000001E-002    -1.0155282216146588E-003
   1.2500000000000004E-002    -1.0560387745499611E-003
   1.2600000000000000E-002    -1.0979493381455541E-003
   1.2700000000000003E-002    -1.1412984458729625E-003
   1.2799999999999999E-002    -1.1861248640343547E-003
   1.2900000000000002E-002    -1.2324681738391519E-003
   1.3000000000000005E-002    -1.2803683057427406E-003
   1.3100000000000001E-002    -1.3298658886924386E-003
   1.3200000000000003E-002    -1.3810022501274943E-003
   1.3299999999999999E-002    -1.4338189503178000E-003
   1.3400000000000002E-002    -1.4883583644405007E-003
   1.3500000000000005E-002    -1.5446631005033851E-003
   1.3600000000000001E-002    -1.6027764650061727E-003
   1.3700000000000004E-002    -1.6627422301098704E-003
   1.3800000000000000E-002    -1.7246044008061290E-003
   1.3900000000000003E-002    -1.7884076805785298E-003
   1.3999999999999999E-002    -1.8541970057412982E-003
   1.4100000000000001E-002    -1.9220177782699466E-003
   1.4200000000000004E-002    -1.9919157493859529E-003
   1.4300000000000000E-002    -2.0639370195567608E-003
   1.4400000000000003E-002    -2.1381278056651354E-003
   1.4499999999999999E-002    -2.2145346738398075E-003