  -4.0000000000000001E-002     0.0000000000000000
  -3.9899999999999998E-002     0.0000000000000000
  -3.9800000000000002E-002     0.0000000000000000
  -3.9699999999999999E-002     0.0000000000000000
  -3.9600000000000003E-002     0.0000000000000000
  -3.9500000000000000E-002     0.0000000000000000
  -3.9399999999999998E-002     0.0000000000000000
  -3.9300000000000002E-002     0.0000000000000000
  -3.9199999999999999E-002     0.0000000000000000
  -3.9100000000000003E-002     0.0000000000000000
  -3.9000000000000000E-002     4.0637655465419695E-044
  -3.8900000000000004E-002     3.9516616693959841E-043
  -3.8800000000000001E-002     3.2734332126627727E-042
  -3.8699999999999998E-002    -2.0793867912115961E-041
  -3.8600000000000002E-002    -1.3594136532261483E-040
  -3.8500000000000000E-002    -1.1814207222876100E-039
  -3.8400000000000004E-002    -4.2791759490749090E-039
  -3.8300000000000001E-002    -1.0849110549720170E-038
  -3.8199999999999998E-002     4.3230057624420607E-038
  -3.8100000000000002E-002     1.2671158406788070E-037
  -3.7999999999999999E-002     1.2219771024420989E-037
  -3.7900000000000003E-002     5.3679605293139512E-037
  -3.7800000000000000E-002    -3.1998327573691017E-037
  -3.7699999999999997E-002     5.6612318053083931E-036
  -3.7600000000000001E-002     2.6208180345404318E-035
  -3.7499999999999999E-002     8.7677334124638626E-035
  -3.7400000000000003E-002     2.0425500042483457E-034
  -3.7300000000000000E-002     3.7171326241358907E-034
  -3.7200000000000004E-002     4.5749987586388995E-034
  -3.7100000000000001E-002     3.3388381086433834E-034
  -3.6999999999999998E-002     6.6326648855548506E-034
  -3.6900000000000002E-002     1.7593043548421459E-033
  -3.6799999999999999E-002     4.5944494248896659E-033
  -3.6700000000000003E-002     1.4384229028056688E-032
  -3.6600000000000001E-002     2.2574073025020250E-032
  -3.6499999999999998E-002     2.4402923299076889E-032
  -3.6400000000000002E-002     3.2526345987747237E-032
  -3.6299999999999999E-002     4.4295086860912889E-032
  -3.6200000000000003E-002     7.7542143128828656E-032
  -3.6100000000000000E-002     1.7451524314158025E-031
  -3.6000000000000004E-002     2.2185297664142567E-031
  -3.5900000000000001E-002     2.1597637475313384E-031
  -3.5799999999999998E-002     3.0270260822516300E-031
  -3.5700000000000003E-002     2.7946658788257182E-031
  -3.5600000000000000E-002     1.4518997986010525E-032
  -3.5500000000000004E-002    -3.6003868525008001E-031
  -3.5400000000000001E-002    -1.2351478679400766E-030
  -3.5299999999999998E-002    -2.2136512767792481E-030
  -3.5200000000000002E-002    -3.3402798572401128E-030
  -3.5099999999999999E-002    -3.5836293811936698E-030
  -3.5000000000000003E-002    -2.3827706834670793E-030
  -3.4900000000000000E-002    -1.3077527937361296E-030
  -3.4799999999999998E-002     5.7584341431810678E-031
  -3.4700000000000002E-002     8.2719360673014008E-030
  -3.4599999999999999E-002     1.5489115535700365E-029
  -3.4500000000000003E-002     2.5771310947879704E-029
  -3.4400000000000000E-002     4.1941861122989038E-029
  -3.4299999999999997E-002     4.0459039510556695E-029
  -3.4200000000000001E-002     8.5459114884893606E-029
  -3.4099999999999998E-002     9.8984722272799649E-029
  -3.4000000000000002E-002     8.0178907108457570E-029
  -3.3900000000000000E-002     1.2228534496372557E-028
  -3.3799999999999997E-002     1.4869954637336943E-028
  -3.3700000000000001E-002     3.0622702598107524E-028
  -3.3599999999999998E-002     6.8771332750947883E-028
  -3.3500000000000002E-002     1.0224413481431901E-027
  -3.3399999999999999E-002     1.2893532828338950E-027
  -3.3300000000000003E-002     1.4751009444712830E-027
  -3.3200000000000000E-002     1.4702752381061291E-027
  -3.3099999999999997E-002     9.7026598001979550E-028
  -3.3000000000000002E-002     4.1298500613947836E-028
  -3.2899999999999999E-002     1.8430816141164225E-028
  -3.2800000000000003E-002    -6.3787339018489680E-028
  -3.2700000000000000E-002    -1.1628388484906002E-027
  -3.2600000000000004E-002    -6.1708581718190456E-028
  -3.2500000000000001E-002    -4.0939841902641893E-029
  -3.2399999999999998E-002    -5.1499048934473863E-028
  -3.2300000000000002E-002    -4.2845003099991343E-028
  -3.2199999999999999E-002     1.8907314561306203E-027
  -3.2100000000000004E-002     4.3719472554205339E-027
  -3.2000000000000001E-002     3.5374414253315558E-027
  -3.1899999999999998E-002    -2.4999595272876735E-027
  -3.1800000000000002E-002    -3.0921205850565504E-027
  -3.1699999999999999E-002     1.8411033229516722E-027
  -3.1600000000000003E-002     5.1263820665891267E-028
  -3.1500000000000000E-002    -5.9525964793780261E-027
  -3.1399999999999997E-002     2.6522888377160431E-027
  -3.1300000000000001E-002     2.4176702415166423E-026
  -3.1199999999999999E-002     6.5750428625595901E-026
  -3.1100000000000003E-002     1.0563718965690584E-025
  -3.1000000000000000E-002     1.3230346159249596E-025
  -3.0900000000000000E-002     1.6513967351280414E-025
  -3.0800000000000001E-002     2.2360299336344512E-025
  -3.0699999999999998E-002     2.5521679135540347E-025
  -3.0600000000000002E-002     2.8508787234821217E-025
  -3.0499999999999999E-002     2.9927104908221362E-025
  -3.0400000000000000E-002     2.3994306372374055E-025
  -3.0300000000000001E-002     2.0376044221372662E-025
  -3.0200000000000001E-002     1.3045820500161922E-025
  -3.0100000000000002E-002    -7.7443946476024241E-027
  -2.9999999999999999E-002    -1.2348648651435715E-025
  -2.9899999999999999E-002    -2.4711306979510090E-025
  -2.9800000000000000E-002    -6.3609473687372883E-025
  -2.9700000000000001E-002    -8.2429722733683172E-025
  -2.9600000000000001E-002    -8.2781613861979635E-025
  -2.9499999999999998E-002    -1.2120395199776476E-024
  -2.9400000000000003E-002    -1.5465935563372288E-024
  -2.9300000000000000E-002    -1.3358165291722557E-024
  -2.9200000000000000E-002    -9.0867181760700809E-025
  -2.9100000000000001E-002    -1.0363803123380114E-024
  -2.8999999999999998E-002    -1.1962743320020320E-024
  -2.8900000000000002E-002    -1.3413723779201141E-024
  -2.8799999999999999E-002    -1.8369807497276828E-024
  -2.8700000000000000E-002    -1.7224401184418550E-024
  -2.8600000000000000E-002    -1.3193318014434653E-024
  -2.8500000000000001E-002    -8.0664005508765666E-025
  -2.8400000000000002E-002    -7.9027188155761274E-025
  -2.8299999999999999E-002    -8.1312320982960240E-025
  -2.8200000000000003E-002     5.5329377619804865E-025
  -2.8100000000000000E-002     1.4107236052884221E-024
  -2.8000000000000001E-002     5.9627525704946809E-025
  -2.7900000000000001E-002     1.6726276937969005E-024
  -2.7799999999999998E-002     3.8922614000353658E-024
  -2.7700000000000002E-002     5.5032033264876041E-024
  -2.7600000000000000E-002     6.8299222186627853E-024
  -2.7500000000000000E-002     7.6459010063616746E-024
  -2.7400000000000001E-002     7.8751116421217865E-024
  -2.7299999999999998E-002     9.1807285050823057E-024
  -2.7200000000000002E-002     1.0904601786573721E-023
  -2.7099999999999999E-002     8.3772255525994867E-024
  -2.7000000000000000E-002     7.6472610025622756E-024
  -2.6900000000000000E-002     9.6375744213748032E-024
  -2.6800000000000001E-002     9.3262181218322169E-024
  -2.6700000000000002E-002    -4.0038631300187928E-024
  -2.6599999999999999E-002    -2.6509654942733997E-023
  -2.6500000000000003E-002    -3.2864882478262754E-023
  -2.6400000000000000E-002    -5.3288046396884205E-023
  -2.6300000000000000E-002    -7.6658391501967736E-023
  -2.6200000000000001E-002    -7.7185274856008470E-023
  -2.6099999999999998E-002    -8.7718549559302893E-023
  -2.6000000000000002E-002    -1.0369398632109982E-022
  -2.5899999999999999E-002    -1.2955164772566865E-022
  -2.5800000000000000E-002    -1.5836325874326636E-022
  -2.5700000000000001E-002    -1.7294054999108578E-022
  -2.5599999999999998E-002    -1.6972561994706083E-022
  -2.5500000000000002E-002    -1.6105634152126951E-022
  -2.5399999999999999E-002    -1.4855964882286517E-022
  -2.5300000000000000E-002    -1.3555504329746884E-022
  -2.5200000000000000E-002    -1.4411039758677176E-022
  -2.5100000000000001E-002    -1.6952671340297478E-022
  -2.5000000000000001E-002    -2.1539373700516595E-022
  -2.4899999999999999E-002    -2.6898336808155977E-022
  -2.4800000000000003E-002    -3.0230818486655896E-022
  -2.4700000000000000E-002    -3.3967603369767343E-022
  -2.4600000000000000E-002    -5.5733964538240956E-022
  -2.4500000000000001E-002    -8.0541163615288107E-022
  -2.4399999999999998E-002    -8.1374170438942735E-022
  -2.4299999999999999E-002    -7.7454266327269248E-022
  -2.4199999999999999E-002    -7.7547647263608243E-022
  -2.4100000000000000E-002    -6.1935264485233196E-022
  -2.4000000000000000E-002    -3.2384078067417789E-022
  -2.3900000000000001E-002    -1.4080336645434044E-022
  -2.3800000000000002E-002    -1.0036278449053253E-022
  -2.3699999999999999E-002    -9.3967489131905792E-023
  -2.3599999999999999E-002    -3.6781090934367462E-023
  -2.3500000000000000E-002     4.7923307880785519E-024
  -2.3400000000000001E-002     5.2098691538590797E-022
  -2.3300000000000001E-002     1.1808977645184599E-021
  -2.3199999999999998E-002     1.3288936239186945E-021
  -2.3099999999999999E-002     1.5802042610474455E-021
  -2.3000000000000000E-002     1.3605235888260444E-021
  -2.2900000000000000E-002     1.2082882268380839E-021
  -2.2800000000000001E-002     1.3437839856608035E-021
  -2.2700000000000001E-002     7.3335559170060480E-022
  -2.2599999999999999E-002     3.1736164517854426E-022
  -2.2499999999999999E-002     6.8675822173969829E-022
  -2.2400000000000000E-002     7.8582703453195318E-022
  -2.2300000000000000E-002     8.8886783140175552E-023
  -2.2200000000000001E-002    -1.5027292849126037E-021
  -2.2100000000000002E-002    -2.6664417461652600E-021
  -2.1999999999999999E-002    -3.7865485009321956E-021
  -2.1899999999999999E-002    -6.1253318087823405E-021
  -2.1800000000000000E-002    -8.8602748533214316E-021
  -2.1700000000000001E-002    -1.4004518352930813E-020
  -2.1600000000000001E-002    -1.7477232590755829E-020
  -2.1499999999999998E-002    -1.6063354741703960E-020
  -2.1399999999999999E-002    -1.5292357787319183E-020
  -2.1299999999999999E-002    -1.5984785508208494E-020
  -2.1200000000000000E-002    -1.7300047918607557E-020
  -2.1100000000000001E-002    -1.6580639892582239E-020
  -2.1000000000000001E-002    -1.3127277965240555E-020
  -2.0899999999999998E-002    -1.2364947020241978E-020
  -2.0799999999999999E-002    -1.0209214177526487E-020
  -2.0700000000000000E-002    -1.8659425551284692E-021
  -2.0600000000000000E-002     4.9764970874973096E-021
  -2.0500000000000001E-002     8.6375265850295519E-021
  -2.0400000000000001E-002     1.4434468094525124E-020
  -2.0299999999999999E-002     1.7492171924982935E-020
  -2.0199999999999999E-002     1.8199833016957719E-020
  -2.0100000000000000E-002     2.3797333525948514E-020
  -2.0000000000000000E-002     3.4589093688833305E-020
  -1.9900000000000001E-002     4.7855674846900185E-020
  -1.9799999999999998E-002     5.6966927122504003E-020
  -1.9699999999999999E-002     6.3228606811347995E-020
  -1.9599999999999999E-002     7.3956111842743608E-020
  -1.9500000000000000E-002     8.9871570891449635E-020
  -1.9400000000000001E-002     1.0478954705664474E-019
  -1.9300000000000001E-002     1.0927212280660056E-019
  -1.9199999999999998E-002     1.0686244874700556E-019
  -1.9099999999999999E-002     1.0813447804570166E-019
  -1.9000000000000000E-002     1.0210818293991729E-019
  -1.8900000000000000E-002     8.5184655680799076E-020
  -1.8800000000000001E-002     7.5666521016698667E-020
  -1.8700000000000001E-002     7.3169249822704005E-020
  -1.8599999999999998E-002     6.6766077012673696E-020
  -1.8499999999999999E-002     5.7470124353574737E-020
  -1.8400000000000000E-002     3.5982621602346662E-020
  -1.8300000000000000E-002     1.0591052542067042E-020
  -1.8200000000000001E-002    -1.1229628704815876E-020
  -1.8100000000000002E-002    -6.5516698245594774E-020
  -1.7999999999999999E-002    -1.1237279640805852E-019
  -1.7899999999999999E-002    -1.3196230739438953E-019
  -1.7800000000000000E-002    -1.7940430792448224E-019
  -1.7700000000000000E-002    -2.3450919332699255E-019
  -1.7600000000000001E-002    -3.0403599855875905E-019
  -1.7499999999999998E-002    -3.8086375837085999E-019
  -1.7399999999999999E-002    -4.4842768985843230E-019
  -1.7299999999999999E-002    -4.9431910155620314E-019
  -1.7200000000000000E-002    -5.1916734866335467E-019
  -1.7100000000000001E-002    -5.3333571178546921E-019
  -1.7000000000000001E-002    -5.2230510322070973E-019
  -1.6899999999999998E-002    -5.4465030179427579E-019
  -1.6799999999999999E-002    -5.9109494222547976E-019
  -1.6700000000000000E-002    -5.9216784717874932E-019
  -1.6600000000000000E-002    -5.5474206036378759E-019
  -1.6500000000000001E-002    -4.9350308788191958E-019
  -1.6400000000000001E-002    -4.1111088408917442E-019
  -1.6299999999999999E-002    -3.4598227572253480E-019
  -1.6199999999999999E-002    -2.3159881004051301E-019
  -1.6100000000000000E-002    -8.7086124189208277E-020
  -1.6000000000000000E-002     1.4956885965727779E-020
  -1.5900000000000001E-002     3.3199385023304469E-020
  -1.5799999999999998E-002     2.4064394522045584E-021
  -1.5699999999999999E-002    -5.8314346179216064E-020
  -1.5599999999999999E-002    -2.7558106303511733E-019
  -1.5500000000000000E-002    -4.4482857531442579E-019
  -1.5400000000000000E-002    -4.2432910103080109E-019
  -1.5300000000000001E-002    -3.8828811795882969E-019
  -1.5199999999999998E-002    -4.7921876437768277E-019
  -1.5099999999999999E-002    -5.7394971117515173E-019
  -1.4999999999999999E-002    -4.9564083277748631E-019
  -1.4900000000000000E-002    -3.2517051490827719E-019
  -1.4800000000000001E-002    -3.9872270411815350E-020
  -1.4700000000000001E-002     4.3043260827688846E-019
  -1.4599999999999998E-002     8.5872431803212483E-019
  -1.4499999999999999E-002     1.3163361425329451E-018
  -1.4400000000000000E-002     1.8431261156373408E-018
  -1.4300000000000000E-002     2.1887318949341932E-018
  -1.4200000000000001E-002     2.6026224677730638E-018
  -1.4099999999999998E-002     3.0913956335148286E-018
  -1.3999999999999999E-002     3.3216707219307095E-018
  -1.3899999999999999E-002     3.5474724175939036E-018
  -1.3800000000000000E-002     3.7332749675564835E-018
  -1.3700000000000000E-002     3.8398712515543546E-018
  -1.3600000000000001E-002     3.9486852067744802E-018
  -1.3499999999999998E-002     3.8342286390058241E-018
  -1.3399999999999999E-002     3.3903569048649690E-018
  -1.3299999999999999E-002     2.4842173533503858E-018
  -1.3200000000000000E-002     1.3131691781602093E-018
  -1.3100000000000001E-002     2.9948830172261029E-020
  -1.3000000000000001E-002    -1.3965162068737821E-018
  -1.2899999999999998E-002    -2.8802160095397344E-018
  -1.2799999999999999E-002    -3.3605914309077077E-018
  -1.2699999999999999E-002    -3.6643480750639711E-018
  -1.2600000000000000E-002    -4.9143097976795893E-018
  -1.2500000000000001E-002    -5.9758037943989818E-018
  -1.2399999999999998E-002    -6.7959235932432568E-018
  -1.2299999999999998E-002    -7.4597463745747184E-018
  -1.2199999999999999E-002    -8.1384745369540793E-018
  -1.2100000000000000E-002    -9.0956217673514387E-018
  -1.2000000000000000E-002    -9.8528626047518828E-018
  -1.1900000000000001E-002    -1.0182857211143175E-017
  -1.1799999999999998E-002    -1.0214900533712254E-017
  -1.1699999999999999E-002    -9.9544883604489227E-018
  -1.1599999999999999E-002    -9.8549727424945056E-018
  -1.1500000000000000E-002    -9.6669124030499622E-018
  -1.1400000000000000E-002    -8.7678299429313751E-018
  -1.1300000000000001E-002    -8.2477235891764079E-018
  -1.1199999999999998E-002    -8.3210895464261861E-018
  -1.1099999999999999E-002    -8.2691665921956200E-018
  -1.0999999999999999E-002    -8.2334150189404656E-018
  -1.0900000000000000E-002    -8.7479776082301024E-018
  -1.0800000000000001E-002    -9.0936299164364110E-018
  -1.0699999999999998E-002    -8.9573411571703365E-018
  -1.0599999999999998E-002    -9.5100739958262328E-018
  -1.0499999999999999E-002    -9.1685079598459362E-018
  -1.0400000000000000E-002    -8.7719741178002658E-018
  -1.0300000000000000E-002    -8.3929607883090811E-018
  -1.0200000000000001E-002    -7.5904855791111747E-018
  -1.0099999999999998E-002    -6.1452658049508829E-018
  -9.9999999999999985E-003    -5.1665564575261037E-018
  -9.8999999999999991E-003    -5.0138647067131027E-018
  -9.7999999999999997E-003    -3.4835636162874442E-018
  -9.7000000000000003E-003    -1.6781165081300829E-018
  -9.6000000000000009E-003    -5.1721525411651781E-019
  -9.4999999999999980E-003     1.2627878817962889E-018
  -9.3999999999999986E-003     4.2760142236418204E-018
  -9.2999999999999992E-003     9.6098973249685196E-018
  -9.1999999999999998E-003     1.7525063702215946E-017
  -9.1000000000000004E-003     2.6655546169302819E-017
  -9.0000000000000011E-003     3.4246084687973197E-017
  -8.8999999999999982E-003     4.1245885554743930E-017
  -8.7999999999999988E-003     4.8871527964249834E-017
  -8.6999999999999994E-003     5.4668317052792846E-017
  -8.5999999999999965E-003     5.9594108117374671E-017
  -8.5000000000000006E-003     6.2140236217261895E-017
  -8.3999999999999977E-003     6.1122724654482865E-017
  -8.3000000000000018E-003     5.9901051681635948E-017
  -8.1999999999999990E-003     5.5798593185397554E-017
  -8.0999999999999961E-003     4.7739309611566851E-017
  -8.0000000000000002E-003     3.5843370450813094E-017
  -7.8999999999999973E-003     2.3591270479351154E-017
  -7.8000000000000014E-003     1.0201520060123597E-017
  -7.6999999999999985E-003    -1.2696747601017369E-017
  -7.6000000000000026E-003    -3.6939758648082730E-017
  -7.4999999999999997E-003    -5.5441065872317434E-017
  -7.3999999999999969E-003    -7.4664286704351668E-017
  -7.3000000000000009E-003    -9.6042332884421240E-017
  -7.1999999999999981E-003    -1.1503040942936380E-016
  -7.1000000000000021E-003    -1.3321420833855370E-016
  -6.9999999999999993E-003    -1.5863096716813588E-016
  -6.8999999999999964E-003    -1.8931879879359177E-016
  -6.8000000000000005E-003    -2.1627509294436784E-016
  -6.6999999999999976E-003    -2.4025422510422266E-016
  -6.6000000000000017E-003    -2.6041339749063820E-016
  -6.4999999999999988E-003    -2.7758135243316398E-016
  -6.3999999999999960E-003    -2.9118578682703171E-016
  -6.3000000000000000E-003    -2.9599243410490385E-016
  -6.1999999999999972E-003    -2.9859356640680340E-016
  -6.1000000000000013E-003    -2.8433871658856277E-016
  -5.9999999999999984E-003    -2.5719795454374247E-016
  -5.9000000000000025E-003    -2.3058555576955164E-016
  -5.7999999999999996E-003    -1.8998141678636105E-016
  -5.6999999999999967E-003    -1.3881697394261627E-016
  -5.6000000000000008E-003    -7.2543084593855385E-017
  -5.4999999999999979E-003     1.5051297362314861E-017
  -5.4000000000000020E-003     1.0416433329229571E-016
  -5.2999999999999992E-003     1.9911850677218100E-016
  -5.1999999999999963E-003     3.0485120759310175E-016
  -5.1000000000000004E-003     4.1605424571073779E-016
  -4.9999999999999975E-003     5.3439816862042161E-016
  -4.9000000000000016E-003     6.4554207325042746E-016
  -4.7999999999999987E-003     7.4720402637107265E-016
  -4.6999999999999958E-003     8.4004460780209714E-016
  -4.5999999999999999E-003     9.2875098023625100E-016
  -4.4999999999999971E-003     1.0005394577357763E-015
  -4.4000000000000011E-003     1.0469978384641354E-015
  -4.2999999999999983E-003     1.0788910641479832E-015
  -4.2000000000000023E-003     1.0884830770009277E-015
  -4.0999999999999995E-003     1.0586893283559681E-015
  -3.9999999999999966E-003     9.7367623133007980E-016
  -3.9000000000000007E-003     8.3674837908785703E-016
  -3.7999999999999978E-003     6.8247869192090494E-016
  -3.7000000000000019E-003     5.1527555280320853E-016
  -3.5999999999999990E-003     3.1316210958310373E-016
  -3.4999999999999962E-003     7.6877008077820818E-017
  -3.4000000000000002E-003    -1.9902318909583529E-016
  -3.2999999999999974E-003    -4.8939970211621451E-016
  -3.2000000000000015E-003    -7.9437142661584279E-016
  -3.0999999999999986E-003    -1.1304625592624428E-015
  -2.9999999999999957E-003    -1.4944412987853250E-015
  -2.8999999999999998E-003    -1.8633401350614523E-015
  -2.7999999999999969E-003    -2.1755691849135962E-015
  -2.7000000000000010E-003    -2.4235207160468739E-015
  -2.5999999999999981E-003    -2.6459623676659307E-015
  -2.5000000000000022E-003    -2.8567765862597908E-015
  -2.3999999999999994E-003    -3.0267763105319657E-015
  -2.2999999999999965E-003    -3.1006083608958604E-015
  -2.2000000000000006E-003    -3.0852406421338257E-015
  -2.0999999999999977E-003    -3.0048207930226606E-015
  -2.0000000000000018E-003    -2.8270512355253220E-015
  -1.8999999999999989E-003    -2.5404807194696422E-015
  -1.7999999999999960E-003    -2.1140504525039372E-015
  -1.7000000000000001E-003    -1.6312546957005501E-015
  -1.5999999999999973E-003    -1.1335263833117800E-015
  -1.5000000000000013E-003    -4.9848375989860246E-016
  -1.3999999999999985E-003     1.7020814731675865E-016
  -1.2999999999999956E-003     8.2367368439315806E-016
  -1.1999999999999997E-003     1.5396979515197671E-015
  -1.0999999999999968E-003     2.3067908938275219E-015
  -1.0000000000000009E-003     3.0997388815755039E-015
  -8.9999999999999802E-004     3.8404727938394154E-015
  -8.0000000000000210E-004     4.4797789575925975E-015
  -6.9999999999999923E-004     5.0140191545683561E-015
  -5.9999999999999637E-004     5.4582701477113443E-015
  -5.0000000000000044E-004     5.8296547080503077E-015
  -3.9999999999999758E-004     6.0973857290513942E-015
  -3.0000000000000165E-004     6.1396518260864365E-015
  -1.9999999999999879E-004     5.9446127491022405E-015
  -9.9999999999995925E-005     5.6101346848245678E-015
   0.0000000000000000          5.0967497095596309E-015
   1.0000000000000286E-004     4.3759970927632116E-015
   1.9999999999999879E-004     3.4989292042322210E-015
   3.0000000000000165E-004     2.4581171415027653E-015
   4.0000000000000452E-004     1.3537365266312953E-015
   5.0000000000000044E-004     2.6615876903230491E-016
   6.0000000000000331E-004    -8.3116902600385216E-016
   6.9999999999999923E-004    -1.9780379252403411E-015
   8.0000000000000210E-004    -3.0558382227104976E-015
   8.9999999999999802E-004    -4.0058322598682944E-015
   1.0000000000000009E-003    -4.8923106844432802E-015
   1.1000000000000038E-003    -5.5784010189721591E-015
   1.1999999999999997E-003    -5.9529886344011646E-015
   1.3000000000000025E-003    -6.1037215354968564E-015
   1.3999999999999985E-003    -6.1052351833735998E-015
   1.5000000000000013E-003    -5.8401456346185258E-015
   1.6000000000000042E-003    -5.3892678792126936E-015
   1.7000000000000001E-003    -4.6556928776607387E-015
   1.8000000000000030E-003    -3.5578555923068082E-015
   1.8999999999999989E-003    -2.2621810566274270E-015
   2.0000000000000018E-003    -8.8168495924735536E-016
   2.1000000000000046E-003     5.4955508205770847E-016
   2.2000000000000006E-003     1.9727162289909792E-015
   2.3000000000000034E-003     3.2581783001835521E-015
   2.3999999999999994E-003     4.2559373722699662E-015
   2.5000000000000022E-003     4.8020995579783291E-015
   2.5999999999999981E-003     5.0227766282100184E-015
   2.7000000000000010E-003     4.8352104994029733E-015
   2.8000000000000039E-003     3.9273080704930845E-015
   2.8999999999999998E-003     2.3979509089516347E-015
   3.0000000000000027E-003     4.7906388845646232E-016
   3.0999999999999986E-003    -2.0987007331920316E-015
   3.2000000000000015E-003    -5.4030385173526804E-015
   3.3000000000000043E-003    -9.0489131148569456E-015
   3.4000000000000002E-003    -1.3100067566633976E-014
   3.5000000000000031E-003    -1.7345156140915509E-014
   3.5999999999999990E-003    -2.1281194579995943E-014
   3.7000000000000019E-003    -2.5303610050905583E-014
   3.7999999999999978E-003    -2.9189422824345626E-014
   3.9000000000000007E-003    -3.2373683947354084E-014
   4.0000000000000036E-003    -3.4433613864967919E-014
   4.0999999999999995E-003    -3.5488034359027962E-014
   4.2000000000000023E-003    -3.5382311094683469E-014
   4.2999999999999983E-003    -3.3479292336482600E-014
   4.4000000000000011E-003    -2.9775058015945460E-014
   4.5000000000000040E-003    -2.4053524946029796E-014
   4.5999999999999999E-003    -1.6328943609040213E-014
   4.7000000000000028E-003    -6.6486724640906457E-015
   4.7999999999999987E-003     4.8830733666369985E-015
   4.9000000000000016E-003     1.7987503576465808E-014
   5.0000000000000044E-003     3.2574135988387709E-014
   5.1000000000000004E-003     4.8291005119412492E-014
   5.2000000000000032E-003     6.4179198522480718E-014
   5.2999999999999992E-003     7.9985578707239546E-014
   5.4000000000000020E-003     9.5387998715057432E-014
   5.4999999999999979E-003     1.0936022053209538E-013
   5.6000000000000008E-003     1.2083628368741994E-013
   5.7000000000000037E-003     1.2935518541729030E-013
   5.7999999999999996E-003     1.3468978536657072E-013
   5.9000000000000025E-003     1.3521031082958102E-013
   5.9999999999999984E-003     1.3076634230741596E-013
   6.1000000000000013E-003     1.2138108172656675E-013
   6.2000000000000041E-003     1.0582472533904666E-013
   6.3000000000000000E-003     8.4740320229620414E-014
   6.4000000000000029E-003     5.8351808357014895E-014
   6.4999999999999988E-003     2.6962762941394255E-014
   6.6000000000000017E-003    -8.7311097411789211E-015
   6.7000000000000046E-003    -4.7921004187392868E-014
   6.8000000000000005E-003    -8.9428173254222504E-014
   6.9000000000000034E-003    -1.3233862519290013E-013
   6.9999999999999993E-003    -1.7507504235410309E-013
   7.1000000000000021E-003    -2.1573326079108585E-013
   7.1999999999999981E-003    -2.5293900004011438E-013
   7.3000000000000009E-003    -2.8516219333779569E-013
   7.4000000000000038E-003    -3.1047348936566466E-013
   7.4999999999999997E-003    -3.2741867485482079E-013
   7.6000000000000026E-003    -3.3428012961855824E-013
   7.6999999999999985E-003    -3.2932266939497690E-013
   7.8000000000000014E-003    -3.1299206390729417E-013
   7.9000000000000042E-003    -2.8484991600706555E-013
   8.0000000000000002E-003    -2.4345645941933891E-013
   8.1000000000000030E-003    -1.8903070298295632E-013
   8.1999999999999990E-003    -1.2351805776106284E-013
   8.3000000000000018E-003    -4.8976017604515990E-014
   8.4000000000000047E-003     3.4512516678070551E-014
   8.5000000000000006E-003     1.2401435130551808E-013
   8.6000000000000035E-003     2.1541172708430811E-013
   8.6999999999999994E-003     3.0676717134407727E-013
   8.8000000000000023E-003     3.9420650446188310E-013
   8.8999999999999982E-003     4.7251829185523953E-013
   9.0000000000000011E-003     5.3786483730430823E-013
   9.1000000000000039E-003     5.8865846225275575E-013
   9.1999999999999998E-003     6.2222357257932237E-013
   9.3000000000000027E-003     6.3427447972649875E-013
   9.3999999999999986E-003     6.2166060060125927E-013
   9.5000000000000015E-003     5.8324601658749087E-013
   9.6000000000000044E-003     5.1869332396911605E-013
   9.7000000000000003E-003     4.2835122926986047E-013
   9.8000000000000032E-003     3.1432956281232660E-013
   9.8999999999999991E-003     1.7847671311774921E-013
   1.0000000000000002E-002     2.2726657998551301E-014
   1.0100000000000005E-002    -1.4857970268618986E-013
   1.0200000000000001E-002    -3.2750324262427466E-013
   1.0300000000000004E-002    -5.0657102210888150E-013
   1.0400000000000000E-002    -6.8097144676620980E-013
   1.0500000000000002E-002    -8.4334660565774100E-013
   1.0599999999999998E-002    -9.8652498930346111E-013
   1.0700000000000001E-002    -1.1017469488810994E-012
   1.0800000000000004E-002    -1.1796841715289164E-012
   1.0900000000000000E-002    -1.2152688794522803E-012
   1.1000000000000003E-002    -1.2034929259760463E-012
   1.1099999999999999E-002    -1.1426591010194054E-012
   1.1200000000000002E-002    -1.0277181666448754E-012
   1.1300000000000004E-002    -8.5692661733888231E-013
   1.1400000000000000E-002    -6.3450584847010716E-013
   1.1500000000000003E-002    -3.6295407868439100E-013
   1.1599999999999999E-002    -5.0310538341705874E-014
   1.1700000000000002E-002     2.9549702528636201E-013
   1.1800000000000005E-002     6.6496363537033032E-013
   1.1900000000000001E-002     1.0453801452953160E-012
   1.2000000000000004E-002     1.4226055229660250E-012
   1.2100000000000000E-002     1.7806879018186783E-012
   1.2200000000000003E-002     2.1046220322062936E-012
   1.2299999999999998E-002     2.3779958037428717E-012
   1.2400000000000001E-002     2.5841696404266257E-012
   1.2500000000000004E-002     2.7081156327851685E-012
   1.2600000000000000E-002     2.7356749678075776E-012
   1.2700000000000003E-002     2.6571676716574677E-012
   1.2799999999999999E-002     2.4668741441941089E-012
   1.2900000000000002E-002     2.1596476777047124E-012
   1.3000000000000005E-002     1.7347292222483213E-012
   1.3100000000000001E-002     1.1952179697349852E-012
   1.3200000000000003E-002     5.5288553683224828E-013
   1.3299999999999999E-002    -1.7331314606117837E-013
   1.3400000000000002E-002    -9.6931739978350917E-013
   1.3500000000000005E-002    -1.8122389439795272E-012
   1.3600000000000001E-002    -2.6697765092426051E-012
   1.3700000000000004E-002    -3.5151157158630486E-012
   1.3800000000000000E-002    -4.3132129812217812E-012
   1.3900000000000003E-002    -5.0258603702391103E-012
   1.3999999999999999E-002    -5.6221325338279282E-012
   1.4100000000000001E-002    -6.0658674264080226E-012
   1.4200000000000004E-002    -6.3254969838444364E-012
   1.4300000000000000E-002    -6.3779320366719183E-012
   1.4400000000000003E-002    -6.1992104158359318E-012
   1.4499999999999999E-002    -5.7726813780523134E-012