  -4.0000000000000001E-002     0.0000000000000000
  -3.9899999999999998E-002     0.0000000000000000
  -3.9800000000000002E-002    -5.6906624257914560E-014
  -3.9699999999999999E-002    -3.1042979305301431E-013
  -3.9600000000000003E-002    -1.0303370600527078E-012
  -3.9500000000000000E-002    -2.6818430977459142E-012
  -3.9399999999999998E-002    -6.0037732292654221E-012
  -3.9300000000000002E-002    -1.2092324102094498E-011
  -3.9199999999999999E-002    -2.2481897034405982E-011
  -3.9100000000000003E-002    -3.9213691791410703E-011
  -3.9000000000000000E-002    -6.4882628856452161E-011
  -3.8900000000000004E-002    -1.0265371230943842E-010
  -3.8800000000000001E-002    -1.5624017605120736E-010
  -3.8699999999999998E-002    -2.2983767189634864E-010
  -3.8600000000000002E-002    -3.2801116397632833E-010
  -3.8500000000000000E-002    -4.5553394825112728E-010
  -3.8400000000000004E-002    -6.1718165627034631E-010
  -3.8300000000000001E-002    -8.1748698202908555E-010
  -3.8199999999999998E-002    -1.0604642574722885E-009
  -3.8100000000000002E-002    -1.3493157851016731E-009
  -3.7999999999999999E-002    -1.6861344247962390E-009
  -3.7900000000000003E-002    -2.0716183258676490E-009
  -3.7800000000000000E-002    -2.5048148918740648E-009
  -3.7699999999999997E-002    -2.9829121053756688E-009
  -3.7600000000000001E-002    -3.5010915936622051E-009
  -3.7499999999999999E-002    -4.0524604306023996E-009
  -3.7400000000000003E-002    -4.6280718854111842E-009
  -3.7300000000000000E-002    -5.2170439958214116E-009
  -3.7200000000000004E-002    -5.8067802493142199E-009
  -3.7100000000000001E-002    -6.3832907628314085E-009
  -3.6999999999999998E-002    -6.9316105270006091E-009
  -3.6900000000000002E-002    -7.4362994460319814E-009
  -3.6799999999999999E-002    -7.8820130019821910E-009
  -3.6700000000000003E-002    -8.2541212619815114E-009
  -3.6600000000000001E-002    -8.5393518208073057E-009
  -3.6499999999999998E-002    -8.7264279406206782E-009
  -3.6400000000000002E-002    -8.8066807009688269E-009
  -3.6299999999999999E-002    -8.7745963062693437E-009
  -3.6200000000000003E-002    -8.6282773222051063E-009
  -3.6100000000000000E-002    -8.3697884339982649E-009
  -3.6000000000000004E-002    -8.0053710967598926E-009
  -3.5900000000000001E-002    -7.5454990266420178E-009
  -3.5799999999999998E-002    -7.0047745223500047E-009
  -3.5700000000000003E-002    -6.4016551089151236E-009
  -3.5600000000000000E-002    -5.7580132996554167E-009
  -3.5500000000000004E-002    -5.0985447039004894E-009
  -3.5400000000000001E-002    -4.4500389002601228E-009
  -3.5299999999999998E-002    -3.8405337586219009E-009
  -3.5200000000000002E-002    -3.2984024300684024E-009
  -3.5099999999999999E-002    -2.8513758320340143E-009
  -3.5000000000000003E-002    -2.5255834606122634E-009
  -3.4900000000000000E-002    -2.3446152867901327E-009
  -3.4799999999999998E-002    -2.3286655245778668E-009
  -3.4700000000000002E-002    -2.4937944068796244E-009
  -3.4599999999999999E-002    -2.8513580392194272E-009
  -3.4500000000000003E-002    -3.4076016364370498E-009
  -3.4400000000000000E-002    -4.1634724475097941E-009
  -3.4299999999999997E-002    -5.1146605351570016E-009
  -3.4200000000000001E-002    -6.2518483211011209E-009
  -3.4099999999999998E-002    -7.5612167645090353E-009
  -3.4000000000000002E-002    -9.0251307580271799E-009
  -3.3900000000000000E-002    -1.0623008602356483E-008
  -3.3799999999999997E-002    -1.2332358088601985E-008
  -3.3700000000000001E-002    -1.4129899014824998E-008
  -3.3599999999999998E-002    -1.5992746177057049E-008
  -3.3500000000000002E-002    -1.7899607199405147E-008
  -3.3399999999999999E-002    -1.9831896039418814E-008
  -3.3300000000000003E-002    -2.1774755876544690E-008
  -3.3200000000000000E-002    -2.3717907626165283E-008
  -3.3099999999999997E-002    -2.5656310712630849E-008
  -3.3000000000000002E-002    -2.7590520537028819E-008
  -3.2899999999999999E-002    -2.9526815319632139E-008
  -3.2800000000000003E-002    -3.1476998453903308E-008
  -3.2700000000000000E-002    -3.3457882845436148E-008
  -3.2600000000000004E-002    -3.5490500415075740E-008
  -3.2500000000000001E-002    -3.7599036989351347E-008
  -3.2399999999999998E-002    -3.9809498507178059E-008
  -3.2300000000000002E-002    -4.2148218877582479E-008
  -3.2199999999999999E-002    -4.4640246603906354E-008
  -3.2100000000000004E-002    -4.7307648190812683E-008
  -3.2000000000000001E-002    -5.0167840337794309E-008
  -3.1899999999999998E-002    -5.3232042347355351E-008
  -3.1800000000000002E-002    -5.6503872457079386E-008
  -3.1699999999999999E-002    -5.9978217991720378E-008
  -3.1600000000000003E-002    -6.3640430321898676E-008
  -3.1500000000000000E-002    -6.7465903047972249E-008
  -3.1399999999999997E-002    -7.1420078331012646E-008
  -3.1300000000000001E-002    -7.5458879016247613E-008
  -3.1199999999999999E-002    -7.9529669090397065E-008
  -3.1100000000000003E-002    -8.3572628271637355E-008
  -3.1000000000000000E-002    -8.7522617361311429E-008
  -3.0900000000000000E-002    -9.1311312324346448E-008
  -3.0800000000000001E-002    -9.4869837991635678E-008
  -3.0699999999999998E-002    -9.8131452053708419E-008
  -3.0600000000000002E-002    -1.0103451956121519E-007
  -3.0499999999999999E-002    -1.0352544841383328E-007
  -3.0400000000000000E-002    -1.0556161295091720E-007
  -3.0300000000000001E-002    -1.0711394203514460E-007
  -3.0200000000000001E-002    -1.0816941543708207E-007
  -3.0100000000000002E-002    -1.0873294784222714E-007
  -2.9999999999999999E-002    -1.0882885369822797E-007
  -2.9899999999999999E-002    -1.0850177593087315E-007
  -2.9800000000000000E-002    -1.0781680949985049E-007
  -2.9700000000000001E-002    -1.0685908218835903E-007
  -2.9600000000000001E-002    -1.0573252222734872E-007
  -2.9499999999999998E-002    -1.0455800317136460E-007
  -2.9400000000000003E-002    -1.0347081617906613E-007
  -2.9300000000000000E-002    -1.0261753849579747E-007
  -2.9200000000000000E-002    -1.0215236906073177E-007
  -2.9100000000000001E-002    -1.0223316345309732E-007
  -2.8999999999999998E-002    -1.0301709761254528E-007
  -2.8900000000000002E-002    -1.0465630353493680E-007
  -2.8799999999999999E-002    -1.0729351927198748E-007
  -2.8700000000000000E-002    -1.1105763002957487E-007
  -2.8600000000000000E-002    -1.1606019970408322E-007
  -2.8500000000000001E-002    -1.2239173113982116E-007
  -2.8400000000000002E-002    -1.3011905064032366E-007
  -2.8299999999999999E-002    -1.3928314965227239E-007
  -2.8200000000000003E-002    -1.4989775908231711E-007
  -2.8100000000000000E-002    -1.6194904800685470E-007
  -2.8000000000000001E-002    -1.7539600240970502E-007
  -2.7900000000000001E-002    -1.9017148505167208E-007
  -2.7799999999999998E-002    -2.0618453920013558E-007
  -2.7700000000000002E-002    -2.2332291792324025E-007
  -2.7600000000000000E-002    -2.4145698338654217E-007
  -2.7500000000000000E-002    -2.6044325308221404E-007
  -2.7400000000000001E-002    -2.8012892740229881E-007
  -2.7299999999999998E-002    -3.0035674692655380E-007
  -2.7200000000000002E-002    -3.2096888890190521E-007
  -2.7099999999999999E-002    -3.4181238810290338E-007
  -2.7000000000000000E-002    -3.6274231812465765E-007
  -2.6900000000000000E-002    -3.8362650217499575E-007
  -2.6800000000000001E-002    -4.0434759386891376E-007
  -2.6700000000000002E-002    -4.2480626342423391E-007
  -2.6599999999999999E-002    -4.4492194430993523E-007
  -2.6500000000000003E-002    -4.6463412751956301E-007
  -2.6400000000000000E-002    -4.8390174790719603E-007
  -2.6300000000000000E-002    -5.0270193628428480E-007
  -2.6200000000000001E-002    -5.2102796587774094E-007
  -2.6099999999999998E-002    -5.3888671085049213E-007
  -2.6000000000000002E-002    -5.5629463429302807E-007
  -2.5899999999999999E-002    -5.7327395982070088E-007
  -2.5800000000000000E-002    -5.8984853713652143E-007
  -2.5700000000000001E-002    -6.0603925793679663E-007
  -2.5599999999999998E-002    -6.2185892308822134E-007
  -2.5500000000000002E-002    -6.3730860122094493E-007
  -2.5399999999999999E-002    -6.5237336970323825E-007
  -2.5300000000000000E-002    -6.6701915550212733E-007
  -2.5200000000000000E-002    -6.8118973113048167E-007
  -2.5100000000000001E-002    -6.9480555522526972E-007
  -2.5000000000000001E-002    -7.0776218996914776E-007
  -2.4899999999999999E-002    -7.1993097087388938E-007
  -2.4800000000000003E-002    -7.3115980860691497E-007
  -2.4700000000000000E-002    -7.4127585882179675E-007
  -2.4600000000000000E-002    -7.5008771145584626E-007
  -2.4500000000000001E-002    -7.5738973845419091E-007
  -2.4399999999999998E-002    -7.6296665985600177E-007
  -2.4299999999999999E-002    -7.6659838514788598E-007
  -2.4199999999999999E-002    -7.6806489226108861E-007
  -2.4100000000000000E-002    -7.6715167373070141E-007
  -2.4000000000000000E-002    -7.6365540942661992E-007
  -2.3900000000000001E-002    -7.5738821064449143E-007
  -2.3800000000000002E-002    -7.4818110282140845E-007
  -2.3699999999999999E-002    -7.3588853677079463E-007
  -2.3599999999999999E-002    -7.2039051024699015E-007
  -2.3500000000000000E-002    -7.0159311793914196E-007
  -2.3400000000000001E-002    -6.7943062143457790E-007
  -2.3300000000000001E-002    -6.5386128987814391E-007
  -2.3199999999999998E-002    -6.2486694206883125E-007
  -2.3099999999999999E-002    -5.9244900969244376E-007
  -2.3000000000000000E-002    -5.5662409102458019E-007
  -2.2900000000000000E-002    -5.1741790309295864E-007
  -2.2800000000000001E-002    -4.7485828109760071E-007
  -2.2700000000000001E-002    -4.2897045315183988E-007
  -2.2599999999999999E-002    -3.7976565062766736E-007
  -2.2499999999999999E-002    -3.2723576206466349E-007
  -2.2400000000000000E-002    -2.7134749643099850E-007
  -2.2300000000000000E-002    -2.1203239838248010E-007
  -2.2200000000000001E-002    -1.4918116923522017E-007
  -2.2100000000000002E-002    -8.2640085760331814E-008
  -2.1999999999999999E-002    -1.2203381402798841E-008
  -2.1899999999999999E-002     6.2388174479578526E-008
  -2.1800000000000000E-002     1.4144919263628265E-007
  -2.1700000000000001E-002     2.2535058031958350E-007
  -2.1600000000000001E-002     3.1451822223924906E-007
  -2.1499999999999998E-002     4.0943167481422500E-007
  -2.1399999999999999E-002     5.1062126548218133E-007
  -2.1299999999999999E-002     6.1866264483426087E-007
  -2.1200000000000000E-002     7.3417174253824019E-007
  -2.1100000000000001E-002     8.5779828754300137E-007
  -2.1000000000000001E-002     9.9022016308235303E-007
  -2.0899999999999998E-002     1.1321373173674593E-006
  -2.0799999999999999E-002     1.2842636585160491E-006
  -2.0700000000000000E-002     1.4473234223805403E-006
  -2.0600000000000000E-002     1.6220412732424708E-006
  -2.0500000000000001E-002     1.8091436889185956E-006
  -2.0400000000000001E-002     2.0093515175860633E-006
  -2.0299999999999999E-002     2.2233823252309401E-006
  -2.0199999999999999E-002     2.4519457457500506E-006
  -2.0100000000000000E-002     2.6957431349738857E-006
  -2.0000000000000000E-002     2.9554747883050068E-006
  -1.9900000000000001E-002     3.2318418137877975E-006
  -1.9799999999999998E-002     3.5255532018478128E-006
  -1.9699999999999999E-002     3.8373245384347104E-006
  -1.9599999999999999E-002     4.1678975710276566E-006
  -1.9500000000000000E-002     4.5180416721179199E-006
  -1.9400000000000001E-002     4.8885553595593582E-006
  -1.9300000000000001E-002     5.2802910200787123E-006
  -1.9199999999999998E-002     5.6941503718035862E-006
  -1.9099999999999999E-002     6.1310992488783125E-006
  -1.9000000000000000E-002     6.5921767316588389E-006
  -1.8900000000000000E-002     7.0784950313802750E-006
  -1.8800000000000001E-002     7.5912507365305498E-006
  -1.8700000000000001E-002     8.1317267808226686E-006
  -1.8599999999999998E-002     8.7013034948928204E-006
  -1.8499999999999999E-002     9.3014460745282738E-006
  -1.8400000000000000E-002     9.9337127569391219E-006
  -1.8300000000000000E-002     1.0599759474781572E-005
  -1.8200000000000001E-002     1.1301327528464906E-005
  -1.8100000000000002E-002     1.2040246355315569E-005
  -1.7999999999999999E-002     1.2818425988711999E-005
  -1.7899999999999999E-002     1.3637856454010070E-005
  -1.7800000000000000E-002     1.4500601907545067E-005
  -1.7700000000000000E-002     1.5408796513068096E-005
  -1.7600000000000001E-002     1.6364630984542381E-005
  -1.7499999999999998E-002     1.7370363873792711E-005
  -1.7399999999999999E-002     1.8428312961419347E-005
  -1.7299999999999999E-002     1.9540844522305392E-005
  -1.7200000000000000E-002     2.0710380103308173E-005
  -1.7100000000000001E-002     2.1939416501223601E-005
  -1.7000000000000001E-002     2.3230478008854822E-005
  -1.6899999999999998E-002     2.4586181598566091E-005
  -1.6799999999999999E-002     2.6009193978908553E-005
  -1.6700000000000000E-002     2.7502269946704681E-005
  -1.6600000000000000E-002     2.9068239803654839E-005
  -1.6500000000000001E-002     3.0710047795278297E-005
  -1.6400000000000001E-002     3.2430731782599990E-005
  -1.6299999999999999E-002     3.4233450812414263E-005
  -1.6199999999999999E-002     3.6121487798891078E-005
  -1.6100000000000000E-002     3.8098281310196126E-005
  -1.6000000000000000E-002     4.0167411854871791E-005
  -1.5900000000000001E-002     4.2332623331480846E-005
  -1.5799999999999998E-002     4.4597839145338374E-005
  -1.5699999999999999E-002     4.6967160879357768E-005
  -1.5599999999999999E-002     4.9444866993535527E-005
  -1.5500000000000000E-002     5.2035449496695913E-005
  -1.5400000000000000E-002     5.4743587427085193E-005
  -1.5300000000000001E-002     5.7574142019913965E-005
  -1.5199999999999998E-002     6.0532202048704206E-005
  -1.5099999999999999E-002     6.3623041491454204E-005
  -1.4999999999999999E-002     6.6852132294067821E-005
  -1.4900000000000000E-002     7.0225123223498177E-005
  -1.4800000000000001E-002     7.3747862100921531E-005
  -1.4700000000000001E-002     7.7426375165038128E-005
  -1.4599999999999998E-002     8.1266870229330658E-005
  -1.4499999999999999E-002     8.5275706546060224E-005
  -1.4400000000000000E-002     8.9459427621662376E-005
  -1.4300000000000000E-002     9.3824719715714721E-005
  -1.4200000000000001E-002     9.8378433303823308E-005
  -1.4099999999999998E-002     1.0312758380351750E-004
  -1.3999999999999999E-002     1.0807932807548330E-004
  -1.3899999999999999E-002     1.1324100077300962E-004
  -1.3800000000000000E-002     1.1862006553087801E-004
  -1.3700000000000000E-002     1.2422416507241080E-004
  -1.3600000000000001E-002     1.3006111519354383E-004
  -1.3499999999999998E-002     1.3613891201164156E-004
  -1.3399999999999999E-002     1.4246573001711131E-004
  -1.3299999999999999E-002     1.4904996977774758E-004
  -1.3200000000000000E-002     1.5590019955565888E-004
  -1.3100000000000001E-002     1.6302524817714297E-004
  -1.3000000000000001E-002     1.7043414012260087E-004
  -1.2899999999999998E-002     1.7813618899743127E-004
  -1.2799999999999999E-002     1.8614091680361789E-004
  -1.2699999999999999E-002     1.9445815185062967E-004
  -1.2600000000000000E-002     2.0309794181867476E-004
  -1.2500000000000001E-002     2.1207065264393355E-004
  -1.2399999999999998E-002     2.2138690425229670E-004
  -1.2299999999999998E-002     2.3105758878721777E-004
  -1.2199999999999999E-002     2.4109389309226415E-004
  -1.2100000000000000E-002     2.5150727461360414E-004
  -1.2000000000000000E-002     2.6230942311356606E-004
  -1.1900000000000001E-002     2.7351232063503735E-004
  -1.1799999999999998E-002     2.8512817520271307E-004
  -1.1699999999999999E-002     2.9716944231009926E-004
  -1.1599999999999999E-002     3.0964873781682558E-004
  -1.1500000000000000E-002     3.2257896448525546E-004
  -1.1400000000000000E-002     3.3597319737274840E-004
  -1.1300000000000001E-002     3.4984460770310407E-004
  -1.1199999999999998E-002     3.6420660015240195E-004
  -1.1099999999999999E-002     3.7907272122287048E-004
  -1.0999999999999999E-002     3.9445654749294568E-004
  -1.0900000000000000E-002     4.1037182088437900E-004
  -1.0800000000000001E-002     4.2683241807712797E-004
  -1.0699999999999998E-002     4.4385220752905059E-004
  -1.0599999999999998E-002     4.6144520179711287E-004
  -1.0499999999999999E-002     4.7962547591790233E-004
  -1.0400000000000000E-002     4.9840708789512063E-004
  -1.0300000000000000E-002     5.1780421688709549E-004
  -1.0200000000000001E-002     5.3783099611479958E-004
  -1.0099999999999998E-002     5.5850170794092017E-004
  -9.9999999999999985E-003     5.7983052676801314E-004
  -9.8999999999999991E-003     6.0183169716843165E-004
  -9.7999999999999997E-003     6.2451952194864525E-004
  -9.7000000000000003E-003     6.4790826819561577E-004
  -9.6000000000000009E-003     6.7201217226053140E-004
  -9.4999999999999980E-003     6.9684551888560384E-004
  -9.3999999999999986E-003     7.2242248990048836E-004
  -9.2999999999999992E-003     7.4875718885339219E-004
  -9.1999999999999998E-003     7.7586373981940811E-004
  -9.1000000000000004E-003     8.0375598362946300E-004
  -9.0000000000000011E-003     8.3244781807517406E-004
  -8.8999999999999982E-003     8.6195289260248002E-004
  -8.7999999999999988E-003     8.9228464785373065E-004
  -8.6999999999999994E-003     9.2345625635476989E-004
  -8.5999999999999965E-003     9.5548070678303930E-004
  -8.5000000000000006E-003     9.8837051946728204E-004
  -8.3999999999999977E-003     1.0221379581547372E-003
  -8.3000000000000018E-003     1.0567946342225764E-003
  -8.1999999999999990E-003     1.0923520342421278E-003
  -8.0999999999999961E-003     1.1288208132124000E-003
  -8.0000000000000002E-003     1.1662110389108475E-003
  -7.8999999999999973E-003     1.2045322788897916E-003
  -7.8000000000000014E-003     1.2437932469543558E-003
  -7.6999999999999985E-003     1.2840019643578630E-003
  -7.6000000000000026E-003     1.3251656684952859E-003
  -7.4999999999999997E-003     1.3672905027155881E-003
  -7.3999999999999969E-003     1.4103819645619594E-003
  -7.3000000000000009E-003     1.4544442628922681E-003
  -7.1999999999999981E-003     1.4994807501454155E-003
  -7.1000000000000021E-003     1.5454937248684704E-003
  -6.9999999999999993E-003     1.5924842043487722E-003
  -6.8999999999999964E-003     1.6404518991879852E-003
  -6.8000000000000005E-003     1.6893953989403701E-003
  -6.6999999999999976E-003     1.7393120611272376E-003
  -6.6000000000000017E-003     1.7901976205866878E-003
  -6.4999999999999988E-003     1.8420464386869357E-003
  -6.3999999999999960E-003     1.8948513486770268E-003
  -6.3000000000000000E-003     1.9486037720192135E-003
  -6.1999999999999972E-003     2.0032931800098709E-003
  -6.1000000000000013E-003     2.0589077726498122E-003
  -5.9999999999999984E-003     2.1154335344203950E-003
  -5.9000000000000025E-003     2.1728550208309160E-003
  -5.7999999999999996E-003     2.2311543013857917E-003
  -5.6999999999999967E-003     2.2903119993996760E-003
  -5.6000000000000008E-003     2.3503063860040459E-003
  -5.4999999999999979E-003     2.4111132151559693E-003
  -5.4000000000000020E-003     2.4727064990994812E-003
  -5.2999999999999992E-003     2.5350574694730575E-003
  -5.1999999999999963E-003     2.5981350737361388E-003
  -5.1000000000000004E-003     2.6619054778415853E-003
  -4.9999999999999975E-003     2.7263325620125235E-003
  -4.9000000000000016E-003     2.7913768720235683E-003
  -4.7999999999999987E-003     2.8569965620419977E-003
  -4.6999999999999958E-003     2.9231466248850527E-003
  -4.5999999999999999E-003     2.9897791422158352E-003
  -4.4999999999999971E-003     3.0568424692304867E-003
  -4.4000000000000011E-003     3.1242824598129975E-003
  -4.2999999999999983E-003     3.1920408692884760E-003
  -4.2000000000000023E-003     3.2600566113480493E-003
  -4.0999999999999995E-003     3.3282646840872955E-003
  -3.9999999999999966E-003     3.3965965841077370E-003
  -3.9000000000000007E-003     3.4649799658513277E-003
  -3.7999999999999978E-003     3.5333391872599505E-003
  -3.7000000000000019E-003     3.6015943268574583E-003
  -3.5999999999999990E-003     3.6696612769242815E-003
  -3.4999999999999962E-003     3.7374528290218369E-003
  -3.4000000000000002E-003     3.8048767910380428E-003
  -3.2999999999999974E-003     3.8718374490734975E-003
  -3.2000000000000015E-003     3.9382342211429092E-003
  -3.0999999999999986E-003     4.0039628543146553E-003
  -2.9999999999999957E-003     4.0689145409192121E-003
  -2.8999999999999998E-003     4.1329759987262142E-003
  -2.7999999999999969E-003     4.1960295677335117E-003
  -2.7000000000000010E-003     4.2579531906618935E-003
  -2.5999999999999981E-003     4.3186197817738437E-003
  -2.5000000000000022E-003     4.3778976902083249E-003
  -2.3999999999999994E-003     4.4356511909863939E-003
  -2.2999999999999965E-003     4.4917394159371040E-003
  -2.2000000000000006E-003     4.5460169234774212E-003
  -2.0999999999999977E-003     4.5983328520463641E-003
  -2.0000000000000018E-003     4.6485320400459929E-003
  -1.8999999999999989E-003     4.6964542581223786E-003
  -1.7999999999999960E-003     4.7419341375145732E-003
  -1.7000000000000001E-003     4.7848013662874006E-003
  -1.5999999999999973E-003     4.8248810876729631E-003
  -1.5000000000000013E-003     4.8619929156201707E-003
  -1.3999999999999985E-003     4.8959516749805835E-003
  -1.2999999999999956E-003     4.9265673314540775E-003
  -1.1999999999999997E-003     4.9536441697428865E-003
  -1.0999999999999968E-003     4.9769822044076831E-003
  -1.0000000000000009E-003     4.9963771031346776E-003
  -8.9999999999999802E-004     5.0116180766987695E-003
  -8.0000000000000210E-004     5.0224903488533465E-003
  -6.9999999999999923E-004     5.0287743775846924E-003
  -5.9999999999999637E-004     5.0302458715284944E-003
  -5.0000000000000044E-004     5.0266757515675655E-003
  -3.9999999999999758E-004     5.0178307665164606E-003
  -3.0000000000000165E-004     5.0034727514898470E-003
  -1.9999999999999879E-004     4.9833592436853286E-003
  -9.9999999999995925E-005     4.9572441066561531E-003
   0.0000000000000000          4.9248765337913010E-003
   1.0000000000000286E-004     4.8860018931511416E-003
   1.9999999999999879E-004     4.8403621874300862E-003
   3.0000000000000165E-004     4.7876948310306491E-003
   4.0000000000000452E-004     4.7277353302611538E-003
   5.0000000000000044E-004     4.6602146861996173E-003
   6.0000000000000331E-004     4.5848606295026545E-003
   6.9999999999999923E-004     4.5013985060349433E-003
   8.0000000000000210E-004     4.4095514507445479E-003
   8.9999999999999802E-004     4.3090392675924349E-003
   1.0000000000000009E-003     4.1995793522890340E-003
   1.1000000000000038E-003     4.0808873992783934E-003
   1.1999999999999997E-003     3.9526782746682268E-003
   1.3000000000000025E-003     3.8146638326833149E-003
   1.3999999999999985E-003     3.6665546902345898E-003
   1.5000000000000013E-003     3.5080624452504539E-003
   1.6000000000000042E-003     3.3388954163692105E-003
   1.7000000000000001E-003     3.1587635853767126E-003
   1.8000000000000030E-003     2.9673752052243440E-003
   1.8999999999999989E-003     2.7644390352840596E-003
   2.0000000000000018E-003     2.5496668376259438E-003
   2.1000000000000046E-003     2.3227678216586169E-003
   2.2000000000000006E-003     2.0834557904215773E-003
   2.3000000000000034E-003     1.8314427619789387E-003
   2.3999999999999994E-003     1.5664456384760807E-003
   2.5000000000000022E-003     1.2881822999194700E-003
   2.5999999999999981E-003     9.9637442751339400E-004
   2.7000000000000010E-003     6.9074560850440180E-004
   2.8000000000000039E-003     3.7102584332814829E-004
   2.8999999999999998E-003     3.6946921402864971E-005
   3.0000000000000027E-003    -3.1175429263580016E-004
   3.0999999999999986E-003    -6.7533565168706716E-004
   3.2000000000000015E-003    -1.0540481360644411E-003
   3.3000000000000043E-003    -1.4481374359181821E-003
   3.4000000000000002E-003    -1.8578427819180756E-003
   3.5000000000000031E-003    -2.2833978818072916E-003
   3.5999999999999990E-003    -2.7250268803739996E-003
   3.7000000000000019E-003    -3.1829470047298920E-003
   3.7999999999999978E-003    -3.6573655520387239E-003
   3.9000000000000007E-003    -4.1484829191317223E-003
   4.0000000000000036E-003    -4.6564861791452208E-003
   4.0999999999999995E-003    -5.1815573337849578E-003
   4.2000000000000023E-003    -5.7238635814237876E-003
   4.2999999999999983E-003    -6.2835626152725511E-003
   4.4000000000000011E-003    -6.8608013576683252E-003
   4.5000000000000040E-003    -7.4557137342935922E-003
   4.5999999999999999E-003    -8.0684200323908623E-003
   4.7000000000000028E-003    -8.6990272277642066E-003
   4.7999999999999987E-003    -9.3476334337058622E-003
   4.9000000000000016E-003    -1.0014314368350532E-002
   5.0000000000000044E-003    -1.0699137924514216E-002
   5.1000000000000004E-003    -1.1402153928903947E-002
   5.2000000000000032E-003    -1.2123393106108592E-002
   5.2999999999999992E-003    -1.2862875810102987E-002
   5.4000000000000020E-003    -1.3620602668213733E-002
   5.4999999999999979E-003    -1.4396558546842006E-002
   5.6000000000000008E-003    -1.5190707740627378E-002
   5.7000000000000037E-003    -1.6002998818413720E-002
   5.7999999999999996E-003    -1.6833358939497174E-002
   5.9000000000000025E-003    -1.7681699737635104E-002
   5.9999999999999984E-003    -1.8547912049344879E-002
   6.1000000000000013E-003    -1.9431862341974068E-002
   6.2000000000000041E-003    -2.0333405578079094E-002
   6.3000000000000000E-003    -2.1252364653027527E-002
   6.4000000000000029E-003    -2.2188550139698941E-002
   6.4999999999999988E-003    -2.3141750675826113E-002
   6.6000000000000017E-003    -2.4111721094759838E-002
   6.7000000000000046E-003    -2.5098210592335298E-002
   6.8000000000000005E-003    -2.6100936452066015E-002
   6.9000000000000034E-003    -2.7119590151417176E-002
   6.9999999999999993E-003    -2.8153847837483668E-002
   7.1000000000000021E-003    -2.9203354045466715E-002
   7.1999999999999981E-003    -3.0267739752912949E-002
   7.3000000000000009E-003    -3.1346603882726448E-002
   7.4000000000000038E-003    -3.2439523215114931E-002
   7.4999999999999997E-003    -3.3546051160170245E-002
   7.6000000000000026E-003    -3.4665716434087050E-002
   7.6999999999999985E-003    -3.5798021512142897E-002
   7.8000000000000014E-003    -3.6942446017549632E-002
   7.9000000000000042E-003    -3.8098443632098369E-002
   8.0000000000000002E-003    -3.9265443764141914E-002
   8.1000000000000030E-003    -4.0442855763002356E-002
   8.1999999999999990E-003    -4.1630055790881797E-002
   8.3000000000000018E-003    -4.2826402918484101E-002
   8.4000000000000047E-003    -4.4031228001778985E-002
   8.5000000000000006E-003    -4.5243844285335698E-002
   8.6000000000000035E-003    -4.6463532831532664E-002
   8.6999999999999994E-003    -4.7689548572600653E-002
   8.8000000000000023E-003    -4.8921133208260470E-002
   8.8999999999999982E-003    -5.0157501689660017E-002
   9.0000000000000011E-003    -5.1397843490561645E-002
   9.1000000000000039E-003    -5.2641318044552556E-002
   9.1999999999999998E-003    -5.3887074256063948E-002
   9.3000000000000027E-003    -5.5134236599500216E-002
   9.3999999999999986E-003    -5.6381907842750607E-002
   9.5000000000000015E-003    -5.7629168218795518E-002
   9.6000000000000044E-003    -5.8875078856159196E-002
   9.7000000000000003E-003    -6.0118675589772783E-002
   9.8000000000000032E-003    -6.1358987534054846E-002
   9.8999999999999991E-003    -6.2595019514107078E-002
   1.0000000000000002E-002    -6.3825746917480441E-002
   1.0100000000000005E-002    -6.5050139327437709E-002
   1.0200000000000001E-002    -6.6267146502399316E-002
   1.0300000000000004E-002    -6.7475708221490682E-002
   1.0400000000000000E-002    -6.8674739829055781E-002
   1.0500000000000002E-002    -6.9863156483613006E-002
   1.0599999999999998E-002    -7.1039843301365119E-002
   1.0700000000000001E-002    -7.2203688935955940E-002
   1.0800000000000004E-002    -7.3353554672727528E-002
   1.0900000000000000E-002    -7.4488304813914510E-002
   1.1000000000000003E-002    -7.5606785018146078E-002
   1.1099999999999999E-002    -7.6707847727786702E-002
   1.1200000000000002E-002    -7.7790316064569320E-002
   1.1300000000000004E-002    -7.8853030286685555E-002
   1.1400000000000000E-002    -7.9894806573334046E-002
   1.1500000000000003E-002    -8.0914461505401131E-002
   1.1599999999999999E-002    -8.1910819661815029E-002
   1.1700000000000002E-002    -8.2882695380477975E-002
   1.1800000000000005E-002    -8.3828901035185352E-002
   1.1900000000000001E-002    -8.4748256304711472E-002
   1.2000000000000004E-002    -8.5639582426067146E-002
   1.2100000000000000E-002    -8.6501697495318192E-002
   1.2200000000000003E-002    -8.7333437112508239E-002
   1.2299999999999998E-002    -8.8133621808127019E-002
   1.2400000000000001E-002    -8.8901103581921020E-002
   1.2500000000000004E-002    -8.9634729963662882E-002
   1.2600000000000000E-002    -9.0333359083099002E-002
   1.2700000000000003E-002    -9.0995868099499416E-002
   1.2799999999999999E-002    -9.1621134452043701E-002
   1.2900000000000002E-002    -9.2208065519315374E-002
   1.3000000000000005E-002    -9.2755568600573934E-002
   1.3100000000000001E-002    -9.3262575649502188E-002
   1.3200000000000003E-002    -9.3728037821451990E-002
   1.3299999999999999E-002    -9.4150932180172481E-002
   1.3400000000000002E-002    -9.4530241156971867E-002
   1.3500000000000005E-002    -9.4864988490772115E-002
   1.3600000000000001E-002    -9.5154203386351582E-002
   1.3700000000000004E-002    -9.5396954911428550E-002
   1.3800000000000000E-002    -9.5592328110527106E-002
   1.3900000000000003E-002    -9.5739445478162571E-002
   1.3999999999999999E-002    -9.5837456113519681E-002
   1.4100000000000001E-002    -9.5885538195892517E-002
   1.4200000000000004E-002    -9.5882898926383797E-002
   1.4300000000000000E-002    -9.5828777104008805E-002
   1.4400000000000003E-002    -9.5722461664783182E-002