  -4.0000000000000001E-002     0.0000000000000000
  -3.9899999999999998E-002     0.0000000000000000
  -3.9800000000000002E-002     0.0000000000000000
  -3.9699999999999999E-002    -1.6053564381882756E-015
  -3.9600000000000003E-002    -1.4289056038707392E-014
  -3.9500000000000000E-002    -6.8789382980870533E-014
  -3.9399999999999998E-002    -2.3906912206923650E-013
  -3.9300000000000002E-002    -6.7281344901964275E-013
  -3.9199999999999999E-002    -1.6287206475629566E-012
  -3.9100000000000003E-002    -3.5169989581684742E-012
  -3.9000000000000000E-002    -6.9377001322724793E-012
  -3.8900000000000004E-002    -1.2709986758971064E-011
  -3.8800000000000001E-002    -2.1884323738680149E-011
  -3.8699999999999998E-002    -3.5729079248319336E-011
  -3.8600000000000002E-002    -5.5683258791949202E-011
  -3.8500000000000000E-002    -8.3268168220028417E-011
  -3.8400000000000004E-002    -1.1995268430632701E-010
  -3.8300000000000001E-002    -1.6696968445177740E-010
  -3.8199999999999998E-002    -2.2508475325311764E-010
  -3.8100000000000002E-002    -2.9432234348367684E-010
  -3.7999999999999999E-002    -3.7365947205811304E-010
  -3.7900000000000003E-002    -4.6070152818792083E-010
  -3.7800000000000000E-002    -5.5135981281359657E-010
  -3.7699999999999997E-002    -6.3955411522625443E-010
  -3.7600000000000001E-002    -7.1696777947010644E-010
  -3.7499999999999999E-002    -7.7288442012015767E-010
  -3.7400000000000003E-002    -7.9413628649997190E-010
  -3.7300000000000000E-002    -7.6519433112612304E-010
  -3.7200000000000004E-002    -6.6842611468648583E-010
  -3.7100000000000001E-002    -4.8454360649191194E-010
  -3.6999999999999998E-002    -1.9325717657993869E-010
  -3.6900000000000002E-002     2.2585869387366907E-010
  -3.6799999999999999E-002     7.9229024809105371E-010
  -3.6700000000000003E-002     1.5233157857197396E-009
  -3.6600000000000001E-002     2.4325708471133691E-009
  -3.6499999999999998E-002     3.5284884096492070E-009
  -3.6400000000000002E-002     4.8126672554579367E-009
  -3.6299999999999999E-002     6.2782351885934248E-009
  -3.6200000000000003E-002     7.9082851530436800E-009
  -3.6100000000000000E-002     9.6744669479577459E-009
  -3.6000000000000004E-002     1.1535828387764630E-008
  -3.5900000000000001E-002     1.3438001898538531E-008
  -3.5799999999999998E-002     1.5312822528659073E-008
  -3.5700000000000003E-002     1.7078474174800837E-008
  -3.5600000000000000E-002     1.8640234947743145E-008
  -3.5500000000000004E-002     1.9891886041083368E-008
  -3.5400000000000001E-002     2.0717832457600573E-008
  -3.5299999999999998E-002     2.0995952472607879E-008
  -3.5200000000000002E-002     2.0601171611830359E-008
  -3.5099999999999999E-002     1.9409731355770292E-008
  -3.5000000000000003E-002     1.7304075351968442E-008
  -3.4900000000000000E-002     1.4178269198508401E-008
  -3.4799999999999998E-002     9.9438171901897513E-009
  -3.4700000000000002E-002     4.5357039970481961E-009
  -3.4599999999999999E-002    -2.0815146857879907E-009
  -3.4500000000000003E-002    -9.9077932435017084E-009
  -3.4400000000000000E-002    -1.8902088741381731E-008
  -3.4299999999999997E-002    -2.8977498966910994E-008
  -3.4200000000000001E-002    -3.9997320588420183E-008
  -3.4099999999999998E-002    -5.1772247387593017E-008
  -3.4000000000000002E-002    -6.4058981041817741E-008
  -3.3900000000000000E-002    -7.6560442082442306E-008
  -3.3799999999999997E-002    -8.8927790268571417E-008
  -3.3700000000000001E-002    -1.0076438125311215E-007
  -3.3599999999999998E-002    -1.1163177083184356E-007
  -3.3500000000000002E-002    -1.2105781752775920E-007
  -3.3399999999999999E-002    -1.2854683713733531E-007
  -3.3300000000000003E-002    -1.3359173417841400E-007
  -3.3200000000000000E-002    -1.3568794143399233E-007
  -3.3099999999999997E-002    -1.3434894223732165E-007
  -3.3000000000000002E-002    -1.2912304981035687E-007
  -3.2899999999999999E-002    -1.1961108010480079E-007
  -3.2800000000000003E-002    -1.0548444983163844E-007
  -3.2700000000000000E-002    -8.6503222736868744E-008
  -3.2600000000000004E-002    -6.2533548339307725E-008
  -3.2500000000000001E-002    -3.3563878961365014E-008
  -3.2399999999999998E-002     2.8057550087191091E-010
  -3.2300000000000002E-002     3.8725826958947099E-008
  -3.2199999999999999E-002     8.1340099440686613E-008
  -3.2100000000000004E-002     1.2752836732258647E-007
  -3.2000000000000001E-002     1.7653093445543342E-007
  -3.1899999999999998E-002     2.2742656218251844E-007
  -3.1800000000000002E-002     2.7914046423434695E-007
  -3.1699999999999999E-002     3.3045731237811408E-007
  -3.1600000000000003E-002     3.8003951181181923E-007
  -3.1500000000000000E-002     4.2645061405936776E-007
  -3.1399999999999997E-002     4.6818373184979097E-007
  -3.1300000000000001E-002     5.0369458353185504E-007
  -3.1199999999999999E-002     5.3143876160423773E-007
  -3.1100000000000003E-002     5.4991244010025169E-007
  -3.1000000000000000E-002     5.5769574299869185E-007
  -3.0900000000000000E-002     5.5349788925433153E-007
  -3.0800000000000001E-002     5.3620294015613975E-007
  -3.0699999999999998E-002     5.0491496470353275E-007
  -3.0600000000000002E-002     4.5900136433688501E-007
  -3.0499999999999999E-002     3.9813295473034521E-007
  -3.0400000000000000E-002     3.2231948994836296E-007
  -3.0300000000000001E-002     2.3193926446928577E-007
  -3.0200000000000001E-002     1.2776149012746721E-007
  -3.0100000000000002E-002     1.0960251918021188E-008
  -2.9999999999999999E-002    -1.1688104092481094E-007
  -2.9899999999999999E-002    -2.5377554419968952E-007
  -2.9800000000000000E-002    -3.9734992398483306E-007
  -2.9700000000000001E-002    -5.4487267074484407E-007
  -2.9600000000000001E-002    -6.9329417066059519E-007
  -2.9499999999999998E-002    -8.3929788928359470E-007
  -2.9400000000000003E-002    -9.7936249770884768E-007
  -2.9300000000000000E-002    -1.1098341504112527E-006
  -2.9200000000000000E-002    -1.2270071382025136E-006
  -2.9100000000000001E-002    -1.3272120522216034E-006
  -2.8999999999999998E-002    -1.4069092278510002E-006
  -2.8900000000000002E-002    -1.4627853836432260E-006
  -2.8799999999999999E-002    -1.4918511162129705E-006
  -2.8700000000000000E-002    -1.4915364601422047E-006
  -2.8600000000000000E-002    -1.4597820191398632E-006
  -2.8500000000000001E-002    -1.3951227244704199E-006
  -2.8400000000000002E-002    -1.2967619166024506E-006
  -2.8299999999999999E-002    -1.1646323887127028E-006
  -2.8200000000000003E-002    -9.9944222965716744E-007
  -2.8100000000000000E-002    -8.0270341846911042E-007
  -2.8000000000000001E-002    -5.7674118702818505E-007
  -2.7900000000000001E-002    -3.2468256144740915E-007
  -2.7799999999999998E-002    -5.0423279766800008E-008
  -2.7700000000000002E-002     2.4142701106383597E-007
  -2.7600000000000000E-002     5.4562149095634270E-007
  -2.7500000000000000E-002     8.5637377866796841E-007
  -2.7400000000000001E-002     1.1674744309746823E-006
  -2.7299999999999998E-002     1.4724250497396713E-006
  -2.7200000000000002E-002     1.7645865626775109E-006
  -2.7099999999999999E-002     2.0373376202659735E-006
  -2.7000000000000000E-002     2.2842408616300561E-006
  -2.6900000000000000E-002     2.4992113534488721E-006
  -2.6800000000000001E-002     2.6766831655962658E-006
  -2.6700000000000002E-002     2.8117688980442651E-006
  -2.6599999999999999E-002     2.9004074473066715E-006
  -2.6500000000000003E-002     2.9394953897801450E-006
  -2.6400000000000000E-002     2.9269975235844685E-006
  -2.6300000000000000E-002     2.8620316643833573E-006
  -2.6200000000000001E-002     2.7449249893971760E-006
  -2.6099999999999998E-002     2.5772388209272981E-006
  -2.6000000000000002E-002     2.3617593140747536E-006
  -2.5899999999999999E-002     2.1024537936449658E-006
  -2.5800000000000000E-002     1.8043916904626017E-006
  -2.5700000000000001E-002     1.4736315744678410E-006
  -2.5599999999999998E-002     1.1170764763141807E-006
  -2.5500000000000002E-002     7.4229986472733947E-007
  -2.5399999999999999E-002     3.5734702487591292E-007
  -2.5300000000000000E-002    -2.9482962002255034E-008
  -2.5200000000000000E-002    -4.0986886709728927E-007
  -2.5100000000000001E-002    -7.7570632262247086E-007
  -2.5000000000000001E-002    -1.1193467239870486E-006
  -2.4899999999999999E-002    -1.4338284166666483E-006
  -2.4800000000000003E-002    -1.7130929209903955E-006
  -2.4700000000000000E-002    -1.9521789480331656E-006
  -2.4600000000000000E-002    -2.1473868463499545E-006
  -2.4500000000000001E-002    -2.2964078799755969E-006
  -2.4399999999999998E-002    -2.3984127057962063E-006
  -2.4299999999999999E-002    -2.4540937736073464E-006
  -2.4199999999999999E-002    -2.4656604478666576E-006
  -2.4100000000000000E-002    -2.4367839537782783E-006
  -2.4000000000000000E-002    -2.3724927826158281E-006
  -2.3900000000000001E-002    -2.2790199342575613E-006
  -2.3800000000000002E-002    -2.1636050556217753E-006
  -2.3699999999999999E-002    -2.0342566856805698E-006
  -2.3599999999999999E-002    -1.8994802940641887E-006
  -2.3500000000000000E-002    -1.7679809387760604E-006
  -2.3400000000000001E-002    -1.6483478686668393E-006
  -2.3300000000000001E-002    -1.5487321522854779E-006
  -2.3199999999999998E-002    -1.4765264891374019E-006
  -2.3099999999999999E-002    -1.4380583472762018E-006
  -2.3000000000000000E-002    -1.4383060773539901E-006
  -2.2900000000000000E-002    -1.4806503587901367E-006
  -2.2800000000000001E-002    -1.5666681800223116E-006
  -2.2700000000000001E-002    -1.6959778570348008E-006
  -2.2599999999999999E-002    -1.8661434618525622E-006
  -2.2499999999999999E-002    -2.0726410034485057E-006
  -2.2400000000000000E-002    -2.3088929502685019E-006
  -2.2300000000000000E-002    -2.5663709921599176E-006
  -2.2200000000000001E-002    -2.8347642456048897E-006
  -2.2100000000000002E-002    -3.1022118208830079E-006
  -2.1999999999999999E-002    -3.3555961508346624E-006
  -2.1899999999999999E-002    -3.5808845566363523E-006
  -2.1800000000000000E-002    -3.7635133525617800E-006
  -2.1700000000000001E-002    -3.8888040659593467E-006
  -2.1600000000000001E-002    -3.9423973501424816E-006
  -2.1499999999999998E-002    -3.9106921880805246E-006
  -2.1399999999999999E-002    -3.7812794157699632E-006
  -2.1299999999999999E-002    -3.5433532794151959E-006
  -2.1200000000000000E-002    -3.1880877959674441E-006
  -2.1100000000000001E-002    -2.7089679314073060E-006
  -2.1000000000000001E-002    -2.1020614300955472E-006
  -2.0899999999999998E-002    -1.3662275439099148E-006
  -2.0799999999999999E-002    -5.0325186645629623E-007
  -2.0700000000000000E-002     4.8209874487007998E-007
  -2.0600000000000000E-002     1.5820980529208355E-006
  -2.0500000000000001E-002     2.7861641821964146E-006
  -2.0400000000000001E-002     4.0810334068628104E-006
  -2.0299999999999999E-002     5.4510074010251535E-006
  -2.0199999999999999E-002     6.8782580364864863E-006
  -2.0100000000000000E-002     8.3431837762923996E-006
  -2.0000000000000000E-002     9.8247975708174002E-006
  -1.9900000000000001E-002     1.1301142754517948E-005
  -1.9799999999999998E-002     1.2749708332780217E-005
  -1.9699999999999999E-002     1.4147834101065616E-005
  -1.9599999999999999E-002     1.5473095406381084E-005
  -1.9500000000000000E-002     1.6703642676225266E-005
  -1.9400000000000001E-002     1.7818490699695495E-005
  -1.9300000000000001E-002     1.8797735121483363E-005
  -1.9199999999999998E-002     1.9622692474233760E-005
  -1.9099999999999999E-002     2.0275959081580306E-005
  -1.9000000000000000E-002     2.0741381359431369E-005
  -1.8900000000000000E-002     2.1003940875432105E-005
  -1.8800000000000001E-002     2.1049544981289403E-005
  -1.8700000000000001E-002     2.0864743454182524E-005
  -1.8599999999999998E-002     2.0436379510929131E-005
  -1.8499999999999999E-002     1.9751161049781795E-005
  -1.8400000000000000E-002     1.8795207997552740E-005
  -1.8300000000000000E-002     1.7553562785795501E-005
  -1.8200000000000001E-002     1.6009690039863437E-005
  -1.8100000000000002E-002     1.4144988842200885E-005
  -1.7999999999999999E-002     1.1938332443625235E-005
  -1.7899999999999999E-002     9.3656512966891192E-006
  -1.7800000000000000E-002     6.3995708306538950E-006
  -1.7700000000000000E-002     3.0091508828242412E-006
  -1.7600000000000001E-002    -8.4029774202354316E-007
  -1.7499999999999998E-002    -5.1872993193729605E-006
  -1.7399999999999999E-002    -1.0074186279050621E-005
  -1.7299999999999999E-002    -1.5546959559024052E-005
  -1.7200000000000000E-002    -2.1655035595590869E-005
  -1.7100000000000001E-002    -2.8450902720438250E-005
  -1.7000000000000001E-002    -3.5989690339351314E-005
  -1.6899999999999998E-002    -4.4328637012344105E-005
  -1.6799999999999999E-002    -5.3526528105835337E-005
  -1.6700000000000000E-002    -6.3643051545642429E-005
  -1.6600000000000000E-002    -7.4738196654493608E-005
  -1.6500000000000001E-002    -8.6871599239842726E-005
  -1.6400000000000001E-002    -1.0010189490749510E-004
  -1.6299999999999999E-002    -1.1448626742172540E-004
  -1.6199999999999999E-002    -1.3007991381305519E-004
  -1.6100000000000000E-002    -1.4693565684120014E-004
  -1.6000000000000000E-002    -1.6510376526747384E-004
  -1.5900000000000001E-002    -1.8463176719401425E-004
  -1.5799999999999998E-002    -2.0556447714783658E-004
  -1.5699999999999999E-002    -2.2794424009711612E-004
  -1.5599999999999999E-002    -2.5181123876847884E-004
  -1.5500000000000000E-002    -2.7720397835908999E-004
  -1.5400000000000000E-002    -3.0415993218392193E-004
  -1.5300000000000001E-002    -3.3271630242793777E-004
  -1.5199999999999998E-002    -3.6291107835263303E-004
  -1.5099999999999999E-002    -3.9478382913960171E-004
  -1.4999999999999999E-002    -4.2837685471648851E-004
  -1.4900000000000000E-002    -4.6373642677872843E-004
  -1.4800000000000001E-002    -5.0091396703134136E-004
  -1.4700000000000001E-002    -5.3996712954742718E-004
  -1.4599999999999998E-002    -5.8096093956302574E-004
  -1.4499999999999999E-002    -6.2396906901262042E-004
  -1.4400000000000000E-002    -6.6907474511342904E-004
  -1.4300000000000000E-002    -7.1637181895737863E-004
  -1.4200000000000001E-002    -7.6596558442049373E-004
  -1.4099999999999998E-002    -8.1797357563638713E-004
  -1.3999999999999999E-002    -8.7252608575431097E-004
  -1.3899999999999999E-002    -9.2976684540864310E-004
  -1.3800000000000000E-002    -9.8985331974823002E-004
  -1.3700000000000000E-002    -1.0529568455671732E-003
  -1.3600000000000001E-002    -1.1192630169135263E-003
  -1.3499999999999998E-002    -1.1889717886590040E-003
  -1.3399999999999999E-002    -1.2622973672301132E-003
  -1.3299999999999999E-002    -1.3394683101720195E-003
  -1.3200000000000000E-002    -1.4207275764681546E-003
  -1.3100000000000001E-002    -1.5063322273152612E-003
  -1.3000000000000001E-002    -1.5965534798608920E-003
  -1.2899999999999998E-002    -1.6916768312788015E-003
  -1.2799999999999999E-002    -1.7920025451612829E-003
  -1.2699999999999999E-002    -1.8978453008264111E-003
  -1.2600000000000000E-002    -2.0095342946401199E-003
  -1.2500000000000001E-002    -2.1274143744272520E-003
  -1.2399999999999998E-002    -2.2518461535704051E-003
  -1.2299999999999998E-002    -2.3832062903752604E-003
  -1.2199999999999999E-002    -2.5218890749394950E-003
  -1.2100000000000000E-002    -2.6683063622886236E-003
  -1.2000000000000000E-002    -2.8228889458837680E-003
  -1.1900000000000001E-002    -2.9860874092131270E-003
  -1.1799999999999998E-002    -3.1583730039365272E-003
  -1.1699999999999999E-002    -3.3402392415019955E-003
  -1.1599999999999999E-002    -3.5322024411696962E-003
  -1.1500000000000000E-002    -3.7348028222467852E-003
  -1.1400000000000000E-002    -3.9486060946869782E-003
  -1.1300000000000001E-002    -4.1742040659978859E-003
  -1.1199999999999998E-002    -4.4122154327177355E-003
  -1.1099999999999999E-002    -4.6632871209698569E-003
  -1.0999999999999999E-002    -4.9280948214782839E-003
  -1.0900000000000000E-002    -5.2073439547160438E-003
  -1.0800000000000001E-002    -5.5017699922463277E-003
  -1.0699999999999998E-002    -5.8121399952261593E-003
  -1.0599999999999998E-002    -6.1392524203445435E-003
  -1.0499999999999999E-002    -6.4839378992506604E-003
  -1.0400000000000000E-002    -6.8470601181019209E-003
  -1.0300000000000000E-002    -7.2295164063324417E-003
  -1.0200000000000001E-002    -7.6322377101704052E-003
  -1.0099999999999998E-002    -8.0561910329559772E-003
  -9.9999999999999985E-003    -8.5023797915293065E-003
  -9.8999999999999991E-003    -8.9718431931128245E-003
  -9.7999999999999997E-003    -9.4656588899680750E-003
  -9.7000000000000003E-003    -9.9849453629855690E-003
  -9.6000000000000009E-003    -1.0530861400071785E-002
  -9.4999999999999980E-003    -1.1104608657984396E-002
  -9.3999999999999986E-003    -1.1707435282691379E-002
  -9.2999999999999992E-003    -1.2340633940636680E-002
  -9.1999999999999998E-003    -1.3005548686295616E-002
  -9.1000000000000004E-003    -1.3703573719334922E-002
  -9.0000000000000011E-003    -1.4436156698510151E-002
  -8.8999999999999982E-003    -1.5204806495853599E-002
  -8.7999999999999988E-003    -1.6011090421056945E-002
  -8.6999999999999994E-003    -1.6856635489848039E-002
  -8.5999999999999965E-003    -1.7743135823705215E-002
  -8.5000000000000006E-003    -1.8672354986746936E-002
  -8.3999999999999977E-003    -1.9646123848078068E-002
  -8.3000000000000018E-003    -2.0666348155769180E-002
  -8.1999999999999990E-003    -2.1735009899121006E-002
  -8.0999999999999961E-003    -2.2854165654486138E-002
  -8.0000000000000002E-003    -2.4025957123301973E-002
  -7.8999999999999973E-003    -2.5252598446130821E-002
  -7.8000000000000014E-003    -2.6536390940400334E-002
  -7.6999999999999985E-003    -2.7879720798823573E-002
  -7.6000000000000026E-003    -2.9285055094859014E-002
  -7.4999999999999997E-003    -3.0754953929858213E-002
  -7.3999999999999969E-003    -3.2292059111327306E-002
  -7.3000000000000009E-003    -3.3899098695717875E-002
  -7.1999999999999981E-003    -3.5578896223181986E-002
  -7.1000000000000021E-003    -3.7334358700023058E-002
  -6.9999999999999993E-003    -3.9168483640919453E-002
  -6.8999999999999964E-003    -4.1084362353520490E-002
  -6.8000000000000005E-003    -4.3085173066243779E-002
  -6.6999999999999976E-003    -4.5174189773655095E-002
  -6.6000000000000017E-003    -4.7354780773468108E-002
  -6.4999999999999988E-003    -4.9630407186802811E-002
  -6.3999999999999960E-003    -5.2004630016680667E-002
  -6.3000000000000000E-003    -5.4481113445973992E-002
  -6.1999999999999972E-003    -5.7063617850066389E-002
  -6.1000000000000013E-003    -5.9756007114384668E-002
  -5.9999999999999984E-003    -6.2562260054975283E-002
  -5.9000000000000025E-003    -6.5486465157924001E-002
  -5.7999999999999996E-003    -6.8532821091627436E-002
  -5.6999999999999967E-003    -7.1705641906303269E-002
  -5.6000000000000008E-003    -7.5009359047928076E-002
  -5.4999999999999979E-003    -7.8448537761968473E-002
  -5.4000000000000020E-003    -8.2027859577729179E-002
  -5.2999999999999992E-003    -8.5752129569116375E-002
  -5.1999999999999963E-003    -8.9626293559283685E-002
  -5.1000000000000004E-003    -9.3655433637247515E-002
  -4.9999999999999975E-003    -9.7844759738477560E-002
  -4.9000000000000016E-003   -0.10219961389388055
  -4.7999999999999987E-003   -0.10672548659620540
  -4.6999999999999958E-003   -0.11142799486669566
  -4.5999999999999999E-003   -0.11631289217729901
  -4.4999999999999971E-003   -0.12138607773185023
  -4.4000000000000011E-003   -0.12665358975908619
  -4.2999999999999983E-003   -0.13212159257311276
  -4.2000000000000023E-003   -0.13779636358639702
  -4.0999999999999995E-003   -0.14368432000382464
  -3.9999999999999966E-003   -0.14979200284379318
  -3.9000000000000007E-003   -0.15612608510072368
  -3.7999999999999978E-003   -0.16269335852197717
  -3.7000000000000019E-003   -0.16950070633606598
  -3.5999999999999990E-003   -0.17655513925342831
  -3.4999999999999962E-003   -0.18386377472526094
  -3.4000000000000002E-003   -0.19143381048537489
  -3.2999999999999974E-003   -0.19927257394645431
  -3.2000000000000015E-003   -0.20738745102134876
  -3.0999999999999986E-003   -0.21578594898465464
  -2.9999999999999957E-003   -0.22447565681209269
  -2.8999999999999998E-003   -0.23346422832367347
  -2.7999999999999969E-003   -0.24275943311455489
  -2.7000000000000010E-003   -0.25236911855445232
  -2.5999999999999981E-003   -0.26230117110308016
  -2.5000000000000022E-003   -0.27256357959604538
  -2.3999999999999994E-003   -0.28316438798918325
  -2.2999999999999965E-003   -0.29411171385528645
  -2.2000000000000006E-003   -0.30541375024659573
  -2.0999999999999977E-003   -0.31707875856661361
  -2.0000000000000018E-003   -0.32911506163005833
  -1.8999999999999989E-003   -0.34153099444514268
  -1.7999999999999960E-003   -0.35433493548066930
  -1.7000000000000001E-003   -0.36753532734660510
  -1.5999999999999973E-003   -0.38114067582389105
  -1.5000000000000013E-003   -0.39515948128077094
  -1.3999999999999985E-003   -0.40960031047776346
  -1.2999999999999956E-003   -0.42447172170217318
  -1.1999999999999997E-003   -0.43978223044454090
  -1.0999999999999968E-003   -0.45554035721476038
  -1.0000000000000009E-003   -0.47175458570394335
  -8.9999999999999802E-004   -0.48843337076733140
  -8.0000000000000210E-004   -0.50558513082682044
  -6.9999999999999923E-004   -0.52321824991376076
  -5.9999999999999637E-004   -0.54134105334767690
  -5.0000000000000044E-004   -0.55996168568212179
  -3.9999999999999758E-004   -0.57908815875211705
  -3.0000000000000165E-004   -0.59872847175336252
  -1.9999999999999879E-004   -0.61889042177333597
  -9.9999999999995925E-005   -0.63958162905317972
   0.0000000000000000        -0.66080957151713826
   1.0000000000000286E-004   -0.68258145488436439
   1.9999999999999879E-004   -0.70490428881445644
   3.0000000000000165E-004   -0.72778488228492388
   4.0000000000000452E-004   -0.75122976914228734
   5.0000000000000044E-004   -0.77524523216109653
   6.0000000000000331E-004   -0.79983724295117398
   6.9999999999999923E-004   -0.82501141890263319
   8.0000000000000210E-004   -0.85077303698886997
   8.9999999999999802E-004   -0.87712708959067709
   1.0000000000000009E-003   -0.90407829616971735
   1.1000000000000038E-003   -0.93163083611573416
   1.1999999999999997E-003   -0.95978846551874120
   1.3000000000000025E-003   -0.98855463972654745
   1.3999999999999985E-003    -1.0179323826365088
   1.5000000000000013E-003    -1.0479240303319370
   1.6000000000000042E-003    -1.0785315598235479
   1.7000000000000001E-003    -1.1097565569873638
   1.8000000000000030E-003    -1.1415999918814905
   1.8999999999999989E-003    -1.1740622429463918
   2.0000000000000018E-003    -1.2071431283778324
   2.1000000000000046E-003    -1.2408419183655914
   2.2000000000000006E-003    -1.2751572538054576
   2.3000000000000034E-003    -1.3100871416632363
   2.3999999999999994E-003    -1.3456289174943854
   2.5000000000000022E-003    -1.3817791922342377
   2.5999999999999981E-003    -1.4185339351830293
   2.7000000000000010E-003    -1.4558883442885082
   2.8000000000000039E-003    -1.4938367379730979
   2.8999999999999998E-003    -1.5323728192835100
   3.0000000000000027E-003    -1.5714894432937421
   3.0999999999999986E-003    -1.6111785712389146
   3.2000000000000015E-003    -1.6514314230347011
   3.3000000000000043E-003    -1.6922381874504051
   3.4000000000000002E-003    -1.7335882087748922
   3.5000000000000031E-003    -1.7754699809690502
   3.5999999999999990E-003    -1.8178708038168141
   3.7000000000000019E-003    -1.8607771568369231
   3.7999999999999978E-003    -1.9041746030111657
   3.9000000000000007E-003    -1.9480478515974164
   4.0000000000000036E-003    -1.9923803431982909
   4.0999999999999995E-003    -2.0371543175340734
   4.2000000000000023E-003    -2.0823512590268338
   4.2999999999999983E-003    -2.1279514713506127
   4.4000000000000011E-003    -2.1739341006510684
   4.5000000000000040E-003    -2.2202771609007201
   4.5999999999999999E-003    -2.2669574983576517
   4.7000000000000028E-003    -2.3139509461326271
   4.7999999999999987E-003    -2.3612321171767876
   4.9000000000000016E-003    -2.4087744868839982
   5.0000000000000044E-003    -2.4565502609948124
   5.1000000000000004E-003    -2.5045305024015638
   5.2000000000000032E-003    -2.5526850058630806
   5.2999999999999992E-003    -2.6009823641092087
   5.4000000000000020E-003    -2.6493899635922822
   5.4999999999999979E-003    -2.6978740090959237
   5.6000000000000008E-003    -2.7463995661469154
   5.7000000000000037E-003    -2.7949302565413436
   5.7999999999999996E-003    -2.8434284721072061
   5.9000000000000025E-003    -2.8918556198674970
   5.9999999999999984E-003    -2.9401716812312135
   6.1000000000000013E-003    -2.9883354059783489
   6.2000000000000041E-003    -3.0363044567975348
   6.3000000000000000E-003    -3.0840352206208745
   6.4000000000000029E-003    -3.1314829500389889
   6.4999999999999988E-003    -3.1786015891730495
   6.6000000000000017E-003    -3.2253441238767335
   6.7000000000000046E-003    -3.2716622844112564
   6.8000000000000005E-003    -3.3175067500506934
   6.9000000000000034E-003    -3.3628269565878464
   6.9999999999999993E-003    -3.4075712401702232
   7.1000000000000021E-003    -3.4516870903727774
   7.1999999999999981E-003    -3.4951209131443735
   7.3000000000000009E-003    -3.5378181489160188
   7.4000000000000038E-003    -3.5797231653416750
   7.4999999999999997E-003    -3.6207794754793863
   7.6000000000000026E-003    -3.6609296483944869
   7.6999999999999985E-003    -3.7001155126950680
   7.8000000000000014E-003    -3.7382777603184216
   7.9000000000000042E-003    -3.7753568147178287
   8.0000000000000002E-003    -3.8112923581387470
   8.1000000000000030E-003    -3.8460230334149488
   8.1999999999999990E-003    -3.8794867789707377
   8.3000000000000018E-003    -3.9116210064230401
   8.4000000000000047E-003    -3.9423627009145186
   8.5000000000000006E-003    -3.9716489002010587
   8.6000000000000035E-003    -3.9994152686896811
   8.6999999999999994E-003    -4.0255976009323264
   8.8000000000000023E-003    -4.0501318287574515
   8.8999999999999982E-003    -4.0729529906235316
   9.0000000000000011E-003    -4.0939958161157568
   9.1000000000000039E-003    -4.1131955389868118
   9.1999999999999998E-003    -4.1304875610716012
   9.3000000000000027E-003    -4.1458067422987366
   9.3999999999999986E-003    -4.1590883706908226
   9.5000000000000015E-003    -4.1702681436523497
   9.6000000000000044E-003    -4.1792816487891171
   9.7000000000000003E-003    -4.1860648907995097
   9.8000000000000032E-003    -4.1905543975860651
   9.8999999999999991E-003    -4.1926879304948086
   1.0000000000000002E-002    -4.1924036411632146
   1.0100000000000005E-002    -4.1896395763240211
   1.0200000000000001E-002    -4.1843354544987301
   1.0300000000000004E-002    -4.1764315374239631
   1.0400000000000000E-002    -4.1658692671207804
   1.0500000000000002E-002    -4.1525915021020277
   1.0599999999999998E-002    -4.1365424869964089
   1.0700000000000001E-002    -4.1176671833850147
   1.0800000000000004E-002    -4.0959118199850044
   1.0900000000000000E-002    -4.0712246060043444
   1.1000000000000003E-002    -4.0435549997803424
   1.1099999999999999E-002    -4.0128544921516482
   1.1200000000000002E-002    -3.9790762648617219
   1.1300000000000004E-002    -3.9421753931221355
   1.1400000000000000E-002    -3.9021088533170758
   1.1500000000000003E-002    -3.8588355940959307
   1.1599999999999999E-002    -3.8123166899150585
   1.1700000000000002E-002    -3.7625152514045848
   1.1800000000000005E-002    -3.7093972931616044
   1.1900000000000001E-002    -3.6529308919299579
   1.2000000000000004E-002    -3.5930859273038118
   1.2100000000000000E-002    -3.5298360271037073
   1.2200000000000003E-002    -3.4631572777797737
   1.2299999999999998E-002    -3.3930277402129811
   1.2400000000000001E-002    -3.3194286796263119
   1.2500000000000004E-002    -3.2423443521722901
   1.2600000000000000E-002    -3.1617620550060641
   1.2700000000000003E-002    -3.0776721882409785
   1.2799999999999999E-002    -2.9900682943551651
   1.2900000000000002E-002    -2.8989467852402435
   1.3000000000000005E-002    -2.8043077988007314
   1.3100000000000001E-002    -2.7061551767777510
   1.3200000000000003E-002    -2.6044955058787207
   1.3299999999999999E-002    -2.4993388559587721
   1.3400000000000002E-002    -2.3906990648009154
   1.3500000000000005E-002    -2.2785942022379269
   1.3600000000000001E-002    -2.1630458573649567
   1.3700000000000004E-002    -2.0440791938416774
   1.3800000000000000E-002    -1.9217233539960878
   1.3900000000000003E-002    -1.7960113128821185
   1.3999999999999999E-002    -1.6669800821442702
   1.4100000000000001E-002    -1.5346705257877056
   1.4200000000000004E-002    -1.3991273653256480
   1.4300000000000000E-002    -1.2603992581673911
   1.4400000000000003E-002    -1.1185387703829335
   1.4499999999999999E-002   -0.97360248518908410
   1.4600000000000002E-002   -0.82565098920934199
   1.4700000000000005E-002   -0.67474862870694674
   1.4800000000000001E-002   -0.52096392777128109
   1.4900000000000004E-002   -0.36436901695573709
   1.4999999999999999E-002   -0.20504019140687557
   1.5100000000000002E-002    -4.3057960152500740E-002
   1.5200000000000005E-002    0.12149336166560887
   1.5300000000000001E-002    0.28852609006110852
   1.5400000000000004E-002    0.45794856248224625
   1.5500000000000000E-002    0.62966531330725006
   1.5600000000000003E-002    0.80357757334450763
   1.5699999999999999E-002    0.97958317087307556
   1.5800000000000002E-002     1.1575756161947921
   1.5900000000000004E-002     1.3374449647103175
   1.6000000000000000E-002     1.5190784334356864
   1.6100000000000003E-002     1.7023597591842168
   1.6199999999999999E-002     1.8871694918989204
   1.6300000000000002E-002     2.0733850257665845
   1.6400000000000005E-002     2.2608799773306427