  -4.0000000000000001E-002     0.0000000000000000
  -3.9899999999999998E-002     0.0000000000000000
  -3.9800000000000002E-002     0.0000000000000000
  -3.9699999999999999E-002     0.0000000000000000
  -3.9600000000000003E-002     0.0000000000000000
  -3.9500000000000000E-002     0.0000000000000000
  -3.9399999999999998E-002     0.0000000000000000
  -3.9300000000000002E-002     0.0000000000000000
  -3.9199999999999999E-002     0.0000000000000000
  -3.9100000000000003E-002     0.0000000000000000
  -3.9000000000000000E-002     2.0278470336937293E-040
  -3.8900000000000004E-002    -3.2693904665931956E-039
  -3.8800000000000001E-002    -3.4500475461721082E-038
  -3.8699999999999998E-002    -4.3401876994844715E-037
  -3.8600000000000002E-002    -4.1209934099446727E-036
  -3.8500000000000000E-002    -2.5963817569564923E-035
  -3.8400000000000004E-002    -1.7101610399330006E-035
  -3.8300000000000001E-002    -2.5656440720093021E-034
  -3.8199999999999998E-002    -5.8647777926549992E-034
  -3.8100000000000002E-002    -3.0578095517854298E-034
  -3.7999999999999999E-002    -4.9145917297517658E-034
  -3.7900000000000003E-002     3.5934219456164223E-033
  -3.7800000000000000E-002    -1.0213675723043001E-032
  -3.7699999999999997E-002    -3.7984042831708282E-032
  -3.7600000000000001E-002     8.4374128050751299E-032
  -3.7499999999999999E-002    -1.1298141995389519E-032
  -3.7400000000000003E-002     1.8751255193550781E-032
  -3.7300000000000000E-002    -1.9107828063011841E-030
  -3.7200000000000004E-002     1.6490812764634933E-030
  -3.7100000000000001E-002    -8.5870889239432981E-030
  -3.6999999999999998E-002    -1.0413738308171949E-030
  -3.6900000000000002E-002     9.9206863245557026E-030
  -3.6799999999999999E-002     4.8112366127404532E-029
  -3.6700000000000003E-002     1.6847540129318521E-029
  -3.6600000000000001E-002    -1.9634047042914504E-030
  -3.6499999999999998E-002    -1.6027192977845762E-028
  -3.6400000000000002E-002    -2.0460178454141331E-029
  -3.6299999999999999E-002     4.9085162370111139E-029
  -3.6200000000000003E-002    -2.4816261848684072E-029
  -3.6100000000000000E-002     1.4102639351145034E-027
  -3.6000000000000004E-002     2.3353828431569566E-027
  -3.5900000000000001E-002    -7.7197762554952998E-028
  -3.5799999999999998E-002     2.0613540406076164E-030
  -3.5700000000000003E-002    -5.0327492267793497E-027
  -3.5600000000000000E-002     1.7588948106825086E-027
  -3.5500000000000004E-002    -7.0207072116994763E-027
  -3.5400000000000001E-002     1.2810493469891778E-027
  -3.5299999999999998E-002    -7.7241269312396706E-027
  -3.5200000000000002E-002    -1.3491664076342433E-027
  -3.5099999999999999E-002    -2.8888486942621885E-026
  -3.5000000000000003E-002    -1.7296282251732047E-026
  -3.4900000000000000E-002     2.3685155789552224E-027
  -3.4799999999999998E-002    -1.0294028376313315E-025
  -3.4700000000000002E-002    -1.5198380321857839E-025
  -3.4599999999999999E-002    -2.4097280145747805E-026
  -3.4500000000000003E-002     2.2528149215452913E-025
  -3.4400000000000000E-002     1.2376563234124059E-025
  -3.4299999999999997E-002     1.9714488209922020E-025
  -3.4200000000000001E-002     2.9107458706174100E-025
  -3.4099999999999998E-002     4.4505491094977227E-025
  -3.4000000000000002E-002    -1.3663570819026608E-024
  -3.3900000000000000E-002    -2.5535341220342644E-025
  -3.3799999999999997E-002    -9.9974752242205243E-026
  -3.3700000000000001E-002     1.5310255835879184E-024
  -3.3599999999999998E-002     1.0530946725459309E-025
  -3.3500000000000002E-002     4.1920985554246887E-025
  -3.3399999999999999E-002    -2.2379297572132563E-024
  -3.3300000000000003E-002     1.3137324667382066E-024
  -3.3200000000000000E-002     2.8455659918044911E-025
  -3.3099999999999997E-002    -5.1529218688682447E-024
  -3.3000000000000002E-002     6.8731123532236357E-025
  -3.2899999999999999E-002    -6.9776190682255049E-024
  -3.2800000000000003E-002    -1.6060445990665357E-023
  -3.2700000000000000E-002     4.1572658105089760E-024
  -3.2600000000000004E-002    -5.5044950862199035E-024
  -3.2500000000000001E-002    -1.0069737471588614E-024
  -3.2399999999999998E-002     1.3961879556412065E-024
  -3.2300000000000002E-002     9.5136246516419518E-024
  -3.2199999999999999E-002    -1.9896716015800398E-023
  -3.2100000000000004E-002     2.0831860131841974E-023
  -3.2000000000000001E-002     5.5791360795527388E-023
  -3.1899999999999998E-002     8.4398284496325588E-023
  -3.1800000000000002E-002     1.6640977881604000E-022
  -3.1699999999999999E-002     4.9741337233341399E-023
  -3.1600000000000003E-002     2.6526474088322033E-022
  -3.1500000000000000E-002    -9.2654521663030423E-023
  -3.1399999999999997E-002     4.4874008019053856E-022
  -3.1300000000000001E-002    -6.2281950551504829E-023
  -3.1199999999999999E-002    -3.0904225496321105E-022
  -3.1100000000000003E-002    -8.4114881482959509E-023
  -3.1000000000000000E-002    -2.0229825470348816E-022
  -3.0900000000000000E-002    -5.8887863253928218E-022
  -3.0800000000000001E-002     2.8098296481370452E-022
  -3.0699999999999998E-002     7.2092990910544483E-022
  -3.0600000000000002E-002    -8.7337428767885276E-022
  -3.0499999999999999E-002    -1.8790594818249945E-022
  -3.0400000000000000E-002    -6.9207380633279266E-022
  -3.0300000000000001E-002    -1.3975732427224290E-021
  -3.0200000000000001E-002    -1.5551990111826223E-021
  -3.0100000000000002E-002    -1.4602501475301854E-021
  -2.9999999999999999E-002    -2.1944089889589224E-021
  -2.9899999999999999E-002    -3.1456681070336464E-021
  -2.9800000000000000E-002    -3.0652522574441406E-021
  -2.9700000000000001E-002     4.7515467739419343E-021
  -2.9600000000000001E-002     4.3653564215594560E-021
  -2.9499999999999998E-002     7.9486781974353800E-021
  -2.9400000000000003E-002    -8.4604920615105353E-022
  -2.9300000000000000E-002    -8.3599380192712537E-021
  -2.9200000000000000E-002     4.7834881432693420E-021
  -2.9100000000000001E-002    -6.0059557725364263E-022
  -2.8999999999999998E-002     1.6605387456299206E-020
  -2.8900000000000002E-002     1.2047993058379252E-020
  -2.8799999999999999E-002     9.6212196245591292E-021
  -2.8700000000000000E-002     2.5400173677354733E-020
  -2.8600000000000000E-002     5.0708123178758339E-020
  -2.8500000000000001E-002     2.3321140833820794E-020
  -2.8400000000000002E-002     5.2525018931882528E-020
  -2.8299999999999999E-002     4.9449173673498237E-020
  -2.8200000000000003E-002     1.8295010486189602E-020
  -2.8100000000000000E-002     3.7681521333559870E-020
  -2.8000000000000001E-002     9.6492427911900638E-021
  -2.7900000000000001E-002    -6.7612612359090757E-021
  -2.7799999999999998E-002     3.9113009082371169E-021
  -2.7700000000000002E-002    -1.1708250836096187E-021
  -2.7600000000000000E-002     2.9194735490471036E-020
  -2.7500000000000000E-002     2.9483188879704762E-020
  -2.7400000000000001E-002    -7.6232564587277825E-020
  -2.7299999999999998E-002     2.8338484003030744E-020
  -2.7200000000000002E-002    -8.5200094231450554E-020
  -2.7099999999999999E-002    -1.1176907088316845E-019
  -2.7000000000000000E-002    -2.5958731909625140E-019
  -2.6900000000000000E-002    -3.1489344203215938E-019
  -2.6800000000000001E-002    -1.4620912342772589E-019
  -2.6700000000000002E-002    -1.9351900770435739E-019
  -2.6599999999999999E-002    -3.6936064873057374E-019
  -2.6500000000000003E-002     6.7440875446757971E-020
  -2.6400000000000000E-002    -2.6595492960229046E-019
  -2.6300000000000000E-002    -5.7171844317157823E-019
  -2.6200000000000001E-002    -2.0297655138858829E-019
  -2.6099999999999998E-002    -3.7404479159370254E-019
  -2.6000000000000002E-002    -7.2655104080744307E-019
  -2.5899999999999999E-002    -1.1043583668149196E-019
  -2.5800000000000000E-002    -4.3586235106465725E-019
  -2.5700000000000001E-002     1.8115967565719926E-019
  -2.5599999999999998E-002    -1.5070565138817000E-019
  -2.5500000000000002E-002     1.0839522605429369E-018
  -2.5399999999999999E-002     1.3428640315726738E-018
  -2.5300000000000000E-002     2.6721880987948320E-019
  -2.5200000000000000E-002     1.7992766509804454E-018
  -2.5100000000000001E-002     1.6508888242921343E-018
  -2.5000000000000001E-002     1.9137470740243618E-018
  -2.4899999999999999E-002     2.3851147053167858E-018
  -2.4800000000000003E-002     1.5998977924191858E-018
  -2.4700000000000000E-002     1.4269443558992749E-018
  -2.4600000000000000E-002     2.2286752059434601E-018
  -2.4500000000000001E-002     1.6552573710943864E-021
  -2.4399999999999998E-002     2.2817105113027569E-018
  -2.4299999999999999E-002     5.0855968788555121E-019
  -2.4199999999999999E-002     2.9494681908081333E-018
  -2.4100000000000000E-002    -6.1216116447567399E-019
  -2.4000000000000000E-002    -1.1791311773408916E-018
  -2.3900000000000001E-002    -4.9412145708859125E-019
  -2.3800000000000002E-002    -1.7684492839118191E-018
  -2.3699999999999999E-002    -1.2912641947688863E-018
  -2.3599999999999999E-002    -1.9122006598691939E-018
  -2.3500000000000000E-002    -4.4909194690958535E-018
  -2.3400000000000001E-002    -2.2130232943927317E-018
  -2.3300000000000001E-002    -4.2599205976439887E-018
  -2.3199999999999998E-002     7.4759162045864816E-019
  -2.3099999999999999E-002    -3.7878858451875407E-018
  -2.3000000000000000E-002    -3.2187489810089522E-018
  -2.2900000000000000E-002    -3.6889248518338404E-018
  -2.2800000000000001E-002    -6.9182644330204621E-018
  -2.2700000000000001E-002    -1.0751045092364012E-017
  -2.2599999999999999E-002    -1.4260544129577444E-017
  -2.2499999999999999E-002    -1.4889600096172996E-017
  -2.2400000000000000E-002    -8.4433046547502834E-018
  -2.2300000000000000E-002    -4.4684491077558505E-018
  -2.2200000000000001E-002     2.9697297731174666E-018
  -2.2100000000000002E-002    -1.1244096643029054E-018
  -2.1999999999999999E-002     6.2486183001766272E-018
  -2.1899999999999999E-002    -1.7840247639739476E-017
  -2.1800000000000000E-002    -1.6708965655509904E-017
  -2.1700000000000001E-002     5.3949352343877068E-018
  -2.1600000000000001E-002     1.6265244468240533E-017
  -2.1499999999999998E-002    -7.8606089561634554E-019
  -2.1399999999999999E-002    -1.6019063937416177E-017
  -2.1299999999999999E-002     4.7439966182773711E-017
  -2.1200000000000000E-002     2.0057463912657239E-017
  -2.1100000000000001E-002     7.9893524013564896E-017
  -2.1000000000000001E-002     1.9257074025783579E-017
  -2.0899999999999998E-002     5.4180594820019330E-017
  -2.0799999999999999E-002     3.8055099207547180E-017
  -2.0700000000000000E-002     9.8427458549881142E-017
  -2.0600000000000000E-002     2.1586780244563653E-017
  -2.0500000000000001E-002     5.6949088920895508E-017
  -2.0400000000000001E-002     4.9650213459030715E-018
  -2.0299999999999999E-002     5.7426411839008008E-017
  -2.0199999999999999E-002     8.7023403994743268E-018
  -2.0100000000000000E-002     8.4403107572412090E-017
  -2.0000000000000000E-002     1.7078193272918464E-016
  -1.9900000000000001E-002     8.1959147858703741E-018
  -1.9799999999999998E-002    -3.0712696674669234E-017
  -1.9699999999999999E-002     6.1554029860757815E-017
  -1.9599999999999999E-002    -7.5927060627475120E-017
  -1.9500000000000000E-002     3.9575592831040104E-017
  -1.9400000000000001E-002    -9.8622216570745528E-017
  -1.9300000000000001E-002     7.9854355357199285E-017
  -1.9199999999999998E-002     3.7059177058755785E-017
  -1.9099999999999999E-002    -1.5592107054185296E-016
  -1.9000000000000000E-002    -1.5636547167158585E-016
  -1.8900000000000000E-002    -2.0684156789678849E-016
  -1.8800000000000001E-002    -6.6203109158105951E-017
  -1.8700000000000001E-002    -6.5839010722239710E-017
  -1.8599999999999998E-002    -6.5828118407933612E-017
  -1.8499999999999999E-002    -8.1176302472622331E-017
  -1.8400000000000000E-002    -9.1324339515880086E-017
  -1.8300000000000000E-002    -1.9202649842816775E-016
  -1.8200000000000001E-002    -1.7130624612353505E-016
  -1.8100000000000002E-002    -1.2048135761252084E-016
  -1.7999999999999999E-002    -6.4879851788592622E-017
  -1.7899999999999999E-002     1.3257713368310006E-016
  -1.7800000000000000E-002    -3.9151024183673786E-017
  -1.7700000000000000E-002     4.2352949675871420E-016
  -1.7600000000000001E-002     3.7455164299852680E-016
  -1.7499999999999998E-002     5.5062260165160000E-017
  -1.7399999999999999E-002     5.7856843542556101E-017
  -1.7299999999999999E-002    -4.2288196654031789E-016
  -1.7200000000000000E-002    -7.0853162543343430E-016
  -1.7100000000000001E-002    -1.0705797651112871E-015
  -1.7000000000000001E-002     1.0525415632247964E-015
  -1.6899999999999998E-002    -8.3885007958823176E-017
  -1.6799999999999999E-002    -7.3459075287439046E-016
  -1.6700000000000000E-002    -3.6393085569158274E-016
  -1.6600000000000000E-002    -5.3235904267902529E-016
  -1.6500000000000001E-002    -7.1367375069797834E-016
  -1.6400000000000001E-002    -9.7864047967570044E-016
  -1.6299999999999999E-002    -1.3898750814467817E-015
  -1.6199999999999999E-002    -9.5220765188632752E-016
  -1.6100000000000000E-002    -9.5542245955851281E-016
  -1.6000000000000000E-002     7.3956786553289753E-016
  -1.5900000000000001E-002    -7.8500240842115278E-017
  -1.5799999999999998E-002     7.3362518825407976E-016
  -1.5699999999999999E-002     3.2525793859324216E-017
  -1.5599999999999999E-002     2.6506477304136678E-015
  -1.5500000000000000E-002     1.3081532368165684E-015
  -1.5400000000000000E-002     7.2491527551240588E-015
  -1.5300000000000001E-002     6.2704290544612906E-015
  -1.5199999999999998E-002     6.2894733197308827E-015
  -1.5099999999999999E-002     6.0133181325528785E-015
  -1.4999999999999999E-002     6.6552056292128181E-015
  -1.4900000000000000E-002     6.8953174469027836E-015
  -1.4800000000000001E-002     5.3155137558799463E-015
  -1.4700000000000001E-002     7.5060409073673430E-015
  -1.4599999999999998E-002     6.0867906174306638E-015
  -1.4499999999999999E-002     5.2232146932000133E-015
  -1.4400000000000000E-002    -3.7716471317102672E-015
  -1.4300000000000000E-002     1.3470034617335709E-015
  -1.4200000000000001E-002    -6.4962226272108695E-015
  -1.4099999999999998E-002    -2.3120251339250799E-015
  -1.3999999999999999E-002    -1.8006385211409527E-015
  -1.3899999999999999E-002    -8.7628904173599025E-015
  -1.3800000000000000E-002    -1.4759464402611458E-014
  -1.3700000000000000E-002    -1.2260935742711664E-014
  -1.3600000000000001E-002    -1.2498800381992563E-014
  -1.3499999999999998E-002    -1.4757611094522866E-014
  -1.3399999999999999E-002    -1.3318575809004220E-014
  -1.3299999999999999E-002    -1.6436687893996854E-014
  -1.3200000000000000E-002    -1.1092880696579772E-014
  -1.3100000000000001E-002    -1.5602606080506072E-014
  -1.3000000000000001E-002    -1.0843253310760352E-014
  -1.2899999999999998E-002    -1.8813660549702078E-014
  -1.2799999999999999E-002    -8.9370115921951800E-015
  -1.2699999999999999E-002    -7.3019788119125205E-015
  -1.2600000000000000E-002    -1.9027114546476057E-014
  -1.2500000000000001E-002    -8.6687037417570133E-015
  -1.2399999999999998E-002    -1.6018825577050863E-015
  -1.2299999999999998E-002     4.7646043740186966E-015
  -1.2199999999999999E-002    -5.5422187360807708E-015
  -1.2100000000000000E-002     7.3194302317248008E-015
  -1.2000000000000000E-002     1.6377829268558047E-014
  -1.1900000000000001E-002     1.9474935783491722E-014
  -1.1799999999999998E-002     2.6202454309477534E-014
  -1.1699999999999999E-002     2.1980735374210747E-014
  -1.1599999999999999E-002     2.9044312527953808E-014
  -1.1500000000000000E-002     4.6098494216762625E-014
  -1.1400000000000000E-002     3.8995987428763756E-014
  -1.1300000000000001E-002     2.4624584394673278E-014
  -1.1199999999999998E-002     5.1691279972761531E-014
  -1.1099999999999999E-002     5.4596582653053047E-014
  -1.0999999999999999E-002     3.5878160793874347E-014
  -1.0900000000000000E-002     3.7051077809123478E-014
  -1.0800000000000001E-002     4.9140811252536103E-015
  -1.0699999999999998E-002     2.1123050140611777E-014
  -1.0599999999999998E-002     3.1548214341354510E-015
  -1.0499999999999999E-002     1.4221505307480779E-014
  -1.0400000000000000E-002     6.3962583398747587E-015
  -1.0300000000000000E-002     1.2629350182021080E-014
  -1.0200000000000001E-002     9.5940647902592342E-016
  -1.0099999999999998E-002    -3.6117230761039190E-014
  -9.9999999999999985E-003    -2.6193187769034572E-014
  -9.8999999999999991E-003    -4.6169668701254510E-014
  -9.7999999999999997E-003    -7.7842415944096716E-014
  -9.7000000000000003E-003    -6.9812591037970995E-014
  -9.6000000000000009E-003    -5.7203380758336780E-014
  -9.4999999999999980E-003    -7.6335381700605442E-014
  -9.3999999999999986E-003    -8.0995302966738875E-014
  -9.2999999999999992E-003    -1.0332593071080143E-013
  -9.1999999999999998E-003    -8.9500706379561784E-014
  -9.1000000000000004E-003    -1.0149745762822251E-013
  -9.0000000000000011E-003    -1.0786595276918512E-013
  -8.8999999999999982E-003    -5.5244285030895887E-014
  -8.7999999999999988E-003    -4.4746199340207557E-014
  -8.6999999999999994E-003    -3.1509527382038091E-014
  -8.5999999999999965E-003    -7.6069000003089332E-014
  -8.5000000000000006E-003    -5.3925746958387744E-015
  -8.3999999999999977E-003     8.8922277744277189E-014
  -8.3000000000000018E-003     1.2797143173707420E-013
  -8.1999999999999990E-003     1.2468967373370499E-013
  -8.0999999999999961E-003     1.7316261814205591E-013
  -8.0000000000000002E-003     1.7898720971066401E-013
  -7.8999999999999973E-003     2.2417796243477672E-013
  -7.8000000000000014E-003     2.5978850147490018E-013
  -7.6999999999999985E-003     1.4895634096838417E-013
  -7.6000000000000026E-003     1.4635520443131989E-013
  -7.4999999999999997E-003     2.2646451771149434E-013
  -7.3999999999999969E-003     2.2387659488840722E-013
  -7.3000000000000009E-003     1.8924633724253653E-013
  -7.1999999999999981E-003     1.9449697928608511E-013
  -7.1000000000000021E-003     1.1049740630949753E-013
  -6.9999999999999993E-003     3.9665668617521951E-014
  -6.8999999999999964E-003     3.0831677407536576E-014
  -6.8000000000000005E-003     1.4762339571247618E-013
  -6.6999999999999976E-003    -4.0340984269445282E-014
  -6.6000000000000017E-003    -1.4646283860199338E-013
  -6.4999999999999988E-003    -8.1891280865817317E-014
  -6.3999999999999960E-003    -1.6782290889003765E-013
  -6.3000000000000000E-003    -2.5521287015141392E-013
  -6.1999999999999972E-003    -4.0882051975492384E-013
  -6.1000000000000013E-003    -4.4665489297608663E-013
  -5.9999999999999984E-003    -4.5406197248312741E-013
  -5.9000000000000025E-003    -3.8324026027311553E-013
  -5.7999999999999996E-003    -5.4301626129654723E-013
  -5.6999999999999967E-003    -5.1168590848790774E-013
  -5.6000000000000008E-003    -5.5925620037755586E-013
  -5.4999999999999979E-003    -6.9015816282422260E-013
  -5.4000000000000020E-003    -6.5540845320399832E-013
  -5.2999999999999992E-003    -8.3530995705419220E-013
  -5.1999999999999963E-003    -4.3006307607999783E-013
  -5.1000000000000004E-003    -3.9370739199177940E-013
  -4.9999999999999975E-003    -3.5021304974937328E-013
  -4.9000000000000016E-003    -3.3105289343193789E-013
  -4.7999999999999987E-003    -2.4407367877547596E-014
  -4.6999999999999958E-003     1.5340680115105698E-013
  -4.5999999999999999E-003     5.8370094781906579E-013
  -4.4999999999999971E-003     4.5733203465556094E-013
  -4.4000000000000011E-003     8.2030026217830287E-013
  -4.2999999999999983E-003     7.9372646693068316E-013
  -4.2000000000000023E-003     1.2813553386739618E-012
  -4.0999999999999995E-003     1.1447504185899127E-012
  -3.9999999999999966E-003     1.8271970308320062E-012
  -3.9000000000000007E-003     1.7550497730459136E-012
  -3.7999999999999978E-003     1.7040220146383178E-012
  -3.7000000000000019E-003     1.3595947284672505E-012
  -3.5999999999999990E-003     1.1327165334168443E-012
  -3.4999999999999962E-003     2.0201798133639981E-012
  -3.4000000000000002E-003     1.6993321897210145E-012
  -3.2999999999999974E-003     1.7681217817991368E-012
  -3.2000000000000015E-003     9.7792011034131265E-013
  -3.0999999999999986E-003     9.4028051404043689E-013
  -2.9999999999999957E-003     2.5716668378139573E-013
  -2.8999999999999998E-003     8.2012623417709180E-014
  -2.7999999999999969E-003    -9.0143609807538660E-013
  -2.7000000000000010E-003    -9.8869567047299434E-013
  -2.5999999999999981E-003    -1.4474883965054364E-012
  -2.5000000000000022E-003    -2.1104715197672874E-012
  -2.3999999999999994E-003    -3.1052922819935214E-012
  -2.2999999999999965E-003    -3.4952509636587692E-012
  -2.2000000000000006E-003    -3.6863277187715315E-012
  -2.0999999999999977E-003    -4.2349331506874588E-012
  -2.0000000000000018E-003    -4.7283873864933934E-012
  -1.8999999999999989E-003    -5.1005237360068900E-012
  -1.7999999999999960E-003    -5.1195874796461371E-012
  -1.7000000000000001E-003    -5.1869433227713646E-012
  -1.5999999999999973E-003    -5.5865342733774082E-012
  -1.5000000000000013E-003    -4.3348081200933475E-012
  -1.3999999999999985E-003    -4.1976248865704946E-012
  -1.2999999999999956E-003    -2.2954964751936702E-012
  -1.1999999999999997E-003    -2.9081921332912986E-012
  -1.0999999999999968E-003     2.3719879684545864E-013
  -1.0000000000000009E-003     8.1752069306870179E-013
  -8.9999999999999802E-004     3.3837093283556330E-012
  -8.0000000000000210E-004     5.7215230817031504E-012
  -6.9999999999999923E-004     7.2486400562454811E-012
  -5.9999999999999637E-004     9.3051235119934184E-012
  -5.0000000000000044E-004     1.0138168950180049E-011
  -3.9999999999999758E-004     1.1676436727225958E-011
  -3.0000000000000165E-004     1.3645250727944980E-011
  -1.9999999999999879E-004     1.5338969677758385E-011
  -9.9999999999995925E-005     1.6564057417345346E-011
   0.0000000000000000          1.6998763507913850E-011
   1.0000000000000286E-004     1.6779527420296425E-011
   1.9999999999999879E-004     1.5198179520448107E-011
   3.0000000000000165E-004     1.3455737392364941E-011
   4.0000000000000452E-004     9.8656031261024069E-012
   5.0000000000000044E-004     6.0347343441846668E-012
   6.0000000000000331E-004     4.1773333923911249E-012
   6.9999999999999923E-004    -1.5130238641830607E-012
   8.0000000000000210E-004    -7.3260824490217757E-012
   8.9999999999999802E-004    -1.1534215423048000E-011
   1.0000000000000009E-003    -1.7046036457357694E-011
   1.1000000000000038E-003    -2.7083347717282713E-011
   1.1999999999999997E-003    -2.8787413425268582E-011
   1.3000000000000025E-003    -3.8210032360375124E-011
   1.3999999999999985E-003    -3.9841716731325860E-011
   1.5000000000000013E-003    -4.3800626320367186E-011
   1.6000000000000042E-003    -4.5900307860113898E-011
   1.7000000000000001E-003    -4.6274945680879753E-011
   1.8000000000000030E-003    -4.8609644087704851E-011
   1.8999999999999989E-003    -4.7237946193545710E-011
   2.0000000000000018E-003    -4.3521432985249575E-011
   2.1000000000000046E-003    -3.7948449937985629E-011
   2.2000000000000006E-003    -2.9383558086681916E-011
   2.3000000000000034E-003    -1.9198880332749191E-011
   2.3999999999999994E-003    -9.2342938851075473E-012
   2.5000000000000022E-003     4.2960223052557200E-012
   2.5999999999999981E-003     1.8273970878168733E-011
   2.7000000000000010E-003     3.2691935963891083E-011
   2.8000000000000039E-003     4.9675066143839430E-011
   2.8999999999999998E-003     6.5152230832588032E-011
   3.0000000000000027E-003     7.9103112948786247E-011
   3.0999999999999986E-003     9.7806471255346139E-011
   3.2000000000000015E-003     1.0882595519179361E-010
   3.3000000000000043E-003     1.1637778934980858E-010
   3.4000000000000002E-003     1.2689908845953113E-010
   3.5000000000000031E-003     1.2536012505837135E-010
   3.5999999999999990E-003     1.3019056666063733E-010
   3.7000000000000019E-003     1.2454336173473024E-010
   3.7999999999999978E-003     1.1111783715378465E-010
   3.9000000000000007E-003     1.0223878688098154E-010
   4.0000000000000036E-003     7.7244280416444155E-011
   4.0999999999999995E-003     5.5934042120231453E-011
   4.2000000000000023E-003     2.5067685774371462E-011
   4.2999999999999983E-003    -4.9644073574217629E-012
   4.4000000000000011E-003    -3.8906329546950502E-011
   4.5000000000000040E-003    -8.0531657731253148E-011
   4.5999999999999999E-003    -1.1628444734901322E-010
   4.7000000000000028E-003    -1.5413982590306574E-010
   4.7999999999999987E-003    -1.9139488605102173E-010
   4.9000000000000016E-003    -2.2335149008068100E-010
   5.0000000000000044E-003    -2.4991328451129391E-010
   5.1000000000000004E-003    -2.6842020273143419E-010
   5.2000000000000032E-003    -2.8415111930080172E-010
   5.2999999999999992E-003    -2.8267235774315225E-010
   5.4000000000000020E-003    -2.8575539157138508E-010
   5.4999999999999979E-003    -2.6943580699878567E-010
   5.6000000000000008E-003    -2.4635599116251683E-010
   5.7000000000000037E-003    -2.0832716107754834E-010
   5.7999999999999996E-003    -1.6864544483130572E-010
   5.9000000000000025E-003    -1.0714317627558145E-010
   5.9999999999999984E-003    -4.5637677664744913E-011
   6.1000000000000013E-003     2.6193507432492602E-011
   6.2000000000000041E-003     9.5425736756915569E-011
   6.3000000000000000E-003     1.8624300712755115E-010
   6.4000000000000029E-003     2.5934321357112822E-010
   6.4999999999999988E-003     3.4832428608133625E-010
   6.6000000000000017E-003     4.1941564110636875E-010
   6.7000000000000046E-003     4.7552933812866627E-010
   6.8000000000000005E-003     5.2131049477210922E-010
   6.9000000000000034E-003     5.5998178316585268E-010
   6.9999999999999993E-003     5.8124083324173625E-010
   7.1000000000000021E-003     5.7062127245544048E-010
   7.1999999999999981E-003     5.5146587296661664E-010
   7.3000000000000009E-003     5.0624776593011234E-010
   7.4000000000000038E-003     4.3881923095234754E-010
   7.4999999999999997E-003     3.3682417965863465E-010
   7.6000000000000026E-003     2.2485618922374329E-010
   7.6999999999999985E-003     9.1991844697325575E-011
   7.8000000000000014E-003    -4.7954001880512465E-011
   7.9000000000000042E-003    -2.1313591169747070E-010
   8.0000000000000002E-003    -3.5514324814300835E-010
   8.1000000000000030E-003    -5.2171228448472107E-010
   8.1999999999999990E-003    -6.7545979920424770E-010
   8.3000000000000018E-003    -8.2061929473908890E-010
   8.4000000000000047E-003    -9.4382246462743069E-010
   8.5000000000000006E-003    -1.0357578128505907E-009
   8.6000000000000035E-003    -1.0809302342096316E-009
   8.6999999999999994E-003    -1.1295930857357916E-009
   8.8000000000000023E-003    -1.1217795581330847E-009
   8.8999999999999982E-003    -1.0659518823175063E-009
   9.0000000000000011E-003    -9.4076479939531055E-010
   9.1000000000000039E-003    -7.6635192636231864E-010
   9.1999999999999998E-003    -5.6274673809753040E-010
   9.3000000000000027E-003    -3.0335178813345465E-010
   9.3999999999999986E-003    -9.3280201271528362E-012
   9.5000000000000015E-003     3.2084643275531732E-010
   9.6000000000000044E-003     6.5468813703617457E-010
   9.7000000000000003E-003     9.8968910844376978E-010
   9.8000000000000032E-003     1.3461011194593198E-009
   9.8999999999999991E-003     1.6504071442824397E-009
   1.0000000000000002E-002     1.9445449694899253E-009
   1.0100000000000005E-002     2.1858015397668851E-009
   1.0200000000000001E-002     2.3496218304330796E-009
   1.0300000000000004E-002     2.4624384753479944E-009
   1.0400000000000000E-002     2.4852189195456731E-009
   1.0500000000000002E-002     2.3786739244968658E-009
   1.0599999999999998E-002     2.1756350054857876E-009
   1.0700000000000001E-002     1.8748000929491582E-009
   1.0800000000000004E-002     1.4779700796552220E-009
   1.0900000000000000E-002     9.5264585109333666E-010
   1.1000000000000003E-002     3.6704692063516120E-010
   1.1099999999999999E-002    -3.2679434158744414E-010
   1.1200000000000002E-002    -1.0841380015946811E-009
   1.1300000000000004E-002    -1.8809551693976800E-009
   1.1400000000000000E-002    -2.6508109041145644E-009
   1.1500000000000003E-002    -3.3777012298230602E-009
   1.1599999999999999E-002    -4.0955314695167999E-009
   1.1700000000000002E-002    -4.7289980820153232E-009
   1.1800000000000005E-002    -5.2239697012623765E-009
   1.1900000000000001E-002    -5.5805915444295806E-009
   1.2000000000000004E-002    -5.7556897026245224E-009
   1.2100000000000000E-002    -5.7125251196055160E-009
   1.2200000000000003E-002    -5.4706514873714696E-009
   1.2299999999999998E-002    -5.0009583141275016E-009
   1.2400000000000001E-002    -4.3128123294877696E-009
   1.2500000000000004E-002    -3.3638487551002072E-009
   1.2600000000000000E-002    -2.1744743783358444E-009
   1.2700000000000003E-002    -8.4556273094449352E-010
   1.2799999999999999E-002     6.6727379177677903E-010
   1.2900000000000002E-002     2.3235864343718049E-009
   1.3000000000000005E-002     4.0192271733019425E-009
   1.3100000000000001E-002     5.6449214191900410E-009
   1.3200000000000003E-002     7.3110761888983689E-009
   1.3299999999999999E-002     8.9284801774169864E-009
   1.3400000000000002E-002     1.0299760155874083E-008
   1.3500000000000005E-002     1.1360606677612850E-008
   1.3600000000000001E-002     1.2190275455736810E-008
   1.3700000000000004E-002     1.2621821809943867E-008
   1.3800000000000000E-002     1.2628349033150243E-008
   1.3900000000000003E-002     1.2201665455791044E-008
   1.3999999999999999E-002     1.1268598498759275E-008
   1.4100000000000001E-002     9.8315720009622964E-009
   1.4200000000000004E-002     7.9652142659369929E-009
   1.4300000000000000E-002     5.6258895320127067E-009
   1.4400000000000003E-002     2.8973838883672443E-009
   1.4499999999999999E-002    -1.9436224851787642E-010