  -4.0000000000000001E-002     0.0000000000000000
  -3.9899999999999998E-002     0.0000000000000000
  -3.9800000000000002E-002     0.0000000000000000
  -3.9699999999999999E-002     0.0000000000000000
  -3.9600000000000003E-002     0.0000000000000000
  -3.9500000000000000E-002     0.0000000000000000
  -3.9399999999999998E-002    -8.0772813027911090E-032
  -3.9300000000000002E-002    -3.5430596387032883E-031
  -3.9199999999999999E-002    -2.7693645384186193E-031
  -3.9100000000000003E-002    -6.6590412089336208E-030
  -3.9000000000000000E-002    -9.4904884940756645E-030
  -3.8900000000000004E-002     1.8697865587252959E-028
  -3.8800000000000001E-002     9.7841102664410078E-028
  -3.8699999999999998E-002     2.0538814113585351E-027
  -3.8600000000000002E-002     6.6649070619134896E-027
  -3.8500000000000000E-002     8.2059300846722200E-028
  -3.8400000000000004E-002    -1.5705410191629747E-026
  -3.8300000000000001E-002    -3.5342435342146974E-026
  -3.8199999999999998E-002    -1.1993521960832682E-025
  -3.8100000000000002E-002    -1.9880709830818238E-025
  -3.7999999999999999E-002    -5.0127816165242503E-025
  -3.7900000000000003E-002    -9.5867347026160247E-025
  -3.7800000000000000E-002    -1.4254384249687359E-024
  -3.7699999999999997E-002    -2.1786202361303460E-024
  -3.7600000000000001E-002    -2.6986351754845476E-024
  -3.7499999999999999E-002    -3.3142484208531839E-024
  -3.7400000000000003E-002    -3.5416900360333377E-024
  -3.7300000000000000E-002    -3.9974374635153151E-024
  -3.7200000000000004E-002    -4.8772575809823830E-024
  -3.7100000000000001E-002    -5.5609798936164436E-024
  -3.6999999999999998E-002    -6.9001963146825887E-024
  -3.6900000000000002E-002    -8.2992040536295077E-024
  -3.6799999999999999E-002    -7.9318362632335138E-024
  -3.6700000000000003E-002    -6.6055303397422158E-024
  -3.6600000000000001E-002    -5.6235618069494369E-024
  -3.6499999999999998E-002    -5.1282770653282351E-024
  -3.6400000000000002E-002    -3.7813657005621116E-024
  -3.6299999999999999E-002    -1.7797642738415502E-024
  -3.6200000000000003E-002    -1.4545670547294539E-023
  -3.6100000000000000E-002    -4.7803087056551648E-023
  -3.6000000000000004E-002    -7.2710780070947990E-023
  -3.5900000000000001E-002    -1.5160164793469119E-022
  -3.5799999999999998E-002    -2.2174147982842597E-022
  -3.5700000000000003E-002    -2.6906573778183932E-022
  -3.5600000000000000E-002    -3.6895080072994450E-022
  -3.5500000000000004E-002    -4.6786716772998723E-022
  -3.5400000000000001E-002    -5.7557018303674369E-022
  -3.5299999999999998E-002    -7.2498998054711288E-022
  -3.5200000000000002E-002    -8.5957081218106998E-022
  -3.5099999999999999E-002    -9.3966556382771459E-022
  -3.5000000000000003E-002    -1.1651896127640136E-021
  -3.4900000000000000E-002    -1.5403526741899118E-021
  -3.4799999999999998E-002    -1.9148162873610304E-021
  -3.4700000000000002E-002    -2.2658668117877770E-021
  -3.4599999999999999E-002    -2.5268885412299649E-021
  -3.4500000000000003E-002    -2.5831140027153045E-021
  -3.4400000000000000E-002    -2.5549306910097228E-021
  -3.4299999999999997E-002    -2.4571719174346631E-021
  -3.4200000000000001E-002    -1.9977179197044217E-021
  -3.4099999999999998E-002    -1.4625594273896931E-021
  -3.4000000000000002E-002    -1.3388201951661143E-021
  -3.3900000000000000E-002    -9.3833209859707795E-022
  -3.3799999999999997E-002     2.8552087139377029E-022
  -3.3700000000000001E-002     2.1680749186764725E-021
  -3.3599999999999998E-002     5.3062081292660354E-021
  -3.3500000000000002E-002     9.4320416413224044E-021
  -3.3399999999999999E-002     1.4702159573501196E-020
  -3.3300000000000003E-002     1.8741898043295643E-020
  -3.3200000000000000E-002     2.2982486305575622E-020
  -3.3099999999999997E-002     2.7175600539926167E-020
  -3.3000000000000002E-002     3.2011644136557819E-020
  -3.2899999999999999E-002     3.5954739799589943E-020
  -3.2800000000000003E-002     3.8810144655903120E-020
  -3.2700000000000000E-002     4.0526987097825339E-020
  -3.2600000000000004E-002     3.9503942394681972E-020
  -3.2500000000000001E-002     3.6888898129800805E-020
  -3.2399999999999998E-002     3.2624100294319445E-020
  -3.2300000000000002E-002     2.7678196772583093E-020
  -3.2199999999999999E-002     2.1341196795969892E-020
  -3.2100000000000004E-002     1.3590616238337458E-020
  -3.2000000000000001E-002     2.7291022931532858E-021
  -3.1899999999999998E-002    -7.6502485576498669E-021
  -3.1800000000000002E-002    -1.9379701147600910E-020
  -3.1699999999999999E-002    -3.0361654690236077E-020
  -3.1600000000000003E-002    -4.0702779133864197E-020
  -3.1500000000000000E-002    -5.0869904843172079E-020
  -3.1399999999999997E-002    -6.6297782926043578E-020
  -3.1300000000000001E-002    -9.1412046148313331E-020
  -3.1199999999999999E-002    -1.1309332242038049E-019
  -3.1100000000000003E-002    -1.3450118318825619E-019
  -3.1000000000000000E-002    -1.5994344937279736E-019
  -3.0900000000000000E-002    -1.9444002161764691E-019
  -3.0800000000000001E-002    -2.2521357024766891E-019
  -3.0699999999999998E-002    -2.5661763729960946E-019
  -3.0600000000000002E-002    -2.9437021215531793E-019
  -3.0499999999999999E-002    -3.3120231593501387E-019
  -3.0400000000000000E-002    -3.5621457744799818E-019
  -3.0300000000000001E-002    -3.6873062144714390E-019
  -3.0200000000000001E-002    -3.6385700252495217E-019
  -3.0100000000000002E-002    -3.4705525822398679E-019
  -2.9999999999999999E-002    -3.1429792368990949E-019
  -2.9899999999999999E-002    -2.6040007574687303E-019
  -2.9800000000000000E-002    -1.9615771385840155E-019
  -2.9700000000000001E-002    -1.1536271828031386E-019
  -2.9600000000000001E-002    -2.9118683341730174E-020
  -2.9499999999999998E-002     4.9653199710289002E-020
  -2.9400000000000003E-002     1.2209379711738756E-019
  -2.9300000000000000E-002     1.9780786163226242E-019
  -2.9200000000000000E-002     2.7416911742827759E-019
  -2.9100000000000001E-002     3.4992839253350730E-019
  -2.8999999999999998E-002     4.2575554814775465E-019
  -2.8900000000000002E-002     4.7697653623099293E-019
  -2.8799999999999999E-002     5.2928800685551753E-019
  -2.8700000000000000E-002     5.8135313275386619E-019
  -2.8600000000000000E-002     6.3587829379394754E-019
  -2.8500000000000001E-002     6.7042425130630591E-019
  -2.8400000000000002E-002     6.8134960113811802E-019
  -2.8299999999999999E-002     6.8585303088679812E-019
  -2.8200000000000003E-002     6.4026902018416730E-019
  -2.8100000000000000E-002     6.0411523035615898E-019
  -2.8000000000000001E-002     6.0295128383672030E-019
  -2.7900000000000001E-002     5.0721365823377430E-019
  -2.7799999999999998E-002     4.5156125681393630E-019
  -2.7700000000000002E-002     4.3819438000659737E-019
  -2.7600000000000000E-002     4.2698197265283522E-019
  -2.7500000000000000E-002     3.9288005603305297E-019
  -2.7400000000000001E-002     3.5528583456586012E-019
  -2.7299999999999998E-002     3.4940463210939638E-019
  -2.7200000000000002E-002     3.8441611136086311E-019
  -2.7099999999999999E-002     4.2046978648535837E-019
  -2.7000000000000000E-002     4.9952547972918847E-019
  -2.6900000000000000E-002     5.5230797801377373E-019
  -2.6800000000000001E-002     5.6873557818392372E-019
  -2.6700000000000002E-002     5.3414546990637034E-019
  -2.6599999999999999E-002     4.9359319886989958E-019
  -2.6500000000000003E-002     4.8609801194198002E-019
  -2.6400000000000000E-002     4.2228671455022524E-019
  -2.6300000000000000E-002     2.6257858513700214E-019
  -2.6200000000000001E-002    -1.1579954719192429E-019
  -2.6099999999999998E-002    -7.2872926585423661E-019
  -2.6000000000000002E-002    -1.3923182652650754E-018
  -2.5899999999999999E-002    -2.1722850628148014E-018
  -2.5800000000000000E-002    -3.1210475769330170E-018
  -2.5700000000000001E-002    -4.0893935920534256E-018
  -2.5599999999999998E-002    -5.2429507229984386E-018
  -2.5500000000000002E-002    -6.4950556705811817E-018
  -2.5399999999999999E-002    -7.7533053293442750E-018
  -2.5300000000000000E-002    -9.1840432389302946E-018
  -2.5200000000000000E-002    -1.0540695544133615E-017
  -2.5100000000000001E-002    -1.1910405722486697E-017
  -2.5000000000000001E-002    -1.3207124656407488E-017
  -2.4899999999999999E-002    -1.4376243536216461E-017
  -2.4800000000000003E-002    -1.5402680377804937E-017
  -2.4700000000000000E-002    -1.6140317034687875E-017
  -2.4600000000000000E-002    -1.6588825943342702E-017
  -2.4500000000000001E-002    -1.6802150860236453E-017
  -2.4399999999999998E-002    -1.6645036174688130E-017
  -2.4299999999999999E-002    -1.6081947861943683E-017
  -2.4199999999999999E-002    -1.5152516145150525E-017
  -2.4100000000000000E-002    -1.3727690922583035E-017
  -2.4000000000000000E-002    -1.1839809993108359E-017
  -2.3900000000000001E-002    -9.5104999938416976E-018
  -2.3800000000000002E-002    -6.5683707562232879E-018
  -2.3699999999999999E-002    -3.1245953545802570E-018
  -2.3599999999999999E-002     7.2222405902317818E-019
  -2.3500000000000000E-002     5.0044646262320501E-018
  -2.3400000000000001E-002     9.8855287943222144E-018
  -2.3300000000000001E-002     1.5048231830964740E-017
  -2.3199999999999998E-002     1.9957682769726193E-017
  -2.3099999999999999E-002     2.4660475867331072E-017
  -2.3000000000000000E-002     2.9073456311160648E-017
  -2.2900000000000000E-002     3.3285168822705047E-017
  -2.2800000000000001E-002     3.6445329634902633E-017
  -2.2700000000000001E-002     3.8605640844760423E-017
  -2.2599999999999999E-002     3.9979713573664111E-017
  -2.2499999999999999E-002     4.0510121634767813E-017
  -2.2400000000000000E-002     4.0312074743787917E-017
  -2.2300000000000000E-002     3.9288991292402731E-017
  -2.2200000000000001E-002     3.7631638982201684E-017
  -2.2100000000000002E-002     3.5023717181834299E-017
  -2.1999999999999999E-002     3.1741881410252612E-017
  -2.1899999999999999E-002     2.8170714404012127E-017
  -2.1800000000000000E-002     2.3909706891043243E-017
  -2.1700000000000001E-002     1.9878946755939720E-017
  -2.1600000000000001E-002     1.5616326240776358E-017
  -2.1499999999999998E-002     1.1268749313620125E-017
  -2.1399999999999999E-002     6.8730660435796459E-018
  -2.1299999999999999E-002     3.0866949728888429E-018
  -2.1200000000000000E-002     3.9595631488174354E-019
  -2.1100000000000001E-002    -2.2628150177750550E-018
  -2.1000000000000001E-002    -4.1325815190154317E-018
  -2.0899999999999998E-002    -5.0564066056167049E-018
  -2.0799999999999999E-002    -4.4337513626010886E-018
  -2.0700000000000000E-002    -3.4248817692717073E-018
  -2.0600000000000000E-002    -1.9787326576932122E-018
  -2.0500000000000001E-002    -2.5894077404996464E-019
  -2.0400000000000001E-002     1.3750850945758754E-018
  -2.0299999999999999E-002     2.7890489187126619E-018
  -2.0199999999999999E-002     3.6915627308072720E-018
  -2.0100000000000000E-002     4.6338537974031790E-018
  -2.0000000000000000E-002     4.3879727059605664E-018
  -1.9900000000000001E-002     3.4409197673733448E-018
  -1.9799999999999998E-002     1.0151811881983141E-018
  -1.9699999999999999E-002    -2.5852030780484628E-018
  -1.9599999999999999E-002    -7.9556643128574100E-018
  -1.9500000000000000E-002    -1.4236239908819411E-017
  -1.9400000000000001E-002    -2.2481900509548112E-017
  -1.9300000000000001E-002    -3.1541008870300234E-017
  -1.9199999999999998E-002    -4.0318308376884117E-017
  -1.9099999999999999E-002    -5.1952831994291516E-017
  -1.9000000000000000E-002    -6.6825082804296824E-017
  -1.8900000000000000E-002    -8.4719699371338186E-017
  -1.8800000000000001E-002    -1.0418736861799409E-016
  -1.8700000000000001E-002    -1.2600299334210421E-016
  -1.8599999999999998E-002    -1.5022011529035789E-016
  -1.8499999999999999E-002    -1.7660118142571969E-016
  -1.8400000000000000E-002    -2.0467790164236619E-016
  -1.8300000000000000E-002    -2.3366947038160654E-016
  -1.8200000000000001E-002    -2.6392310497736599E-016
  -1.8100000000000002E-002    -2.9521271380717666E-016
  -1.7999999999999999E-002    -3.2579393839528672E-016
  -1.7899999999999999E-002    -3.5457797082755996E-016
  -1.7800000000000000E-002    -3.7965491062661556E-016
  -1.7700000000000000E-002    -3.9912930981473519E-016
  -1.7600000000000001E-002    -4.1166576801101326E-016
  -1.7499999999999998E-002    -4.1588367445098446E-016
  -1.7399999999999999E-002    -4.1116249809144620E-016
  -1.7299999999999999E-002    -3.9590494655211369E-016
  -1.7200000000000000E-002    -3.6836128799197596E-016
  -1.7100000000000001E-002    -3.2611038461042500E-016
  -1.7000000000000001E-002    -2.6687435305405719E-016
  -1.6899999999999998E-002    -1.8941692226657526E-016
  -1.6799999999999999E-002    -9.3660297565729836E-017
  -1.6700000000000000E-002     2.4174217744241775E-017
  -1.6600000000000000E-002     1.6129168294391885E-016
  -1.6500000000000001E-002     3.1921847456531079E-016
  -1.6400000000000001E-002     4.9670737298953258E-016
  -1.6299999999999999E-002     6.8936967552373309E-016
  -1.6199999999999999E-002     8.9510143173627144E-016
  -1.6100000000000000E-002     1.1077310536943344E-015
  -1.6000000000000000E-002     1.3225182803272909E-015
  -1.5900000000000001E-002     1.5375595109653052E-015
  -1.5799999999999998E-002     1.7454685124292015E-015
  -1.5699999999999999E-002     1.9392592746073816E-015
  -1.5599999999999999E-002     2.1144328878796225E-015
  -1.5500000000000000E-002     2.2635331329694816E-015
  -1.5400000000000000E-002     2.3799241420099319E-015
  -1.5300000000000001E-002     2.4547857609212142E-015
  -1.5199999999999998E-002     2.4827920582892304E-015
  -1.5099999999999999E-002     2.4567432540623189E-015
  -1.4999999999999999E-002     2.3730343760169654E-015
  -1.4900000000000000E-002     2.2277735195187732E-015
  -1.4800000000000001E-002     2.0178793904638680E-015
  -1.4700000000000001E-002     1.7429481658946464E-015
  -1.4599999999999998E-002     1.4026361621927597E-015
  -1.4499999999999999E-002     9.9680700705370023E-016
  -1.4400000000000000E-002     5.2816930008455030E-016
  -1.4300000000000000E-002     4.4404833720163515E-018
  -1.4200000000000001E-002    -5.7050559497509633E-016
  -1.4099999999999998E-002    -1.1904466797299138E-015
  -1.3999999999999999E-002    -1.8486066322186741E-015
  -1.3899999999999999E-002    -2.5371179986690426E-015
  -1.3800000000000000E-002    -3.2442649369919530E-015
  -1.3700000000000000E-002    -3.9548679814978976E-015
  -1.3600000000000001E-002    -4.6590276463740789E-015
  -1.3499999999999998E-002    -5.3425197073372552E-015
  -1.3399999999999999E-002    -5.9912029493330160E-015
  -1.3299999999999999E-002    -6.5940371449268488E-015
  -1.3200000000000000E-002    -7.1386590012206298E-015
  -1.3100000000000001E-002    -7.6099820143908127E-015
  -1.3000000000000001E-002    -7.9965398994304160E-015
  -1.2899999999999998E-002    -8.2814589129971868E-015
  -1.2799999999999999E-002    -8.4509027718977260E-015
  -1.2699999999999999E-002    -8.4940624886921216E-015
  -1.2600000000000000E-002    -8.3982130874137723E-015
  -1.2500000000000001E-002    -8.1548325695803524E-015
  -1.2399999999999998E-002    -7.7530416440173278E-015
  -1.2299999999999998E-002    -7.1812181716554221E-015
  -1.2199999999999999E-002    -6.4323300849665303E-015
  -1.2100000000000000E-002    -5.4939082119341218E-015
  -1.2000000000000000E-002    -4.3619045821032681E-015
  -1.1900000000000001E-002    -3.0367268300798356E-015
  -1.1799999999999998E-002    -1.5256654743199603E-015
  -1.1699999999999999E-002     1.6628982584231946E-016
  -1.1599999999999999E-002     2.0205003221609097E-015
  -1.1500000000000000E-002     4.0192217331820167E-015
  -1.1400000000000000E-002     6.1431454134773869E-015
  -1.1300000000000001E-002     8.3656336591635301E-015
  -1.1199999999999998E-002     1.0657204217961840E-014
  -1.1099999999999999E-002     1.2977974543550846E-014
  -1.0999999999999999E-002     1.5277802826551938E-014
  -1.0900000000000000E-002     1.7503602124028898E-014
  -1.0800000000000001E-002     1.9600818431980867E-014
  -1.0699999999999998E-002     2.1501907649127891E-014
  -1.0599999999999998E-002     2.3135331066810767E-014
  -1.0499999999999999E-002     2.4433210852768325E-014
  -1.0400000000000000E-002     2.5328401011205821E-014
  -1.0300000000000000E-002     2.5740663805095751E-014
  -1.0200000000000001E-002     2.5603141229845437E-014
  -1.0099999999999998E-002     2.4842852926719450E-014
  -9.9999999999999985E-003     2.3404945042053600E-014
  -9.8999999999999991E-003     2.1261365538700720E-014
  -9.7999999999999997E-003     1.8365429348739942E-014
  -9.7000000000000003E-003     1.4707317666246694E-014
  -9.6000000000000009E-003     1.0285546489497387E-014
  -9.4999999999999980E-003     5.1182897574083078E-015
  -9.3999999999999986E-003    -7.4331926857716842E-016
  -9.2999999999999992E-003    -7.2356612143401923E-015
  -9.1999999999999998E-003    -1.4258224185744253E-014
  -9.1000000000000004E-003    -2.1698622580798230E-014
  -9.0000000000000011E-003    -2.9397921678378167E-014
  -8.8999999999999982E-003    -3.7184885297867135E-014
  -8.7999999999999988E-003    -4.4891272367149695E-014
  -8.6999999999999994E-003    -5.2303125751881202E-014
  -8.5999999999999965E-003    -5.9191407743124091E-014
  -8.5000000000000006E-003    -6.5303333216231579E-014
  -8.3999999999999977E-003    -7.0383918149025809E-014
  -8.3000000000000018E-003    -7.4194075633682993E-014
  -8.1999999999999990E-003    -7.6487915393746997E-014
  -8.0999999999999961E-003    -7.7024934282306223E-014
  -8.0000000000000002E-003    -7.5639635613994338E-014
  -7.8999999999999973E-003    -7.2154589703284089E-014
  -7.8000000000000014E-003    -6.6417696537902915E-014
  -7.6999999999999985E-003    -5.8361051180535334E-014
  -7.6000000000000026E-003    -4.7905957494117843E-014
  -7.4999999999999997E-003    -3.5028939113484342E-014
  -7.3999999999999969E-003    -1.9841545195590539E-014
  -7.3000000000000009E-003    -2.4622574385489444E-015
  -7.1999999999999981E-003     1.6802482460400413E-014
  -7.1000000000000021E-003     3.7612213419756929E-014
  -6.9999999999999993E-003     5.9620467200358074E-014
  -6.8999999999999964E-003     8.2370247504303523E-014
  -6.8000000000000005E-003     1.0532839113700995E-013
  -6.6999999999999976E-003     1.2791144825188144E-013
  -6.6000000000000017E-003     1.4952833892953321E-013
  -6.4999999999999988E-003     1.6948798592895942E-013
  -6.3999999999999960E-003     1.8717601253659399E-013
  -6.3000000000000000E-003     2.0187269824528675E-013
  -6.1999999999999972E-003     2.1294574990057130E-013
  -6.1000000000000013E-003     2.1969255028456841E-013
  -5.9999999999999984E-003     2.2158044442246311E-013
  -5.9000000000000025E-003     2.1810632184864065E-013
  -5.7999999999999996E-003     2.0877287257910909E-013
  -5.6999999999999967E-003     1.9316361390183528E-013
  -5.6000000000000008E-003     1.7103206600543180E-013
  -5.4999999999999979E-003     1.4218131067032097E-013
  -5.4000000000000020E-003     1.0652011905995171E-013
  -5.2999999999999992E-003     6.4251555464966970E-014
  -5.1999999999999963E-003     1.5708341203311826E-014
  -5.1000000000000004E-003    -3.8772377506952199E-014
  -4.9999999999999975E-003    -9.8524785335438181E-014
  -4.9000000000000016E-003    -1.6263821344363050E-013
  -4.7999999999999987E-003    -2.3014280910692297E-013
  -4.6999999999999958E-003    -2.9982675955712856E-013
  -4.5999999999999999E-003    -3.7046803342058454E-013
  -4.4999999999999971E-003    -4.4060537011426926E-013
  -4.4000000000000011E-003    -5.0859024023491850E-013
  -4.2999999999999983E-003    -5.7269830154235701E-013
  -4.2000000000000023E-003    -6.3108871427297597E-013
  -4.0999999999999995E-003    -6.8200691405104208E-013
  -3.9999999999999966E-003    -7.2354356664069974E-013
  -3.9000000000000007E-003    -7.5379914983575436E-013
  -3.7999999999999978E-003    -7.7111933375131891E-013
  -3.7000000000000019E-003    -7.7371735320713730E-013
  -3.5999999999999990E-003    -7.6018802797755969E-013
  -3.4999999999999962E-003    -7.2912737045932596E-013
  -3.4000000000000002E-003    -6.7931646636001930E-013
  -3.2999999999999974E-003    -6.1005497528632269E-013
  -3.2000000000000015E-003    -5.2090965005011092E-013
  -3.0999999999999986E-003    -4.1192353347763166E-013
  -2.9999999999999957E-003    -2.8349127515966965E-013
  -2.8999999999999998E-003    -1.3672378929973500E-013
  -2.7999999999999969E-003     2.6907643119384629E-014
  -2.7000000000000010E-003     2.0576066078834693E-013
  -2.5999999999999981E-003     3.9735901201376489E-013
  -2.5000000000000022E-003     5.9875368552120278E-013
  -2.3999999999999994E-003     8.0665693309028841E-013
  -2.2999999999999965E-003     1.0175925857155987E-012
  -2.2000000000000006E-003     1.2271194260379814E-012
  -2.0999999999999977E-003     1.4307581812020298E-012
  -2.0000000000000018E-003     1.6232316055533880E-012
  -1.8999999999999989E-003     1.7995606090351335E-012
  -1.7999999999999960E-003     1.9538259898865817E-012
  -1.7000000000000001E-003     2.0806216992352855E-012
  -1.5999999999999973E-003     2.1745764910985343E-012
  -1.5000000000000013E-003     2.2303660654476865E-012
  -1.3999999999999985E-003     2.2435291471833985E-012
  -1.2999999999999956E-003     2.2098787643559659E-012
  -1.1999999999999997E-003     2.1262076300987420E-012
  -1.0999999999999968E-003     1.9899832649772353E-012
  -1.0000000000000009E-003     1.7995544290827503E-012
  -8.9999999999999802E-004     1.5545572641662009E-012
  -8.0000000000000210E-004     1.2559607217091373E-012
  -6.9999999999999923E-004     9.0560545173978824E-013
  -5.9999999999999637E-004     5.0679149462065642E-013
  -5.0000000000000044E-004     6.4168146436584944E-014
  -3.9999999999999758E-004    -4.1646268139801379E-013
  -3.0000000000000165E-004    -9.2751490082115806E-013
  -1.9999999999999879E-004    -1.4602181226328059E-012
  -9.9999999999995925E-005    -2.0046180427418792E-012
   0.0000000000000000         -2.5502015863626548E-012
   1.0000000000000286E-004    -3.0849483124290034E-012
   1.9999999999999879E-004    -3.5968031938254930E-012
   3.0000000000000165E-004    -4.0731701865526215E-012
   4.0000000000000452E-004    -4.5006325055663154E-012
   5.0000000000000044E-004    -4.8656751371056739E-012
   6.0000000000000331E-004    -5.1566294637095389E-012
   6.9999999999999923E-004    -5.3604577374133378E-012
   8.0000000000000210E-004    -5.4666098037170485E-012
   8.9999999999999802E-004    -5.4649436018183728E-012
   1.0000000000000009E-003    -5.3471905722690671E-012
   1.1000000000000038E-003    -5.1071343334929686E-012
   1.1999999999999997E-003    -4.7405694821034405E-012
   1.3000000000000025E-003    -4.2443427245020260E-012
   1.3999999999999985E-003    -3.6195469364785904E-012
   1.5000000000000013E-003    -2.8705074341800474E-012
   1.6000000000000042E-003    -2.0032118325241655E-012
   1.7000000000000001E-003    -1.0271402868869406E-012
   1.8000000000000030E-003     4.5684938850595186E-014
   1.8999999999999989E-003     1.1992264820070986E-012
   2.0000000000000018E-003     2.4153780104479994E-012
   2.1000000000000046E-003     3.6735523477327003E-012
   2.2000000000000006E-003     4.9493278399259655E-012
   2.3000000000000034E-003     6.2182346945161004E-012
   2.3999999999999994E-003     7.4546965822541722E-012
   2.5000000000000022E-003     8.6308200170082117E-012
   2.5999999999999981E-003     9.7150933131562311E-012
   2.7000000000000010E-003     1.0679054862627879E-011
   2.8000000000000039E-003     1.1494742657713886E-011
   2.8999999999999998E-003     1.2136049977462537E-011
   3.0000000000000027E-003     1.2574647920149395E-011
   3.0999999999999986E-003     1.2786472401715709E-011
   3.2000000000000015E-003     1.2752166510254792E-011
   3.3000000000000043E-003     1.2457440461133285E-011
   3.4000000000000002E-003     1.1887109352404224E-011
   3.5000000000000031E-003     1.1031960935048435E-011
   3.5999999999999990E-003     9.8886393865016409E-012
   3.7000000000000019E-003     8.4634235383851397E-012
   3.7999999999999978E-003     6.7634929774851305E-012
   3.9000000000000007E-003     4.8082037483465623E-012
   4.0000000000000036E-003     2.6174962804853541E-012
   4.0999999999999995E-003     2.1674160946907883E-013
   4.2000000000000023E-003    -2.3599241050914488E-012
   4.2999999999999983E-003    -5.0736650124283411E-012
   4.4000000000000011E-003    -7.8716052773208922E-012
   4.5000000000000040E-003    -1.0698711881695910E-011
   4.5999999999999999E-003    -1.3497807906104331E-011
   4.7000000000000028E-003    -1.6215067483171808E-011
   4.7999999999999987E-003    -1.8787478517356959E-011
   4.9000000000000016E-003    -2.1153318680022792E-011
   5.0000000000000044E-003    -2.3253995951044715E-011
   5.1000000000000004E-003    -2.5038637829766230E-011
   5.2000000000000032E-003    -2.6463694083322942E-011
   5.2999999999999992E-003    -2.7484466091909354E-011
   5.4000000000000020E-003    -2.8065849991265601E-011
   5.4999999999999979E-003    -2.8184166805944599E-011
   5.6000000000000008E-003    -2.7827457352302964E-011
   5.7000000000000037E-003    -2.6994149970871462E-011
   5.7999999999999996E-003    -2.5695475261433565E-011
   5.9000000000000025E-003    -2.3948027588760468E-011
   5.9999999999999984E-003    -2.1771435348982848E-011
   6.1000000000000013E-003    -1.9195730074916817E-011
   6.2000000000000041E-003    -1.6267275720904806E-011
   6.3000000000000000E-003    -1.3038108787055691E-011
   6.4000000000000029E-003    -9.5671942590414005E-012
   6.4999999999999988E-003    -5.9130482628344527E-012
   6.6000000000000017E-003    -2.1512737338053034E-012
   6.7000000000000046E-003     1.6497798136297370E-012
   6.8000000000000005E-003     5.4166107363307070E-012
   6.9000000000000034E-003     9.0615431824758730E-012
   6.9999999999999993E-003     1.2505767255088784E-011
   7.1000000000000021E-003     1.5694143901123780E-011
   7.1999999999999981E-003     1.8565357584598985E-011
   7.3000000000000009E-003     2.1070919314913894E-011
   7.4000000000000038E-003     2.3160785789233529E-011
   7.4999999999999997E-003     2.4809015952698132E-011
   7.6000000000000026E-003     2.5969034214701203E-011
   7.6999999999999985E-003     2.6627481469754244E-011
   7.8000000000000014E-003     2.6761955498888490E-011
   7.9000000000000042E-003     2.6351518189748901E-011
   8.0000000000000002E-003     2.5353991475740578E-011
   8.1000000000000030E-003     2.3748303670800830E-011
   8.1999999999999990E-003     2.1525352680851206E-011
   8.3000000000000018E-003     1.8703944643094772E-011
   8.4000000000000047E-003     1.5286787460877527E-011
   8.5000000000000006E-003     1.1283422113317343E-011
   8.6000000000000035E-003     6.7400260719829852E-012
   8.6999999999999994E-003     1.7081852425604449E-012
   8.8000000000000023E-003    -3.7458642958287935E-012
   8.8999999999999982E-003    -9.5464374252896000E-012
   9.0000000000000011E-003    -1.5641510656139168E-011
   9.1000000000000039E-003    -2.1986966067255587E-011
   9.1999999999999998E-003    -2.8499116261349045E-011
   9.3000000000000027E-003    -3.5110161306084464E-011
   9.3999999999999986E-003    -4.1673959422228180E-011
   9.5000000000000015E-003    -4.8129635693561212E-011
   9.6000000000000044E-003    -5.4298961160714754E-011
   9.7000000000000003E-003    -6.0066812634929079E-011
   9.8000000000000032E-003    -6.5300202745088853E-011
   9.8999999999999991E-003    -6.9898691001935020E-011
   1.0000000000000002E-002    -7.3730459237975055E-011
   1.0100000000000005E-002    -7.6659234515830121E-011
   1.0200000000000001E-002    -7.8602145625605857E-011
   1.0300000000000004E-002    -7.9510190098552869E-011
   1.0400000000000000E-002    -7.9394768537355276E-011
   1.0500000000000002E-002    -7.8225238786533424E-011
   1.0599999999999998E-002    -7.5982817260289437E-011
   1.0700000000000001E-002    -7.2650600813073396E-011
   1.0800000000000004E-002    -6.8168394540268906E-011
   1.0900000000000000E-002    -6.2481318729989965E-011
   1.1000000000000003E-002    -5.5624279488020179E-011
   1.1099999999999999E-002    -4.7571148409364383E-011
   1.1200000000000002E-002    -3.8402125229763939E-011
   1.1300000000000004E-002    -2.8252270314887973E-011
   1.1400000000000000E-002    -1.7223448361969318E-011
   1.1500000000000003E-002    -5.4932087524550699E-012
   1.1599999999999999E-002     6.7771122914950244E-012
   1.1700000000000002E-002     1.9490936642441170E-011
   1.1800000000000005E-002     3.2466314359158588E-011
   1.1900000000000001E-002     4.5480591515101310E-011
   1.2000000000000004E-002     5.8304285011079315E-011
   1.2100000000000000E-002     7.0666333895630373E-011
   1.2200000000000003E-002     8.2430055836635319E-011
   1.2299999999999998E-002     9.3525485966861055E-011
   1.2400000000000001E-002     1.0382296411481917E-010
   1.2500000000000004E-002     1.1319765264028447E-010
   1.2600000000000000E-002     1.2141668226384184E-010
   1.2700000000000003E-002     1.2839244944995443E-010
   1.2799999999999999E-002     1.3389643560568487E-010
   1.2900000000000002E-002     1.3780235286198206E-010
   1.3000000000000005E-002     1.4012811744290588E-010
   1.3100000000000001E-002     1.4073267551317770E-010
   1.3200000000000003E-002     1.3953378730224841E-010
   1.3299999999999999E-002     1.3660099440482298E-010
   1.3400000000000002E-002     1.3202221260666391E-010
   1.3500000000000005E-002     1.2603748600348297E-010
   1.3600000000000001E-002     1.1863206250684044E-010
   1.3700000000000004E-002     1.0985815729336323E-010
   1.3800000000000000E-002     9.9805726183621601E-011
   1.3900000000000003E-002     8.8768888073520458E-011
   1.3999999999999999E-002     7.7112892460373672E-011
   1.4100000000000001E-002     6.5020815120941933E-011
   1.4200000000000004E-002     5.2658998689336656E-011
   1.4300000000000000E-002     4.0190691052988115E-011
   1.4400000000000003E-002     2.8121657780211251E-011
   1.4499999999999999E-002     1.7042664154920395E-011