  -4.0000000000000001E-002     0.0000000000000000
  -3.9899999999999998E-002     0.0000000000000000
  -3.9800000000000002E-002     0.0000000000000000
  -3.9699999999999999E-002     0.0000000000000000
  -3.9600000000000003E-002     0.0000000000000000
  -3.9500000000000000E-002     0.0000000000000000
  -3.9399999999999998E-002     0.0000000000000000
  -3.9300000000000002E-002     0.0000000000000000
  -3.9199999999999999E-002     0.0000000000000000
  -3.9100000000000003E-002     0.0000000000000000
  -3.9000000000000000E-002     0.0000000000000000
  -3.8900000000000004E-002    -5.6674115091152902E-041
  -3.8800000000000001E-002    -1.2856002566178385E-039
  -3.8699999999999998E-002    -1.5193453883878504E-038
  -3.8600000000000002E-002    -1.2450971818569326E-037
  -3.8500000000000000E-002    -7.9468528258722458E-037
  -3.8400000000000004E-002    -4.2073460399961064E-036
  -3.8300000000000001E-002    -1.9220526497394455E-035
  -3.8199999999999998E-002    -7.7827971421975559E-035
  -3.8100000000000002E-002    -2.8480402889937886E-034
  -3.7999999999999999E-002    -9.5574220225628808E-034
  -3.7900000000000003E-002    -2.9747396159824746E-033
  -3.7800000000000000E-002    -8.6655672954253109E-033
  -3.7699999999999997E-002    -2.3799884411529486E-032
  -3.7600000000000001E-002    -6.2003571301424789E-032
  -3.7499999999999999E-002    -1.5400254933625661E-031
  -3.7400000000000003E-002    -3.6624856329671697E-031
  -3.7300000000000000E-002    -8.3706247425444600E-031
  -3.7200000000000004E-002    -1.8443841145192805E-030
  -3.7100000000000001E-002    -3.9287383477928261E-030
  -3.6999999999999998E-002    -8.1097855553625325E-030
  -3.6900000000000002E-002    -1.6256985309160325E-029
  -3.6799999999999999E-002    -3.1707165462695918E-029
  -3.6700000000000003E-002    -6.0267307229483407E-029
  -3.6600000000000001E-002    -1.1180306198128486E-028
  -3.6499999999999998E-002    -2.0269567662912557E-028
  -3.6400000000000002E-002    -3.5955422058183494E-028
  -3.6299999999999999E-002    -6.2469738121161457E-028
  -3.6200000000000003E-002    -1.0640652201767676E-027
  -3.6100000000000000E-002    -1.7783792513368799E-027
  -3.6000000000000004E-002    -2.9185186080204460E-027
  -3.5900000000000001E-002    -4.7061985602447608E-027
  -3.5799999999999998E-002    -7.4610695527396623E-027
  -3.5700000000000003E-002    -1.1635249995518871E-026
  -3.5600000000000000E-002    -1.7855969819522621E-026
  -3.5500000000000004E-002    -2.6976306597293618E-026
  -3.5400000000000001E-002    -4.0132842492908145E-026
  -3.5299999999999998E-002    -5.8807213901510767E-026
  -3.5200000000000002E-002    -8.4885821440566162E-026
  -3.5099999999999999E-002    -1.2070829096949177E-025
  -3.5000000000000003E-002    -1.6909004240711808E-025
  -3.4900000000000000E-002    -2.3329806923670807E-025
  -3.4799999999999998E-002    -3.1695053130386446E-025
  -3.4700000000000002E-002    -4.2380151904892092E-025
  -3.4599999999999999E-002    -5.5736055137968927E-025
  -3.4500000000000003E-002    -7.2028433926163088E-025
  -3.4400000000000000E-002    -9.1346542950519673E-025
  -3.4299999999999997E-002    -1.1347301651898569E-024
  -3.4200000000000001E-002    -1.3770474290673765E-024
  -3.4099999999999998E-002    -1.6261462343242417E-024
  -3.4000000000000002E-002    -1.8574376879371004E-024
  -3.3900000000000000E-002    -2.0321516429970555E-024
  -3.3799999999999997E-002    -2.0926227617629037E-024
  -3.3700000000000001E-002    -1.9567059720978495E-024
  -3.3599999999999998E-002    -1.5113720016028553E-024
  -3.3500000000000002E-002    -6.0563065434732353E-025
  -3.3399999999999999E-002     9.5693501804172166E-025
  -3.3300000000000003E-002     3.4255669497716365E-024
  -3.3200000000000000E-002     7.1089935967982965E-024
  -3.3099999999999997E-002     1.2380420123001105E-023
  -3.3000000000000002E-002     1.9679616761518145E-023
  -3.2899999999999999E-002     2.9510538624179902E-023
  -3.2800000000000003E-002     4.2432544101912345E-023
  -3.2700000000000000E-002     5.9042919229103564E-023
  -3.2600000000000004E-002     7.9948067694484190E-023
  -3.2500000000000001E-002     1.0572043114709328E-022
  -3.2399999999999998E-002     1.3683797094307339E-022
  -3.2300000000000002E-002     1.7360309217727556E-022
  -3.2199999999999999E-002     2.1603792713125667E-022
  -3.2100000000000004E-002     2.6375351058075758E-022
  -3.2000000000000001E-002     3.1579091583116612E-022
  -3.1899999999999998E-002     3.7043401069305380E-022
  -3.1800000000000002E-002     4.2499498829015160E-022
  -3.1699999999999999E-002     4.7557624466194353E-022
  -3.1600000000000003E-002     5.1681531794490339E-022
  -3.1500000000000000E-002     5.4162306228260823E-022
  -3.1399999999999997E-002     5.4092952101828688E-022
  -3.1300000000000001E-002     5.0345754254768324E-022
  -3.1199999999999999E-002     4.1554854934408551E-022
  -3.1100000000000003E-002     2.6107198934818135E-022
  -3.1000000000000000E-002     2.1455014493034070E-023
  -3.0900000000000000E-002    -3.2412456865166572E-022
  -3.0800000000000001E-002    -7.9833480914835407E-022
  -3.0699999999999998E-002    -1.4250231788434193E-021
  -3.0600000000000002E-002    -2.2282337289876655E-021
  -3.0499999999999999E-002    -3.2308553912747123E-021
  -3.0400000000000000E-002    -4.4528489466921950E-021
  -3.0300000000000001E-002    -5.9090139811801369E-021
  -3.0200000000000001E-002    -7.6062641979296400E-021
  -3.0100000000000002E-002    -9.5404006859797172E-021
  -2.9999999999999999E-002    -1.1692397483448082E-020
  -2.9899999999999999E-002    -1.4024247903009910E-020
  -2.9800000000000000E-002    -1.6474452197032878E-020
  -2.9700000000000001E-002    -1.8953281463894155E-020
  -2.9600000000000001E-002    -2.1338007626967588E-020
  -2.9499999999999998E-002    -2.3468332130828350E-020
  -2.9400000000000003E-002    -2.5142330817546870E-020
  -2.9300000000000000E-002    -2.6113293838254941E-020
  -2.9200000000000000E-002    -2.6087898424097282E-020
  -2.9100000000000001E-002    -2.4726197577121610E-020
  -2.8999999999999998E-002    -2.1644022448346727E-020
  -2.8900000000000002E-002    -1.6418352549395590E-020
  -2.8799999999999999E-002    -8.5962790299141391E-021
  -2.8700000000000000E-002     2.2918143528484431E-021
  -2.8600000000000000E-002     1.6714300647343444E-020
  -2.8500000000000001E-002     3.5115099779060336E-020
  -2.8400000000000002E-002     5.7884819721450834E-020
  -2.8299999999999999E-002     8.5326077716151501E-020
  -2.8200000000000003E-002     1.1761303728737023E-019
  -2.8100000000000000E-002     1.5474551102699949E-019
  -2.8000000000000001E-002     1.9649817622864955E-019
  -2.7900000000000001E-002     2.4236627177290406E-019
  -2.7799999999999998E-002     2.9150894271770872E-019
  -2.7700000000000002E-002     3.4269273352277626E-019
  -2.7600000000000000E-002     3.9423743356885835E-019
  -2.7500000000000000E-002     4.4396763539312294E-019
  -2.7400000000000001E-002     4.8917367625460532E-019
  -2.7299999999999998E-002     5.2658607308340135E-019
  -2.7200000000000002E-002     5.5236831049970182E-019
  -2.7099999999999999E-002     5.6213286743816060E-019
  -2.7000000000000000E-002     5.5098516111793659E-019
  -2.6900000000000000E-002     5.1360166391179162E-019
  -2.6800000000000001E-002     4.4434596712578938E-019
  -2.6700000000000002E-002     3.3742806496600009E-019
  -2.6599999999999999E-002     1.8711008986647896E-019
  -2.6500000000000003E-002    -1.2039035435515384E-020
  -2.6400000000000000E-002    -2.6483885616080329E-019
  -2.6300000000000000E-002    -5.7514395318452517E-019
  -2.6200000000000001E-002    -9.4544458928368885E-019
  -2.6099999999999998E-002    -1.3764285392882381E-018
  -2.6000000000000002E-002    -1.8665113387348274E-018
  -2.5899999999999999E-002    -2.4113497724196708E-018
  -2.5800000000000000E-002    -3.0033523902710626E-018
  -2.5700000000000001E-002    -3.6312074974123403E-018
  -2.5599999999999998E-002    -4.2794536406288159E-018
  -2.5500000000000002E-002    -4.9281154421030994E-018
  -2.5399999999999999E-002    -5.5524366268723974E-018
  -2.5300000000000000E-002    -6.1227445720032079E-018
  -2.5200000000000000E-002    -6.6044747084193899E-018
  -2.5100000000000001E-002    -6.9583963412093911E-018
  -2.5000000000000001E-002    -7.1410667717825390E-018
  -2.4899999999999999E-002    -7.1055484634601245E-018
  -2.4800000000000003E-002    -6.8024215105451671E-018
  -2.4700000000000000E-002    -6.1811038185800491E-018
  -2.4600000000000000E-002    -5.1915029840297842E-018
  -2.4500000000000001E-002    -3.7859994598006135E-018
  -2.4399999999999998E-002    -1.9217541823538751E-018
  -2.4299999999999999E-002     4.3667945041349478E-019
  -2.4199999999999999E-002     3.3144767321433358E-018
  -2.4100000000000000E-002     6.7234526454162609E-018
  -2.4000000000000000E-002     1.0658832652037826E-017
  -2.3900000000000001E-002     1.5095984967727426E-017
  -2.3800000000000002E-002     1.9987209808871886E-017
  -2.3699999999999999E-002     2.5258740862804950E-017
  -2.3599999999999999E-002     3.0808093760353750E-017
  -2.3500000000000000E-002     3.6501925332413512E-017
  -2.3400000000000001E-002     4.2174594315681717E-017
  -2.3300000000000001E-002     4.7627583980590539E-017
  -2.3199999999999998E-002     5.2630011674564177E-017
  -2.3099999999999999E-002     5.6920362592582767E-017
  -2.3000000000000000E-002     6.0209636372232531E-017
  -2.2900000000000000E-002     6.2186088492976934E-017
  -2.2800000000000001E-002     6.2521606184318243E-017
  -2.2700000000000001E-002     6.0879897513861799E-017
  -2.2599999999999999E-002     5.6926437407001356E-017
  -2.2499999999999999E-002     5.0340183833115284E-017
  -2.2400000000000000E-002     4.0826994675102177E-017
  -2.2300000000000000E-002     2.8134523597851707E-017
  -2.2200000000000001E-002     1.2068348415828185E-017
  -2.2100000000000002E-002    -7.4909633437118571E-018
  -2.1999999999999999E-002    -3.0570322347636607E-017
  -2.1899999999999999E-002    -5.7086625895705925E-017
  -2.1800000000000000E-002    -8.6829916523299764E-017
  -2.1700000000000001E-002    -1.1944785830286239E-016
  -2.1600000000000001E-002    -1.5443227778815552E-016
  -2.1499999999999998E-002    -1.9110860588091971E-016
  -2.1399999999999999E-002    -2.2862904201029221E-016
  -2.1299999999999999E-002    -2.6597022479220203E-016
  -2.1200000000000000E-002    -3.0193627605402409E-016
  -2.1100000000000001E-002    -3.3516810496210926E-016
  -2.1000000000000001E-002    -3.6415936929888419E-016
  -2.0899999999999998E-002    -3.8727995415735797E-016
  -2.0799999999999999E-002    -4.0280725922061137E-016
  -2.0700000000000000E-002    -4.0896542697516655E-016
  -2.0600000000000000E-002    -4.0397267067691488E-016
  -2.0500000000000001E-002    -3.8609617267401088E-016
  -2.0400000000000001E-002    -3.5371431485871580E-016
  -2.0299999999999999E-002    -3.0538486481965156E-016
  -2.0199999999999999E-002    -2.3991829713129753E-016
  -2.0100000000000000E-002    -1.5645437042637815E-016
  -2.0000000000000000E-002    -5.4540272802692087E-017
  -1.9900000000000001E-002     6.5792205534459010E-017
  -1.9799999999999998E-002     2.0395285467440631E-016
  -1.9699999999999999E-002     3.5872552059334985E-016
  -1.9599999999999999E-002     5.2820974590778169E-016
  -1.9500000000000000E-002     7.0977512273956282E-016
  -1.9400000000000001E-002     9.0003084585193625E-016
  -1.9300000000000001E-002     1.0948145424025352E-015
  -1.9199999999999998E-002     1.2892030980832399E-015
  -1.9099999999999999E-002     1.4775474384105748E-015
  -1.9000000000000000E-002     1.6535348385868904E-015
  -1.8900000000000000E-002     1.8102798736630748E-015
  -1.8800000000000001E-002     1.9404455442500112E-015
  -1.8700000000000001E-002     2.0363944718996630E-015
  -1.8599999999999998E-002     2.0903699523975488E-015
  -1.8499999999999999E-002     2.0947059140545435E-015
  -1.8400000000000000E-002     2.0420628163826888E-015
  -1.8300000000000000E-002     1.9256851481111578E-015
  -1.8200000000000001E-002     1.7396769246523502E-015
  -1.8100000000000002E-002     1.4792885146336560E-015
  -1.7999999999999999E-002     1.1412083368686661E-015
  -1.7899999999999999E-002     7.2385058686144275E-016
  -1.7800000000000000E-002     2.2763031075614059E-016
  -1.7700000000000000E-002    -3.4478343769088287E-016
  -1.7600000000000001E-002    -9.8824710384698509E-016
  -1.7499999999999998E-002    -1.6949648082238743E-015
  -1.7399999999999999E-002    -2.4543647855464288E-015
  -1.7299999999999999E-002    -3.2530382925013762E-015
  -1.7200000000000000E-002    -4.0747523661710614E-015
  -1.7100000000000001E-002    -4.9005442682070657E-015
  -1.7000000000000001E-002    -5.7089042321885764E-015
  -1.6899999999999998E-002    -6.4760518081214292E-015
  -1.6799999999999999E-002    -7.1763104627590307E-015
  -1.6700000000000000E-002    -7.7825768358551380E-015
  -1.6600000000000000E-002    -8.2668933344362018E-015
  -1.6500000000000001E-002    -8.6010995011378058E-015
  -1.6400000000000001E-002    -8.7575761326488290E-015
  -1.6299999999999999E-002    -8.7100567372749155E-015
  -1.6199999999999999E-002    -8.4344940496435157E-015
  -1.6100000000000000E-002    -7.9099663559574485E-015
  -1.6000000000000000E-002    -7.1196016069403553E-015
  -1.5900000000000001E-002    -6.0514934839691562E-015
  -1.5799999999999998E-002    -4.6995852779545093E-015
  -1.5699999999999999E-002    -3.0644948994314365E-015
  -1.5599999999999999E-002    -1.1542510560696062E-015
  -1.5500000000000000E-002     1.0150908484948947E-015
  -1.5400000000000000E-002     3.4189798819232557E-015
  -1.5300000000000001E-002     6.0240758744994818E-015
  -1.5199999999999998E-002     8.7881599512753400E-015
  -1.5099999999999999E-002     1.1660265716298066E-014
  -1.4999999999999999E-002     1.4581058935128968E-014
  -1.4900000000000000E-002     1.7483474927136242E-014
  -1.4800000000000001E-002     2.0293616843935526E-014
  -1.4700000000000001E-002     2.2931933045186592E-014
  -1.4599999999999998E-002     2.5314651972405990E-014
  -1.4499999999999999E-002     2.7355476214861556E-014
  -1.4400000000000000E-002     2.8967496804033210E-014
  -1.4300000000000000E-002     3.0065326042574142E-014
  -1.4200000000000001E-002     3.0567392963597867E-014
  -1.4099999999999998E-002     3.0398352292380221E-014
  -1.3999999999999999E-002     2.9491586581685547E-014
  -1.3899999999999999E-002     2.7791713429290571E-014
  -1.3800000000000000E-002     2.5257041873531436E-014
  -1.3700000000000000E-002     2.1861930533028859E-014
  -1.3600000000000001E-002     1.7598945846637737E-014
  -1.3499999999999998E-002     1.2480777214940886E-014
  -1.3399999999999999E-002     6.5418285751569355E-015
  -1.3299999999999999E-002    -1.6058398691648788E-016
  -1.3200000000000000E-002    -7.5454880787539230E-015
  -1.3100000000000001E-002    -1.5508024687549762E-014
  -1.3000000000000001E-002    -2.3919768279262975E-014
  -1.2899999999999998E-002    -3.2629657304014334E-014
  -1.2799999999999999E-002    -4.1465542479669770E-014
  -1.2699999999999999E-002    -5.0236368748712498E-014
  -1.2600000000000000E-002    -5.8734999286089162E-014
  -1.2500000000000001E-002    -6.6741662923305162E-014
  -1.2399999999999998E-002    -7.4027969084594636E-014
  -1.2299999999999998E-002    -8.0361478376703849E-014
  -1.2199999999999999E-002    -8.5510727188334301E-014
  -1.2100000000000000E-002    -8.9250662253532315E-014
  -1.2000000000000000E-002    -9.1368325936831002E-014
  -1.1900000000000001E-002    -9.1668744806299579E-014
  -1.1799999999999998E-002    -8.9980872416701302E-014
  -1.1699999999999999E-002    -8.6163457553752043E-014
  -1.1599999999999999E-002    -8.0110661756626483E-014
  -1.1500000000000000E-002    -7.1757365132339712E-014
  -1.1400000000000000E-002    -6.1083930069042586E-014
  -1.1300000000000001E-002    -4.8120311039881805E-014
  -1.1199999999999998E-002    -3.2949391912812098E-014
  -1.1099999999999999E-002    -1.5709394912298211E-014
  -1.0999999999999999E-002     3.4047545988488302E-015
  -1.0900000000000000E-002     2.4141203020465983E-014
  -1.0800000000000001E-002     4.6192165896333584E-014
  -1.0699999999999998E-002     6.9196222102912985E-014
  -1.0599999999999998E-002     9.2741928774207200E-014
  -1.0499999999999999E-002     1.1637277242109584E-013
  -1.0400000000000000E-002     1.3959349626745110E-013
  -1.0300000000000000E-002     1.6187763206710476E-013
  -1.0200000000000001E-002     1.8267631602276319E-013
  -1.0099999999999998E-002     2.0142818890709485E-013
  -9.9999999999999985E-003     2.1757030584709097E-013
  -9.8999999999999991E-003     2.3054981860247403E-013
  -9.7999999999999997E-003     2.3983630836540981E-013
  -9.7000000000000003E-003     2.4493466066130565E-013
  -9.6000000000000009E-003     2.4539794024960870E-013
  -9.4999999999999980E-003     2.4084038799734864E-013
  -9.3999999999999986E-003     2.3095002472939274E-013
  -9.2999999999999992E-003     2.1550067232003339E-013
  -9.1999999999999998E-003     1.9436312097536462E-013
  -9.1000000000000004E-003     1.6751518520843195E-013
  -9.0000000000000011E-003     1.3505024193134069E-013
  -8.8999999999999982E-003     9.7184101586524074E-014
  -8.7999999999999988E-003     5.4259975147945977E-014
  -8.6999999999999994E-003     6.7511702269719941E-015
  -8.5999999999999965E-003    -4.4738572655550479E-014
  -8.5000000000000006E-003    -9.9477345035393211E-014
  -8.3999999999999977E-003    -1.5661004936461109E-013
  -8.3000000000000018E-003    -2.1516629081751171E-013
  -8.1999999999999990E-003    -2.7407104905875779E-013
  -8.0999999999999961E-003    -3.3215837307205842E-013
  -8.0000000000000002E-003    -3.8818788136198157E-013
  -7.8999999999999973E-003    -4.4086397943746136E-013
  -7.8000000000000014E-003    -4.8885781490579094E-013
  -7.6999999999999985E-003    -5.3083150939117751E-013
  -7.6000000000000026E-003    -5.6546439622731648E-013
  -7.4999999999999997E-003    -5.9148112839871314E-013
  -7.3999999999999969E-003    -6.0768116883977430E-013
  -7.3000000000000009E-003    -6.1296871441476886E-013
  -7.1999999999999981E-003    -6.0638348725952640E-013
  -7.1000000000000021E-003    -5.8713076718161505E-013
  -6.9999999999999993E-003    -5.5461077353921584E-013
  -6.8999999999999964E-003    -5.0844620397630380E-013
  -6.8000000000000005E-003    -4.4850782159391867E-013
  -6.6999999999999976E-003    -3.7493668109470080E-013
  -6.6000000000000017E-003    -2.8816288548047519E-013
  -6.4999999999999988E-003    -1.8891973489060243E-013
  -6.3999999999999960E-003    -7.8252908439126884E-014
  -6.3000000000000000E-003     4.2476205251674656E-014
  -6.1999999999999972E-003     1.7159341168023617E-013
  -6.1000000000000013E-003     3.0712143440393691E-013
  -5.9999999999999984E-003     4.4679684214551929E-013
  -5.9000000000000025E-003     5.8809429765230292E-013
  -5.7999999999999996E-003     7.2825838241807883E-013
  -5.6999999999999967E-003     8.6434315650987803E-013
  -5.6000000000000008E-003     9.9325853531589958E-013
  -5.4999999999999979E-003     1.1118240659732659E-012
  -5.4000000000000020E-003     1.2168289379582697E-012
  -5.2999999999999992E-003     1.3050971978470494E-012
  -5.1999999999999963E-003     1.3735581682466913E-012
  -5.1000000000000004E-003     1.4193194146014387E-012
  -4.9999999999999975E-003     1.4397429646054172E-012
  -4.9000000000000016E-003     1.4325208770940567E-012
  -4.7999999999999987E-003     1.3957505940950798E-012
  -4.6999999999999958E-003     1.3280070402729716E-012
  -4.5999999999999999E-003     1.2284098434636737E-012
  -4.4999999999999971E-003     1.0966839415760266E-012
  -4.4000000000000011E-003     9.3321216639713489E-013
  -4.2999999999999983E-003     7.3907655169513919E-013
  -4.2000000000000023E-003     5.1608749825765576E-013
  -4.0999999999999995E-003     2.6679946771822338E-013
  -3.9999999999999966E-003    -5.4892228491863846E-015
  -3.9000000000000007E-003    -2.9675291087286060E-013
  -3.7999999999999978E-003    -6.0227278893265623E-013
  -3.7000000000000019E-003    -9.1668914212889030E-013
  -3.5999999999999990E-003    -1.2340716556286102E-012
  -3.4999999999999962E-003    -1.5480081409433022E-012
  -3.4000000000000002E-003    -1.8517101914306000E-012
  -3.2999999999999974E-003    -2.1381349381982551E-012
  -3.2000000000000015E-003    -2.4001217679980869E-012
  -3.0999999999999986E-003    -2.6305403168225272E-012
  -2.9999999999999957E-003    -2.8224497392037584E-012
  -2.8999999999999998E-003    -2.9692630732630620E-012
  -2.7999999999999969E-003    -3.0649168099305957E-012
  -2.7000000000000010E-003    -3.1040378600799556E-012
  -2.5999999999999981E-003    -3.0821083532583948E-012
  -2.5000000000000022E-003    -2.9956208954379226E-012
  -2.3999999999999994E-003    -2.8422212500212041E-012
  -2.2999999999999965E-003    -2.6208347558148715E-012
  -2.2000000000000006E-003    -2.3317714946402557E-012
  -2.0999999999999977E-003    -1.9768063054537155E-012
  -2.0000000000000018E-003    -1.5592332112956964E-012
  -1.8999999999999989E-003    -1.0838854770309214E-012
  -1.7999999999999960E-003    -5.5712465890644935E-013
  -1.7000000000000001E-003     1.3206029694269594E-014
  -1.5999999999999973E-003     6.1786486300549615E-013
  -1.5000000000000013E-003     1.2463306211726866E-012
  -1.3999999999999985E-003     1.8869567366963658E-012
  -1.2999999999999956E-003     2.5271612059951654E-012
  -1.1999999999999997E-003     3.1536448799607264E-012
  -1.0999999999999968E-003     3.7526414267685659E-012
  -1.0000000000000009E-003     4.3101876234796777E-012
  -8.9999999999999802E-004     4.8124165243079720E-012
  -8.0000000000000210E-004     5.2458593025050959E-012
  -6.9999999999999923E-004     5.5977570669052401E-012
  -5.9999999999999637E-004     5.8563713774273385E-012
  -5.0000000000000044E-004     6.0112891227259713E-012
  -3.9999999999999758E-004     6.0537104842883771E-012
  -3.0000000000000165E-004     5.9767186859349675E-012
  -1.9999999999999879E-004     5.7755176509355355E-012
  -9.9999999999995925E-005     5.4476380004220282E-012
   0.0000000000000000          4.9930996837144193E-012
   1.0000000000000286E-004     4.4145286384744686E-012
   1.9999999999999879E-004     3.7172227101978095E-012
   3.0000000000000165E-004     2.9091611931930661E-012
   4.0000000000000452E-004     2.0009621130162580E-012
   5.0000000000000044E-004     1.0057764083387655E-012
   6.0000000000000331E-004    -6.0871941439267357E-014
   6.9999999999999923E-004    -1.1813034274735235E-012
   8.0000000000000210E-004    -2.3359530455790978E-012
   8.9999999999999802E-004    -3.5036895260076584E-012
   1.0000000000000009E-003    -4.6621790629475246E-012
   1.1000000000000038E-003    -5.7882843483569868E-012
   1.1999999999999997E-003    -6.8584959760087383E-012
   1.3000000000000025E-003    -7.8493834695936293E-012
   1.3999999999999985E-003    -8.7380606222930979E-012
   1.5000000000000013E-003    -9.5026547394794214E-012
   1.6000000000000042E-003    -1.0122766340436851E-011
   1.7000000000000001E-003    -1.0579918018061019E-011
   1.8000000000000030E-003    -1.0857976844025341E-011
   1.8999999999999989E-003    -1.0943543814201373E-011
   2.0000000000000018E-003    -1.0826298191268791E-011
   2.1000000000000046E-003    -1.0499298479238472E-011
   2.2000000000000006E-003    -9.9592252847391372E-012
   2.3000000000000034E-003    -9.2065617282588441E-012
   2.3999999999999994E-003    -8.2457105379796225E-012
   2.5000000000000022E-003    -7.0850439230774054E-012
   2.5999999999999981E-003    -5.7368831907211870E-012
   2.7000000000000010E-003    -4.2174085404522721E-012
   2.8000000000000039E-003    -2.5465005538266583E-012
   2.8999999999999998E-003    -7.4751484299348525E-013
   3.0000000000000027E-003     1.1530057507716518E-012
   3.0999999999999986E-003     3.1256791859640698E-012
   3.2000000000000015E-003     5.1386846167122968E-012
   3.3000000000000043E-003     7.1582119572088931E-012
   3.4000000000000002E-003     9.1489532963451303E-012
   3.5000000000000031E-003     1.1074626458940084E-011
   3.5999999999999990E-003     1.2898530334093383E-011
   3.7000000000000019E-003     1.4584115165527933E-011
   3.7999999999999978E-003     1.6095572791252621E-011
   3.9000000000000007E-003     1.7398422980097195E-011
   4.0000000000000036E-003     1.8460106707141044E-011
   4.0999999999999995E-003     1.9250566418715920E-011
   4.2000000000000023E-003     1.9742816756429526E-011
   4.2999999999999983E-003     1.9913478851996125E-011
   4.4000000000000011E-003     1.9743302479002800E-011
   4.5000000000000040E-003     1.9217648306035784E-011
   4.5999999999999999E-003     1.8326918108102497E-011
   4.7000000000000028E-003     1.7066955487754498E-011
   4.7999999999999987E-003     1.5439373737824447E-011
   4.9000000000000016E-003     1.3451837733990946E-011
   5.0000000000000044E-003     1.1118273836319137E-011
   5.1000000000000004E-003     8.4590034629683508E-012
   5.2000000000000032E-003     5.5007981676624684E-012
   5.2999999999999992E-003     2.2768492820290920E-012
   5.4000000000000020E-003    -1.1733586107939842E-012
   5.4999999999999979E-003    -4.8042724312691298E-012
   5.6000000000000008E-003    -8.5646021524832250E-012
   5.7000000000000037E-003    -1.2397762504112730E-011
   5.7999999999999996E-003    -1.6242431011281866E-011
   5.9000000000000025E-003    -2.0033214670478472E-011
   5.9999999999999984E-003    -2.3701455728608600E-011
   6.1000000000000013E-003    -2.7176129402395333E-011
   6.2000000000000041E-003    -3.0384868232591344E-011
   6.3000000000000000E-003    -3.3255103532026098E-011
   6.4000000000000029E-003    -3.5715284896209454E-011
   6.4999999999999988E-003    -3.7696193389002985E-011
   6.6000000000000017E-003    -3.9132336260294664E-011
   6.7000000000000046E-003    -3.9963383297036970E-011
   6.8000000000000005E-003    -4.0135623990966707E-011
   6.9000000000000034E-003    -3.9603445523006542E-011
   6.9999999999999993E-003    -3.8330765644856157E-011
   7.1000000000000021E-003    -3.6292413518879130E-011
   7.1999999999999981E-003    -3.3475430760709912E-011
   7.3000000000000009E-003    -2.9880209417854076E-011
   7.4000000000000038E-003    -2.5521510252368707E-011
   7.4999999999999997E-003    -2.0429236427532693E-011
   7.6000000000000026E-003    -1.4648999027699894E-011
   7.6999999999999985E-003    -8.2424006855874588E-012
   7.8000000000000014E-003    -1.2870178013602018E-012
   7.9000000000000042E-003     6.1239385958089532E-012
   8.0000000000000002E-003     1.3882312834001542E-011
   8.1000000000000030E-003     2.1866055840980003E-011
   8.1999999999999990E-003     2.9940636775416252E-011
   8.3000000000000018E-003     3.7960839333051055E-011
   8.4000000000000047E-003     4.5772885481909498E-011
   8.5000000000000006E-003     5.3216920453680316E-011
   8.6000000000000035E-003     6.0129796974894845E-011
   8.6999999999999994E-003     6.6348121441350827E-011
   8.8000000000000023E-003     7.1711525606588111E-011
   8.8999999999999982E-003     7.6066083987136324E-011
   9.0000000000000011E-003     7.9267863106746717E-011
   9.1000000000000039E-003     8.1186453393389257E-011
   9.1999999999999998E-003     8.1708480259568006E-011
   9.3000000000000027E-003     8.0740948649182798E-011
   9.3999999999999986E-003     7.8214407173149425E-011
   9.5000000000000015E-003     7.4085765300324624E-011
   9.6000000000000044E-003     6.8340749725948058E-011
   9.7000000000000003E-003     6.0995868078617121E-011
   9.8000000000000032E-003     5.2099886904688475E-011
   9.8999999999999991E-003     4.1734650457758704E-011
   1.0000000000000002E-002     3.0015285396034486E-011
   1.0100000000000005E-002     1.7089666487501987E-011
   1.0200000000000001E-002     3.1372166149623570E-012
   1.0300000000000004E-002    -1.1633067772964800E-011
   1.0400000000000000E-002    -2.6985302881143980E-011
   1.0500000000000002E-002    -4.2660108084957571E-011
   1.0599999999999998E-002    -5.8378656075941393E-011
   1.0700000000000001E-002    -7.3847351844680276E-011
   1.0800000000000004E-002    -8.8762990013702137E-011
   1.0900000000000000E-002    -1.0281841350545662E-010
   1.1000000000000003E-002    -1.1570847752162550E-010
   1.1099999999999999E-002    -1.2713621821980325E-010
   1.1200000000000002E-002    -1.3681915322916183E-010
   1.1300000000000004E-002    -1.4449552665496412E-010
   1.1400000000000000E-002    -1.4993035979404823E-010
   1.1500000000000003E-002    -1.5292123123344936E-010
   1.1599999999999999E-002    -1.5330357816534246E-010
   1.1700000000000002E-002    -1.5095544259047244E-010
   1.1800000000000005E-002    -1.4580149587661850E-010
   1.1900000000000001E-002    -1.3781630003872891E-010
   1.2000000000000004E-002    -1.2702662532948494E-010
   1.2100000000000000E-002    -1.1351284495697556E-010
   1.2200000000000003E-002    -9.7409247334923066E-011
   1.2299999999999998E-002    -7.8903335254398854E-011
   1.2400000000000001E-002    -5.8234035649196159E-011
   1.2500000000000004E-002    -3.5688823424306904E-011
   1.2600000000000000E-002    -1.1599850420485058E-011
   1.2700000000000003E-002     1.3660910944124360E-011
   1.2799999999999999E-002     3.9687426955925531E-011
   1.2900000000000002E-002     6.6046133839758880E-011
   1.3000000000000005E-002     9.2283167218987217E-011
   1.3100000000000001E-002     1.1793212240096551E-010
   1.3200000000000003E-002     1.4252218849541975E-010
   1.3299999999999999E-002     1.6558661386500972E-010
   1.3400000000000002E-002     1.8667117851478565E-010
   1.3500000000000005E-002     2.0534257627602415E-010
   1.3600000000000001E-002     2.2119664433439823E-010
   1.3700000000000004E-002     2.3386617642451313E-010
   1.3800000000000000E-002     2.4302809764620292E-010
   1.3900000000000003E-002     2.4841015355825391E-010
   1.3999999999999999E-002     2.4979660007140581E-010
   1.4100000000000001E-002     2.4703314394081133E-010
   1.4200000000000004E-002     2.4003082854662239E-010
   1.4300000000000000E-002     2.2876886496270288E-010
   1.4400000000000003E-002     2.1329638055789246E-010
   1.4499999999999999E-002     1.9373298798530669E-010