  -4.0000000000000001E-002     0.0000000000000000
  -3.9899999999999998E-002     0.0000000000000000
  -3.9800000000000002E-002     0.0000000000000000
  -3.9699999999999999E-002     0.0000000000000000
  -3.9600000000000003E-002    -1.3395876518844126E-017
  -3.9500000000000000E-002    -1.1957267654857419E-016
  -3.9399999999999998E-002    -5.9109527185695386E-016
  -3.9300000000000002E-002    -2.1360438747376320E-015
  -3.9199999999999999E-002    -6.2954161028888189E-015
  -3.9100000000000003E-002    -1.6028219807710624E-014
  -3.9000000000000000E-002    -3.6502552825008749E-014
  -3.8900000000000004E-002    -7.6089884447436834E-014
  -3.8800000000000001E-002    -1.4753271575327492E-013
  -3.8699999999999998E-002    -2.6922447561236740E-013
  -3.8600000000000002E-002    -4.6650666185935052E-013
  -3.8500000000000000E-002    -7.7285481616881646E-013
  -3.8400000000000004E-002    -1.2307948714027073E-012
  -3.8300000000000001E-002    -1.8923658213348959E-012
  -3.8199999999999998E-002    -2.8189332378775189E-012
  -3.8100000000000002E-002    -4.0801494127773452E-012
  -3.7999999999999999E-002    -5.7518759720431856E-012
  -3.7900000000000003E-002    -7.9129021043899961E-012
  -3.7800000000000000E-002    -1.0640352314517099E-011
  -3.7699999999999997E-002    -1.4003722660638207E-011
  -3.7600000000000001E-002    -1.8057576267604958E-011
  -3.7499999999999999E-002    -2.2833014992618139E-011
  -3.7400000000000003E-002    -2.8328157528068054E-011
  -3.7300000000000000E-002    -3.4497942696942729E-011
  -3.7200000000000004E-002    -4.1243702897375556E-011
  -3.7100000000000001E-002    -4.8403048930056869E-011
  -3.6999999999999998E-002    -5.5740696780492982E-011
  -3.6900000000000002E-002    -6.2940930245503068E-011
  -3.6799999999999999E-002    -6.9602441865601605E-011
  -3.6700000000000003E-002    -7.5236254726274154E-011
  -3.6600000000000001E-002    -7.9267530039839329E-011
  -3.6499999999999998E-002    -8.1041763577704984E-011
  -3.6400000000000002E-002    -7.9835998922916929E-011
  -3.6299999999999999E-002    -7.4875279587605093E-011
  -3.6200000000000003E-002    -6.5354582856613774E-011
  -3.6100000000000000E-002    -5.0466023721051911E-011
  -3.6000000000000004E-002    -2.9430957670939506E-011
  -3.5900000000000001E-002    -1.5362803260435265E-012
  -3.5799999999999998E-002     3.3826098172484720E-011
  -3.5700000000000003E-002     7.7117923158454005E-011
  -3.5600000000000000E-002     1.2861302300937183E-010
  -3.5500000000000004E-002     1.8835727422228388E-010
  -3.5400000000000001E-002     2.5613219878373172E-010
  -3.5299999999999998E-002     3.3142436017818966E-010
  -3.5200000000000002E-002     4.1340250667154521E-010
  -3.5099999999999999E-002     5.0090481762410377E-010
  -3.5000000000000003E-002     5.9243815409004696E-010
  -3.4900000000000000E-002     6.8619032678185476E-010
  -3.4799999999999998E-002     7.8005790715707235E-010
  -3.4700000000000002E-002     8.7168861018227517E-010
  -3.4599999999999999E-002     9.5853991410876915E-010
  -3.4500000000000003E-002     1.0379520576364598E-009
  -3.4400000000000000E-002     1.1072351924212853E-009
  -3.4299999999999997E-002     1.1637676378128958E-009
  -3.4200000000000001E-002     1.2051030173765298E-009
  -3.4099999999999998E-002     1.2290832795969209E-009
  -3.4000000000000002E-002     1.2339517185822046E-009
  -3.3900000000000000E-002     1.2184628861433566E-009
  -3.3799999999999997E-002     1.1819840661786429E-009
  -3.3700000000000001E-002     1.1245820941141460E-009
  -3.3599999999999998E-002     1.0470917466420815E-009
  -3.3500000000000002E-002     9.5115970655257343E-010
  -3.3399999999999999E-002     8.3925982830024282E-010
  -3.3300000000000003E-002     7.1467642914768703E-010
  -3.3200000000000000E-002     5.8145238623907858E-010
  -3.3099999999999997E-002     4.4430079060298056E-010
  -3.3000000000000002E-002     3.0848018583995440E-010
  -3.2899999999999999E-002     1.7963472376258949E-010
  -3.2800000000000003E-002     6.3602151323394196E-011
  -3.2700000000000000E-002    -3.3805080262849785E-011
  -3.2600000000000004E-002    -1.0703954389512660E-010
  -3.2500000000000001E-002    -1.5107121109636523E-010
  -3.2399999999999998E-002    -1.6164318494826801E-010
  -3.2300000000000002E-002    -1.3552045596831874E-010
  -3.2199999999999999E-002    -7.0720360123566195E-011
  -3.2100000000000004E-002     3.3286637335372404E-011
  -3.2000000000000001E-002     1.7541733343673371E-010
  -3.1899999999999998E-002     3.5286809585421963E-010
  -3.1800000000000002E-002     5.6106896906271686E-010
  -3.1699999999999999E-002     7.9370737759987264E-010
  -3.1600000000000003E-002     1.0428277130714037E-009
  -3.1500000000000000E-002     1.2990104547583314E-009
  -3.1399999999999997E-002     1.5516307128038420E-009
  -3.1300000000000001E-002     1.7891940151670838E-009
  -3.1199999999999999E-002     1.9997437039620536E-009
  -3.1100000000000003E-002     2.1713295605962912E-009
  -3.1000000000000000E-002     2.2925255027672620E-009
  -3.0900000000000000E-002     2.3529800330379658E-009
  -3.0800000000000001E-002     2.3439801211111444E-009
  -3.0699999999999998E-002     2.2590094239660630E-009
  -3.0600000000000002E-002     2.0942749756613921E-009
  -3.0499999999999999E-002     1.8491829179012598E-009
  -3.0400000000000000E-002     1.5267348496550426E-009
  -3.0300000000000001E-002     1.1338274763517120E-009
  -3.0200000000000001E-002     6.8143013454147194E-010
  -3.0100000000000002E-002     1.8462580075873092E-010
  -2.9999999999999999E-002    -3.3750013894717767E-010
  -2.9899999999999999E-002    -8.6213208794205798E-010
  -2.9800000000000000E-002    -1.3631615836118272E-009
  -2.9700000000000001E-002    -1.8117872757628106E-009
  -2.9600000000000001E-002    -2.1772696978672457E-009
  -2.9499999999999998E-002    -2.4278259402876756E-009
  -2.9400000000000003E-002    -2.5316422291865592E-009
  -2.9300000000000000E-002    -2.4579773771904456E-009
  -2.9200000000000000E-002    -2.1783244097406396E-009
  -2.9100000000000001E-002    -1.6675918423914027E-009
  -2.8999999999999998E-002    -9.0526453000450147E-010
  -2.8900000000000002E-002     1.2350014066964121E-010
  -2.8799999999999999E-002     1.4268854986454471E-009
  -2.8700000000000000E-002     3.0055800070982741E-009
  -2.8600000000000000E-002     4.8521360263009683E-009
  -2.8500000000000001E-002     6.9505579070039403E-009
  -2.8400000000000002E-002     9.2761522907380822E-009
  -2.8299999999999999E-002     1.1795660448399303E-008
  -2.8200000000000003E-002     1.4467692821540368E-008
  -2.8100000000000000E-002     1.7243467098637666E-008
  -2.8000000000000001E-002     2.0067846051574634E-008
  -2.7900000000000001E-002     2.2880653816059748E-008
  -2.7799999999999998E-002     2.5618248855607817E-008
  -2.7700000000000002E-002     2.8215316305590932E-008
  -2.7600000000000000E-002     3.0606823742118650E-008
  -2.7500000000000000E-002     3.2730081755971696E-008
  -2.7400000000000001E-002     3.4526852488170334E-008
  -2.7299999999999998E-002     3.5945447507401695E-008
  -2.7200000000000002E-002     3.6942697789754675E-008
  -2.7099999999999999E-002     3.7485776260837156E-008
  -2.7000000000000000E-002     3.7553760989794682E-008
  -2.6900000000000000E-002     3.7138914166234827E-008
  -2.6800000000000001E-002     3.6247556067792175E-008
  -2.6700000000000002E-002     3.4900551781902323E-008
  -2.6599999999999999E-002     3.3133328969370268E-008
  -2.6500000000000003E-002     3.0995412458878491E-008
  -2.6400000000000000E-002     2.8549500541430461E-008
  -2.6300000000000000E-002     2.5870036779451766E-008
  -2.6200000000000001E-002     2.3041362595677128E-008
  -2.6099999999999998E-002     2.0155450641823336E-008
  -2.6000000000000002E-002     1.7309298883105839E-008
  -2.5899999999999999E-002     1.4602074216440997E-008
  -2.5800000000000000E-002     1.2132058024860726E-008
  -2.5700000000000001E-002     9.9935260067240961E-009
  -2.5599999999999998E-002     8.2736475448541569E-009
  -2.5500000000000002E-002     7.0495231874190267E-009
  -2.5399999999999999E-002     6.3854588283618341E-009
  -2.5300000000000000E-002     6.3305907183064392E-009
  -2.5200000000000000E-002     6.9169505678701171E-009
  -2.5100000000000001E-002     8.1580564526007038E-009
  -2.5000000000000001E-002     1.0048094800652052E-008
  -2.4899999999999999E-002     1.2561750750705869E-008
  -2.4800000000000003E-002     1.5654705975975958E-008
  -2.4700000000000000E-002     1.9264817296971160E-008
  -2.4600000000000000E-002     2.3313951658110454E-008
  -2.4500000000000001E-002     2.7710434835626074E-008
  -2.4399999999999998E-002     3.2352062362406286E-008
  -2.4299999999999999E-002     3.7129549212977508E-008
  -2.4199999999999999E-002     4.1930370286991092E-008
  -2.4100000000000000E-002     4.6642792739248762E-008
  -2.4000000000000000E-002     5.1160021996565774E-008
  -2.3900000000000001E-002     5.5384298036642576E-008
  -2.3800000000000002E-002     5.9230785609543091E-008
  -2.3699999999999999E-002     6.2631137609514553E-008
  -2.3599999999999999E-002     6.5536546856037603E-008
  -2.3500000000000000E-002     6.7920232993401441E-008
  -2.3400000000000001E-002     6.9779190425833804E-008
  -2.3300000000000001E-002     7.1135154655621591E-008
  -2.3199999999999998E-002     7.2034730180803308E-008
  -2.3099999999999999E-002     7.2548594687305012E-008
  -2.3000000000000000E-002     7.2769886116930138E-008
  -2.2900000000000000E-002     7.2811708662356978E-008
  -2.2800000000000001E-002     7.2803850059699471E-008
  -2.2700000000000001E-002     7.2888859392605809E-008
  -2.2599999999999999E-002     7.3217549356741074E-008
  -2.2499999999999999E-002     7.3944072198628419E-008
  -2.2400000000000000E-002     7.5220768280814809E-008
  -2.2300000000000000E-002     7.7192943592763186E-008
  -2.2200000000000001E-002     7.9993782264864421E-008
  -2.2100000000000002E-002     8.3739557510398299E-008
  -2.1999999999999999E-002     8.8525325736554805E-008
  -2.1899999999999999E-002     9.4421309881909110E-008
  -2.1800000000000000E-002     1.0147007145633324E-007
  -2.1700000000000001E-002     1.0968457786475483E-007
  -2.1600000000000001E-002     1.1904739238843831E-007
  -2.1499999999999998E-002     1.2951083760981419E-007
  -2.1399999999999999E-002     1.4099833833824960E-007
  -2.1299999999999999E-002     1.5340680192821310E-007
  -2.1200000000000000E-002     1.6661005020068842E-007
  -2.1100000000000001E-002     1.8046316085928993E-007
  -2.1000000000000001E-002     1.9480759760881483E-007
  -2.0899999999999998E-002     2.0947697976225754E-007
  -2.0799999999999999E-002     2.2430327817346551E-007
  -2.0700000000000000E-002     2.3912326696517994E-007
  -2.0600000000000000E-002     2.5378486157023872E-007
  -2.0500000000000001E-002     2.6815339992936060E-007
  -2.0400000000000001E-002     2.8211732683303126E-007
  -2.0299999999999999E-002     2.9559330982920073E-007
  -2.0199999999999999E-002     3.0853036037115089E-007
  -2.0100000000000000E-002     3.2091315915749874E-007
  -2.0000000000000000E-002     3.3276390354330943E-007
  -1.9900000000000001E-002     3.4414324545650743E-007
  -1.9799999999999998E-002     3.5514975138539739E-007
  -1.9699999999999999E-002     3.6591799812413228E-007
  -1.9599999999999999E-002     3.7661570218006091E-007
  -1.9500000000000000E-002     3.8743937125218508E-007
  -1.9400000000000001E-002     3.9860924516688101E-007
  -1.9300000000000001E-002     4.1036318521037174E-007
  -1.9199999999999998E-002     4.2294999502701103E-007
  -1.9099999999999999E-002     4.3662248572218232E-007
  -1.9000000000000000E-002     4.5163022832639399E-007
  -1.8900000000000000E-002     4.6821261889817833E-007
  -1.8800000000000001E-002     4.8659217100066599E-007
  -1.8700000000000001E-002     5.0696877451628097E-007
  -1.8599999999999998E-002     5.2951435236536781E-007
  -1.8499999999999999E-002     5.5436913726225612E-007
  -1.8400000000000000E-002     5.8163885796602699E-007
  -1.8300000000000000E-002     6.1139354556871695E-007
  -1.8200000000000001E-002     6.4366753349531791E-007
  -1.8100000000000002E-002     6.7846133333659964E-007
  -1.7999999999999999E-002     7.1574436333321501E-007
  -1.7899999999999999E-002     7.5545972322288435E-007
  -1.7800000000000000E-002     7.9752970805202494E-007
  -1.7700000000000000E-002     8.4186240201233886E-007
  -1.7600000000000001E-002     8.8835935230235918E-007
  -1.7499999999999998E-002     9.3692335667583393E-007
  -1.7399999999999999E-002     9.8746693311113631E-007
  -1.7299999999999999E-002     1.0399204484201618E-006
  -1.7200000000000000E-002     1.0942399057967123E-006
  -1.7100000000000001E-002     1.1504146186780417E-006
  -1.7000000000000001E-002     1.2084731224604184E-006
  -1.6899999999999998E-002     1.2684886314673349E-006
  -1.6799999999999999E-002     1.3305830179888289E-006
  -1.6700000000000000E-002     1.3949290860182373E-006
  -1.6600000000000000E-002     1.4617514807468979E-006
  -1.6500000000000001E-002     1.5313262338167988E-006
  -1.6400000000000001E-002     1.6039780348364729E-006
  -1.6299999999999999E-002     1.6800765934021911E-006
  -1.6199999999999999E-002     1.7600317505639396E-006
  -1.6100000000000000E-002     1.8442869986756705E-006
  -1.6000000000000000E-002     1.9333119780640118E-006
  -1.5900000000000001E-002     2.0275954284443287E-006
  -1.5799999999999998E-002     2.1276364350342192E-006
  -1.5699999999999999E-002     2.2339365841617109E-006
  -1.5599999999999999E-002     2.3469924599339720E-006
  -1.5500000000000000E-002     2.4672883682796964E-006
  -1.5400000000000000E-002     2.5952897431125166E-006
  -1.5300000000000001E-002     2.7314392809785204E-006
  -1.5199999999999998E-002     2.8761530757037690E-006
  -1.5099999999999999E-002     3.0298183446575422E-006
  -1.4999999999999999E-002     3.1927941108733648E-006
  -1.4900000000000000E-002     3.3654127946647350E-006
  -1.4800000000000001E-002     3.5479836242302554E-006
  -1.4700000000000001E-002     3.7407976378744934E-006
  -1.4599999999999998E-002     3.9441342778445687E-006
  -1.4499999999999999E-002     4.1582702579034958E-006
  -1.4400000000000000E-002     4.3834870666614734E-006
  -1.4300000000000000E-002     4.6200821088859811E-006
  -1.4200000000000001E-002     4.8683782551961485E-006
  -1.4099999999999998E-002     5.1287343012518249E-006
  -1.3999999999999999E-002     5.4015549721952993E-006
  -1.3899999999999999E-002     5.6873004723456688E-006
  -1.3800000000000000E-002     5.9864933064091019E-006
  -1.3700000000000000E-002     6.2997278291732073E-006
  -1.3600000000000001E-002     6.6276738834858406E-006
  -1.3499999999999998E-002     6.9710813477286138E-006
  -1.3399999999999999E-002     7.3307833190483507E-006
  -1.3299999999999999E-002     7.7076947491150349E-006
  -1.3200000000000000E-002     8.1028119893744588E-006
  -1.3100000000000001E-002     8.5172086983220652E-006
  -1.3000000000000001E-002     8.9520344772608951E-006
  -1.2899999999999998E-002     9.4085044111125171E-006
  -1.2799999999999999E-002     9.8878945209435187E-006
  -1.2699999999999999E-002     1.0391533578513190E-005
  -1.2600000000000000E-002     1.0920796739810612E-005
  -1.2500000000000001E-002     1.1477095540612936E-005
  -1.2399999999999998E-002     1.2061872439517174E-005
  -1.2299999999999998E-002     1.2676590813498478E-005
  -1.2199999999999999E-002     1.3322735867404845E-005
  -1.2100000000000000E-002     1.4001804629515391E-005
  -1.2000000000000000E-002     1.4715305951540358E-005
  -1.1900000000000001E-002     1.5464762327610515E-005
  -1.1799999999999998E-002     1.6251708075287752E-005
  -1.1699999999999999E-002     1.7077698430512100E-005
  -1.1599999999999999E-002     1.7944310457096435E-005
  -1.1500000000000000E-002     1.8853150322684087E-005
  -1.1400000000000000E-002     1.9805867850664072E-005
  -1.1300000000000001E-002     2.0804165615118109E-005
  -1.1199999999999998E-002     2.1849808035767637E-005
  -1.1099999999999999E-002     2.2944639567867853E-005
  -1.0999999999999999E-002     2.4090591978165321E-005
  -1.0900000000000000E-002     2.5289700715802610E-005
  -1.0800000000000001E-002     2.6544121283222921E-005
  -1.0699999999999998E-002     2.7856132874148898E-005
  -1.0599999999999998E-002     2.9228156563476659E-005
  -1.0499999999999999E-002     3.0662758945254609E-005
  -1.0400000000000000E-002     3.2162664865609258E-005
  -1.0300000000000000E-002     3.3730757422745228E-005
  -1.0200000000000001E-002     3.5370081604924053E-005
  -1.0099999999999998E-002     3.7083853385411203E-005
  -9.9999999999999985E-003     3.8875448808539659E-005
  -9.8999999999999991E-003     4.0748396713752300E-005
  -9.7999999999999997E-003     4.2706393287517130E-005
  -9.7000000000000003E-003     4.4753276597475633E-005
  -9.6000000000000009E-003     4.6893030230421573E-005
  -9.4999999999999980E-003     4.9129768740385771E-005
  -9.3999999999999986E-003     5.1467737648636103E-005
  -9.2999999999999992E-003     5.3911302529741079E-005
  -9.1999999999999998E-003     5.6464938097633421E-005
  -9.1000000000000004E-003     5.9133217291673645E-005
  -9.0000000000000011E-003     6.1920822190586478E-005
  -8.8999999999999982E-003     6.4832544012460858E-005
  -8.7999999999999988E-003     6.7873254010919482E-005
  -8.6999999999999994E-003     7.1047928940970451E-005
  -8.5999999999999965E-003     7.4361661972943693E-005
  -8.5000000000000006E-003     7.7819648140575737E-005
  -8.3999999999999977E-003     8.1427198892924935E-005
  -8.3000000000000018E-003     8.5189778474159539E-005
  -8.1999999999999990E-003     8.9112982095684856E-005
  -8.0999999999999961E-003     9.3202565039973706E-005
  -8.0000000000000002E-003     9.7464471764396876E-005
  -7.8999999999999973E-003     1.0190482862526551E-004
  -7.8000000000000014E-003     1.0652999480953440E-004
  -7.6999999999999985E-003     1.1134653323097154E-004
  -7.6000000000000026E-003     1.1636126873781905E-004
  -7.4999999999999997E-003     1.2158127356087789E-004
  -7.3999999999999969E-003     1.2701391824521124E-004
  -7.3000000000000009E-003     1.3266681344248354E-004
  -7.1999999999999981E-003     1.3854789722245187E-004
  -7.1000000000000021E-003     1.4466539141722023E-004
  -6.9999999999999993E-003     1.5102782344911247E-004
  -6.8999999999999964E-003     1.5764401177875698E-004
  -6.8000000000000005E-003     1.6452308045700192E-004
  -6.6999999999999976E-003     1.7167444457300007E-004
  -6.6000000000000017E-003     1.7910782480612397E-004
  -6.4999999999999988E-003     1.8683318921830505E-004
  -6.3999999999999960E-003     1.9486079690977931E-004
  -6.3000000000000000E-003     2.0320115436334163E-004
  -6.1999999999999972E-003     2.1186502999626100E-004
  -6.1000000000000013E-003     2.2086342505645007E-004
  -5.9999999999999984E-003     2.3020757362246513E-004
  -5.9000000000000025E-003     2.3990889894776046E-004
  -5.7999999999999996E-003     2.4997908622026443E-004
  -5.6999999999999967E-003     2.6043000980280340E-004
  -5.6000000000000008E-003     2.7127371868118644E-004
  -5.4999999999999979E-003     2.8252252377569675E-004
  -5.4000000000000020E-003     2.9418893973343074E-004
  -5.2999999999999992E-003     3.0628565582446754E-004
  -5.1999999999999963E-003     3.1882562325336039E-004
  -5.1000000000000004E-003     3.3182205515913665E-004
  -4.9999999999999975E-003     3.4528839751146734E-004
  -4.9000000000000016E-003     3.5923832911066711E-004
  -4.7999999999999987E-003     3.7368587800301611E-004
  -4.6999999999999958E-003     3.8864530506543815E-004
  -4.5999999999999999E-003     4.0413122042082250E-004
  -4.4999999999999971E-003     4.2015858343802392E-004
  -4.4000000000000011E-003     4.3674270273186266E-004
  -4.2999999999999983E-003     4.5389917795546353E-004
  -4.2000000000000023E-003     4.7164401621557772E-004
  -4.0999999999999995E-003     4.8999366117641330E-004
  -3.9999999999999966E-003     5.0896481843665242E-004
  -3.9000000000000007E-003     5.2857468836009502E-004
  -3.7999999999999978E-003     5.4884073324501514E-004
  -3.7000000000000019E-003     5.6978082284331322E-004
  -3.5999999999999990E-003     5.9141311794519424E-004
  -3.4999999999999962E-003     6.1375630320981145E-004
  -3.4000000000000002E-003     6.3682912150397897E-004
  -3.2999999999999974E-003     6.6065078135579824E-004
  -3.2000000000000015E-003     6.8524066591635346E-004
  -3.0999999999999986E-003     7.1061850758269429E-004
  -2.9999999999999957E-003     7.3680421337485313E-004
  -2.8999999999999998E-003     7.6381786493584514E-004
  -2.7999999999999969E-003     7.9167971853166819E-004
  -2.7000000000000010E-003     8.2041014684364200E-004
  -2.5999999999999981E-003     8.5002975538372993E-004
  -2.5000000000000022E-003     8.8055914966389537E-004
  -2.3999999999999994E-003     9.1201910981908441E-004
  -2.2999999999999965E-003     9.4443047419190407E-004
  -2.2000000000000006E-003     9.7781408112496138E-004
  -2.0999999999999977E-003     1.0121909435838461E-003
  -2.0000000000000018E-003     1.0475820163264871E-003
  -1.8999999999999989E-003     1.0840082541108131E-003
  -1.7999999999999960E-003     1.1214908445253968E-003
  -1.7000000000000001E-003     1.1600509751588106E-003
  -1.5999999999999973E-003     1.1997097171843052E-003
  -1.5000000000000013E-003     1.2404882581904531E-003
  -1.3999999999999985E-003     1.2824079021811485E-003
  -1.2999999999999956E-003     1.3254900695756078E-003
  -1.1999999999999997E-003     1.3697561807930470E-003
  -1.0999999999999968E-003     1.4152275398373604E-003
  -1.0000000000000009E-003     1.4619255671277642E-003
  -8.9999999999999802E-004     1.5098717994987965E-003
  -8.0000000000000210E-004     1.5590876573696733E-003
  -6.9999999999999923E-004     1.6095945611596107E-003
  -5.9999999999999637E-004     1.6614139312878251E-003
  -5.0000000000000044E-004     1.7145669553428888E-003
  -3.9999999999999758E-004     1.7690749373286963E-003
  -3.0000000000000165E-004     1.8249589484184980E-003
  -1.9999999999999879E-004     1.8822397105395794E-003
  -9.9999999999995925E-005     1.9409377127885818E-003
   0.0000000000000000          2.0010734442621469E-003
   1.0000000000000286E-004     2.0626666955649853E-003
   1.9999999999999879E-004     2.1257370244711637E-003
   3.0000000000000165E-004     2.1903032902628183E-003
   4.0000000000000452E-004     2.2563838865607977E-003
   5.0000000000000044E-004     2.3239969741553068E-003
   6.0000000000000331E-004     2.3931597825139761E-003
   6.9999999999999923E-004     2.4638886097818613E-003
   8.0000000000000210E-004     2.5361997541040182E-003
   8.9999999999999802E-004     2.6101078838109970E-003
   1.0000000000000009E-003     2.6856276672333479E-003
   1.1000000000000038E-003     2.7627721428871155E-003
   1.1999999999999997E-003     2.8415538836270571E-003
   1.3000000000000025E-003     2.9219845309853554E-003
   1.3999999999999985E-003     3.0040747951716185E-003
   1.5000000000000013E-003     3.0878339894115925E-003
   1.6000000000000042E-003     3.1732709612697363E-003
   1.7000000000000001E-003     3.2603929284960032E-003
   1.8000000000000030E-003     3.3492064103484154E-003
   1.8999999999999989E-003     3.4397167619317770E-003
   2.0000000000000018E-003     3.5319279413670301E-003
   2.1000000000000046E-003     3.6258429754525423E-003
   2.2000000000000006E-003     3.7214637268334627E-003
   2.3000000000000034E-003     3.8187904283404350E-003
   2.3999999999999994E-003     3.9178221486508846E-003
   2.5000000000000022E-003     4.0185567922890186E-003
   2.5999999999999981E-003     4.1209906339645386E-003
   2.7000000000000010E-003     4.2251185514032841E-003
   2.8000000000000039E-003     4.3309335596859455E-003
   2.8999999999999998E-003     4.4384277425706387E-003
   3.0000000000000027E-003     4.5475903898477554E-003
   3.0999999999999986E-003     4.6584093943238258E-003
   3.2000000000000015E-003     4.7708712518215179E-003
   3.3000000000000043E-003     4.8849596641957760E-003
   3.4000000000000002E-003     5.0006574019789696E-003
   3.5000000000000031E-003     5.1179439760744572E-003
   3.5999999999999990E-003     5.2367970347404480E-003
   3.7000000000000019E-003     5.3571923635900021E-003
   3.7999999999999978E-003     5.4791029542684555E-003
   3.9000000000000007E-003     5.6024990044534206E-003
   4.0000000000000036E-003     5.7273488491773605E-003
   4.0999999999999995E-003     5.8536175638437271E-003
   4.2000000000000023E-003     5.9812674298882484E-003
   4.2999999999999983E-003     6.1102588661015034E-003
   4.4000000000000011E-003     6.2405485659837723E-003
   4.5000000000000040E-003     6.3720908947288990E-003
   4.5999999999999999E-003     6.5048374235630035E-003
   4.7000000000000028E-003     6.6387359984219074E-003
   4.7999999999999987E-003     6.7737316712737083E-003
   4.9000000000000016E-003     6.9097671657800674E-003
   5.0000000000000044E-003     7.0467814803123474E-003
   5.1000000000000004E-003     7.1847103536128998E-003
   5.2000000000000032E-003     7.3234862647950649E-003
   5.2999999999999992E-003     7.4630388990044594E-003
   5.4000000000000020E-003     7.6032942160964012E-003
   5.4999999999999979E-003     7.7441749162971973E-003
   5.6000000000000008E-003     7.8856013715267181E-003
   5.7000000000000037E-003     8.0274874344468117E-003
   5.7999999999999996E-003     8.1697469577193260E-003
   5.9000000000000025E-003     8.3122896030545235E-003
   5.9999999999999984E-003     8.4550203755497932E-003
   6.1000000000000013E-003     8.5978396236896515E-003
   6.2000000000000041E-003     8.7406467646360397E-003
   6.3000000000000000E-003     8.8833346962928772E-003
   6.4000000000000029E-003     9.0257944539189339E-003
   6.4999999999999988E-003     9.1679124161601067E-003
   6.6000000000000017E-003     9.3095712363719940E-003
   6.7000000000000046E-003     9.4506489112973213E-003
   6.8000000000000005E-003     9.5910197123885155E-003
   6.9000000000000034E-003     9.7305541858077049E-003
   6.9999999999999993E-003     9.8691172897815704E-003
   7.1000000000000021E-003     1.0006570257246494E-002
   7.1999999999999981E-003     1.0142772458493710E-002
   7.3000000000000009E-003     1.0277574881911278E-002
   7.4000000000000038E-003     1.0410827584564686E-002
   7.4999999999999997E-003     1.0542373172938824E-002
   7.6000000000000026E-003     1.0672053322196007E-002
   7.6999999999999985E-003     1.0799703188240528E-002
   7.8000000000000014E-003     1.0925153270363808E-002
   7.9000000000000042E-003     1.1048231273889542E-002
   8.0000000000000002E-003     1.1168760247528553E-002
   8.1000000000000030E-003     1.1286558583378792E-002
   8.1999999999999990E-003     1.1401440016925335E-002
   8.3000000000000018E-003     1.1513214558362961E-002
   8.4000000000000047E-003     1.1621688492596149E-002
   8.5000000000000006E-003     1.1726664379239082E-002
   8.6000000000000035E-003     1.1827939189970493E-002
   8.6999999999999994E-003     1.1925306171178818E-002
   8.8000000000000023E-003     1.2018556706607342E-002
   8.8999999999999982E-003     1.2107476592063904E-002
   9.0000000000000011E-003     1.2191847898066044E-002
   9.1000000000000039E-003     1.2271448969841003E-002
   9.1999999999999998E-003     1.2346054427325726E-002
   9.3000000000000027E-003     1.2415437027812004E-002
   9.3999999999999986E-003     1.2479363009333611E-002
   9.5000000000000015E-003     1.2537596747279167E-002
   9.6000000000000044E-003     1.2589900754392147E-002
   9.7000000000000003E-003     1.2636031955480576E-002
   9.8000000000000032E-003     1.2675744481384754E-002
   9.8999999999999991E-003     1.2708790600299835E-002
   1.0000000000000002E-002     1.2734918855130672E-002
   1.0100000000000005E-002     1.2753874063491821E-002
   1.0200000000000001E-002     1.2765399180352688E-002
   1.0300000000000004E-002     1.2769234366714954E-002
   1.0400000000000000E-002     1.2765116989612579E-002
   1.0500000000000002E-002     1.2752783484756947E-002
   1.0599999999999998E-002     1.2731965631246567E-002
   1.0700000000000001E-002     1.2702395208179951E-002
   1.0800000000000004E-002     1.2663802132010460E-002
   1.0900000000000000E-002     1.2615913525223732E-002
   1.1000000000000003E-002     1.2558455578982830E-002
   1.1099999999999999E-002     1.2491153553128242E-002
   1.1200000000000002E-002     1.2413731776177883E-002
   1.1300000000000004E-002     1.2325914576649666E-002
   1.1400000000000000E-002     1.2227424420416355E-002
   1.1500000000000003E-002     1.2117982842028141E-002
   1.1599999999999999E-002     1.1997314170002937E-002
   1.1700000000000002E-002     1.1865140870213509E-002
   1.1800000000000005E-002     1.1721186339855194E-002
   1.1900000000000001E-002     1.1565174907445908E-002
   1.2000000000000004E-002     1.1396832764148712E-002
   1.2100000000000000E-002     1.1215887032449245E-002
   1.2200000000000003E-002     1.1022066697478294E-002
   1.2299999999999998E-002     1.0815101675689220E-002
   1.2400000000000001E-002     1.0594725608825684E-002
   1.2500000000000004E-002     1.0360674001276493E-002
   1.2600000000000000E-002     1.0112686082720757E-002
   1.2700000000000003E-002     9.8505029454827309E-003
   1.2799999999999999E-002     9.5738694071769714E-003
   1.2900000000000002E-002     9.2825358733534813E-003
   1.3000000000000005E-002     8.9762546122074127E-003
   1.3100000000000001E-002     8.6547844111919403E-003
   1.3200000000000003E-002     8.3178877830505371E-003
   1.3299999999999999E-002     7.9653318971395493E-003
   1.3400000000000002E-002     7.5968913733959198E-003
   1.3500000000000005E-002     7.2123445570468903E-003
   1.3600000000000001E-002     6.8114777095615864E-003
   1.3700000000000004E-002     6.3940826803445816E-003
   1.3800000000000000E-002     5.9599578380584717E-003
   1.3900000000000003E-002     5.5089099332690239E-003
   1.3999999999999999E-002     5.0407531671226025E-003
   1.4100000000000001E-002     4.5553101226687431E-003
   1.4200000000000004E-002     4.0524112991988659E-003
   1.4300000000000000E-002     3.5318962763994932E-003
   1.4400000000000003E-002     2.9936139471828938E-003