  -4.0000000000000001E-002     0.0000000000000000
  -3.9899999999999998E-002     0.0000000000000000
  -3.9800000000000002E-002     0.0000000000000000
  -3.9699999999999999E-002    -6.6979381025886187E-014
  -3.9600000000000003E-002    -5.9786328448704906E-013
  -3.9500000000000000E-002    -2.8884960829450579E-012
  -3.9399999999999998E-002    -1.0082354222340495E-011
  -3.9300000000000002E-002    -2.8521605216491608E-011
  -3.9199999999999999E-002    -6.9460888429961898E-011
  -3.9100000000000003E-002    -1.5103568395957723E-010
  -3.9000000000000000E-002    -3.0030827824489847E-010
  -3.8900000000000004E-002    -5.5515070318534754E-010
  -3.8800000000000001E-002    -9.6567276397507840E-010
  -3.8699999999999998E-002    -1.5948693476985909E-009
  -3.8600000000000002E-002    -2.5181514651251291E-009
  -3.8500000000000000E-002    -3.8214404973757610E-009
  -3.8400000000000004E-002    -5.5975548640674333E-009
  -3.8300000000000001E-002    -7.9406925479474921E-009
  -3.8199999999999998E-002    -1.0938919103864464E-008
  -3.8100000000000002E-002    -1.4664713887668768E-008
  -3.7999999999999999E-002    -1.9163763909091358E-008
  -3.7900000000000003E-002    -2.4442385893053142E-008
  -3.7800000000000000E-002    -3.0454106791921731E-008
  -3.7699999999999997E-002    -3.7086120840967851E-008
  -3.7600000000000001E-002    -4.4146464261984875E-008
  -3.7499999999999999E-002    -5.1352916585756248E-008
  -3.7400000000000003E-002    -5.8324648222196629E-008
  -3.7300000000000000E-002    -6.4577733382975566E-008
  -3.7200000000000004E-002    -6.9525540880022163E-008
  -3.7100000000000001E-002    -7.2484994007027126E-008
  -3.6999999999999998E-002    -7.2689452679242095E-008
  -3.6900000000000002E-002    -6.9308754291341756E-008
  -3.6799999999999999E-002    -6.1476640667024185E-008
  -3.6700000000000003E-002    -4.8325468071652722E-008
  -3.6600000000000001E-002    -2.9027583892116127E-008
  -3.6499999999999998E-002    -2.8423792208798204E-009
  -3.6400000000000002E-002     3.0832410402581445E-008
  -3.6299999999999999E-002     7.2407068785196316E-008
  -3.6200000000000003E-002     1.2204628774270532E-007
  -3.6100000000000000E-002     1.7961816922706930E-007
  -3.6000000000000004E-002     2.4464878833896364E-007
  -3.5900000000000001E-002     3.1628536589778378E-007
  -3.5799999999999998E-002     3.9327113654508139E-007
  -3.5700000000000003E-002     4.7393473323609214E-007
  -3.5600000000000000E-002     5.5619682370888768E-007
  -3.5500000000000004E-002     6.3759603108337615E-007
  -3.5400000000000001E-002     7.1533560230818694E-007
  -3.5299999999999998E-002     7.8635162026330363E-007
  -3.5200000000000002E-002     8.4740247530135093E-007
  -3.5099999999999999E-002     8.9517817514206399E-007
  -3.5000000000000003E-002     9.2642738991344231E-007
  -3.4900000000000000E-002     9.3809876489103772E-007
  -3.4799999999999998E-002     9.2749149871451664E-007
  -3.4700000000000002E-002     8.9241018486063695E-007
  -3.4599999999999999E-002     8.3131732253605151E-007
  -3.4500000000000003E-002     7.4347622103232425E-007
  -3.4400000000000000E-002     6.2907707842896343E-007
  -3.4299999999999997E-002     4.8933867446976365E-007
  -3.4200000000000001E-002     3.2657840165484231E-007
  -3.4099999999999998E-002     1.4424342964503012E-007
  -3.4000000000000002E-002    -5.3102105823654711E-008
  -3.3900000000000000E-002    -2.5983874252233363E-007
  -3.3799999999999997E-002    -4.6940490960878378E-007
  -3.3700000000000001E-002    -6.7446239881974179E-007
  -3.3599999999999998E-002    -8.6711264657424181E-007
  -3.3500000000000002E-002    -1.0391602245363174E-006
  -3.3399999999999999E-002    -1.1824168950624880E-006
  -3.3300000000000003E-002    -1.2890377547591925E-006
  -3.3200000000000000E-002    -1.3518787227440043E-006
  -3.3099999999999997E-002    -1.3648613048644620E-006
  -3.3000000000000002E-002    -1.3233305935500539E-006
  -3.2899999999999999E-002    -1.2243905302966596E-006
  -3.2800000000000003E-002    -1.0671993777577882E-006
  -3.2700000000000000E-002    -8.5320880316430703E-007
  -3.2600000000000004E-002    -5.8633082744563580E-007
  -3.2500000000000001E-002    -2.7301820182401570E-007
  -3.2399999999999998E-002     7.7753831817517494E-008
  -3.2300000000000002E-002     4.5461425202120154E-007
  -3.2199999999999999E-002     8.4403558275880641E-007
  -3.2100000000000004E-002     1.2306885537327616E-006
  -3.2000000000000001E-002     1.5979074987626518E-006
  -3.1899999999999998E-002     1.9282583707536105E-006
  -3.1800000000000002E-002     2.2041965621610871E-006
  -3.1699999999999999E-002     2.4087942165351706E-006
  -3.1600000000000003E-002     2.5265160275012022E-006
  -3.1500000000000000E-002     2.5440149329369888E-006
  -3.1399999999999997E-002     2.4509174636477837E-006
  -3.1300000000000001E-002     2.2405649815482320E-006
  -3.1199999999999999E-002     1.9106782929156907E-006
  -3.1100000000000003E-002     1.4639101664215559E-006
  -3.1000000000000000E-002     9.0825295728791389E-007
  -3.0900000000000000E-002     2.5727322849888878E-007
  -3.0800000000000001E-002    -4.6985331891846727E-007
  -3.0699999999999998E-002    -1.2485256775107700E-006
  -3.0600000000000002E-002    -2.0491320356086362E-006
  -3.0499999999999999E-002    -2.8376996397128096E-006
  -3.0400000000000000E-002    -3.5767752706306055E-006
  -3.0300000000000001E-002    -4.2265219235559925E-006
  -3.0200000000000001E-002    -4.7460066525673028E-006
  -3.0100000000000002E-002    -5.0946496230608318E-006
  -2.9999999999999999E-002    -5.2337877605168615E-006
  -2.9899999999999999E-002    -5.1283054744999390E-006
  -2.9800000000000000E-002    -4.7482740228588227E-006
  -2.9700000000000001E-002    -4.0705390347284265E-006
  -2.9600000000000001E-002    -3.0801923003309639E-006
  -2.9499999999999998E-002    -1.7718616618367378E-006
  -2.9400000000000003E-002    -1.5075625015015248E-007
  -2.9300000000000000E-002     1.7665901168584242E-006
  -2.9200000000000000E-002     3.9519286474387627E-006
  -2.9100000000000001E-002     6.3652996686869301E-006
  -2.8999999999999998E-002     8.9554596343077719E-006
  -2.8900000000000002E-002     1.1660749805741943E-005
  -2.8799999999999999E-002     1.4410399671760388E-005
  -2.8700000000000000E-002     1.7126252714660950E-005
  -2.8600000000000000E-002     1.9724890080397017E-005
  -2.8500000000000001E-002     2.2120080757304095E-005
  -2.8400000000000002E-002     2.4225510060205124E-005
  -2.8299999999999999E-002     2.5957700927392580E-005
  -2.8200000000000003E-002     2.7239033443038352E-005
  -2.8100000000000000E-002     2.8000762540614232E-005
  -2.8000000000000001E-002     2.8185921109979972E-005
  -2.7900000000000001E-002     2.7752003006753512E-005
  -2.7799999999999998E-002     2.6673311367630959E-005
  -2.7700000000000002E-002     2.4942872187239118E-005
  -2.7600000000000000E-002     2.2573814931092784E-005
  -2.7500000000000000E-002     1.9600141968112439E-005
  -2.7400000000000001E-002     1.6076830434030853E-005
  -2.7299999999999998E-002     1.2079209227522369E-005
  -2.7200000000000002E-002     7.7016093200654723E-006
  -2.7099999999999999E-002     3.0552912448911229E-006
  -2.7000000000000000E-002    -1.7343218132737093E-006
  -2.6900000000000000E-002    -6.5310341597069055E-006
  -2.6800000000000001E-002    -1.1191813428013120E-005
  -2.6700000000000002E-002    -1.5571149560855702E-005
  -2.6599999999999999E-002    -1.9525710740708746E-005
  -2.6500000000000003E-002    -2.2919148250366561E-005
  -2.6400000000000000E-002    -2.5626879505580291E-005
  -2.6300000000000000E-002    -2.7540680093807168E-005
  -2.6200000000000001E-002    -2.8572927476488985E-005
  -2.6099999999999998E-002    -2.8660311727435328E-005
  -2.6000000000000002E-002    -2.7766865969169885E-005
  -2.5899999999999999E-002    -2.5886187358992174E-005
  -2.5800000000000000E-002    -2.3042719476507045E-005
  -2.5700000000000001E-002    -1.9292023353045806E-005
  -2.5599999999999998E-002    -1.4719980754307471E-005
  -2.5500000000000002E-002    -9.4409106168313883E-006
  -2.5399999999999999E-002    -3.5946295611211099E-006
  -2.5300000000000000E-002     2.6574896310194163E-006
  -2.5200000000000000E-002     9.1373522081994452E-006
  -2.5100000000000001E-002     1.5655738025088795E-005
  -2.5000000000000001E-002     2.2018486561137252E-005
  -2.4899999999999999E-002     2.8033069611410610E-005
  -2.4800000000000003E-002     3.3515341783640906E-005
  -2.4700000000000000E-002     3.8296224374789745E-005
  -2.4600000000000000E-002     4.2228071833960712E-005
  -2.4500000000000001E-002     4.5190517994342372E-005
  -2.4399999999999998E-002     4.7095534682739526E-005
  -2.4299999999999999E-002     4.7891509893815964E-005
  -2.4199999999999999E-002     4.7566169087076560E-005
  -2.4100000000000000E-002     4.6148201363394037E-005
  -2.4000000000000000E-002     4.3707474105758592E-005
  -2.3900000000000001E-002     4.0353785152547061E-005
  -2.3800000000000002E-002     3.6234167055226862E-005
  -2.3699999999999999E-002     3.1528772524325177E-005
  -2.3599999999999999E-002     2.6445457478985190E-005
  -2.3500000000000000E-002     2.1213210857240483E-005
  -2.3400000000000001E-002     1.6074638551799580E-005
  -2.3300000000000001E-002     1.1277743396931328E-005
  -2.3199999999999998E-002     7.0672617766831536E-006
  -2.3099999999999999E-002     3.6758872283826349E-006
  -2.3000000000000000E-002     1.3156688964954810E-006
  -2.2900000000000000E-002     1.6991420181966532E-007
  -2.2800000000000001E-002     3.8589763562413282E-007
  -2.2700000000000001E-002     2.0686738935182802E-006
  -2.2599999999999999E-002     5.2762402447115164E-006
  -2.2499999999999999E-002     1.0016260603151750E-005
  -2.2400000000000000E-002     1.6244528524111956E-005
  -2.2300000000000000E-002     2.3865259208832867E-005
  -2.2200000000000001E-002     3.2733252737671137E-005
  -2.2100000000000002E-002     4.2657902667997405E-005
  -2.1999999999999999E-002     5.3408948588185012E-005
  -2.1899999999999999E-002     6.4723826653789729E-005
  -2.1800000000000000E-002     7.6316369813866913E-005
  -2.1700000000000001E-002     8.7886590335983783E-005
  -2.1600000000000001E-002     9.9131204478908330E-005
  -2.1499999999999998E-002     1.0975456825690344E-004
  -2.1399999999999999E-002     1.1947959865210578E-004
  -2.1299999999999999E-002     1.2805828009732068E-004
  -2.1200000000000000E-002     1.3528144336305559E-004
  -2.1100000000000001E-002     1.4098732208367437E-004
  -2.1000000000000001E-002     1.4506865409202874E-004
  -2.0899999999999998E-002     1.4747797104064375E-004
  -2.0799999999999999E-002     1.4823091623838991E-004
  -2.0700000000000000E-002     1.4740735059604049E-004
  -2.0600000000000000E-002     1.4515018847305328E-004
  -2.0500000000000001E-002     1.4166196342557669E-004
  -2.0400000000000001E-002     1.3719924027100205E-004
  -2.0299999999999999E-002     1.3206497533246875E-004
  -2.0199999999999999E-002     1.2659910134971142E-004
  -2.0100000000000000E-002     1.2116760626668110E-004
  -2.0000000000000000E-002     1.1615053517743945E-004
  -1.9900000000000001E-002     1.1192935198778287E-004
  -1.9799999999999998E-002     1.0887398821068928E-004
  -1.9699999999999999E-002     1.0733016824815422E-004
  -1.9599999999999999E-002     1.0760747682070360E-004
  -1.9500000000000000E-002     1.0996856144629419E-004
  -1.9400000000000001E-002     1.1461992107797414E-004
  -1.9300000000000001E-002     1.2170465197414160E-004
  -1.9199999999999998E-002     1.3129746366757900E-004
  -1.9099999999999999E-002     1.4340215420816094E-004
  -1.9000000000000000E-002     1.5795166837051511E-004
  -1.8900000000000000E-002     1.7481086251791567E-004
  -1.8800000000000001E-002     1.9378184515517205E-004
  -1.8700000000000001E-002     2.1461170399561524E-004
  -1.8599999999999998E-002     2.3700250312685966E-004
  -1.8499999999999999E-002     2.6062311371788383E-004
  -1.8400000000000000E-002     2.8512242715805769E-004
  -1.8300000000000000E-002     3.1014360138215125E-004
  -1.8200000000000001E-002     3.3533875830471516E-004
  -1.8100000000000002E-002     3.6038359394297004E-004
  -1.7999999999999999E-002     3.8499134825542569E-004
  -1.7899999999999999E-002     4.0892572724260390E-004
  -1.7800000000000000E-002     4.3201207881793380E-004
  -1.7700000000000000E-002     4.5414650230668485E-004
  -1.7600000000000001E-002     4.7530260053463280E-004
  -1.7499999999999998E-002     4.9553543794900179E-004
  -1.7399999999999999E-002     5.1498255925253034E-004
  -1.7299999999999999E-002     5.3386227227747440E-004
  -1.7200000000000000E-002     5.5246858391910791E-004
  -1.7100000000000001E-002     5.7116372045129538E-004
  -1.7000000000000001E-002     5.9036805760115385E-004
  -1.6899999999999998E-002     6.1054778052493930E-004
  -1.6799999999999999E-002     6.3220085576176643E-004
  -1.6700000000000000E-002     6.5584178082644939E-004
  -1.6600000000000000E-002     6.8198575172573328E-004
  -1.6500000000000001E-002     7.1113288868218660E-004
  -1.6400000000000001E-002     7.4375286931172013E-004
  -1.6299999999999999E-002     7.8027060953900218E-004
  -1.6199999999999999E-002     8.2105403998866677E-004
  -1.6100000000000000E-002     8.6640386143699288E-004
  -1.6000000000000000E-002     9.1654586140066385E-004
  -1.5900000000000001E-002     9.7162637393921614E-004
  -1.5799999999999998E-002     1.0317107662558556E-003
  -1.5699999999999999E-002     1.0967855341732502E-003
  -1.5599999999999999E-002     1.1667632497847080E-003
  -1.5500000000000000E-002     1.2414904776960611E-003
  -1.5400000000000000E-002     1.3207590673118830E-003
  -1.5300000000000001E-002     1.4043196570128202E-003
  -1.5199999999999998E-002     1.4918971573933959E-003
  -1.5099999999999999E-002     1.5832072822377086E-003
  -1.4999999999999999E-002     1.6779740108177066E-003
  -1.4900000000000000E-002     1.7759476322680712E-003
  -1.4800000000000001E-002     1.8769218586385250E-003
  -1.4700000000000001E-002     1.9807496573776007E-003
  -1.4599999999999998E-002     2.0873569883406162E-003
  -1.4499999999999999E-002     2.1967554930597544E-003
  -1.4400000000000000E-002     2.3090506438165903E-003
  -1.4300000000000000E-002     2.4244475644081831E-003
  -1.4200000000000001E-002     2.5432535912841558E-003
  -1.4099999999999998E-002     2.6658771093934774E-003
  -1.3999999999999999E-002     2.7928228955715895E-003
  -1.3899999999999999E-002     2.9246839694678783E-003
  -1.3800000000000000E-002     3.0621306505054235E-003
  -1.3700000000000000E-002     3.2058968208730221E-003
  -1.3600000000000001E-002     3.3567640930414200E-003
  -1.3499999999999998E-002     3.5155450459569693E-003
  -1.3399999999999999E-002     3.6830645985901356E-003
  -1.3299999999999999E-002     3.8601420819759369E-003
  -1.3200000000000000E-002     4.0475744754076004E-003
  -1.3100000000000001E-002     4.2461198754608631E-003
  -1.3000000000000001E-002     4.4564837589859962E-003
  -1.2899999999999998E-002     4.6793068759143353E-003
  -1.2799999999999999E-002     4.9151573330163956E-003
  -1.2699999999999999E-002     5.1645259372889996E-003
  -1.2600000000000000E-002     5.4278252646327019E-003
  -1.2500000000000001E-002     5.7053919881582260E-003
  -1.2399999999999998E-002     5.9974924661219120E-003
  -1.2299999999999998E-002     6.3043348491191864E-003
  -1.2199999999999999E-002     6.6260811872780323E-003
  -1.2100000000000000E-002     6.9628637284040451E-003
  -1.2000000000000000E-002     7.3148030787706375E-003
  -1.1900000000000001E-002     7.6820277608931065E-003
  -1.1799999999999998E-002     8.0646947026252747E-003
  -1.1699999999999999E-002     8.4630120545625687E-003
  -1.1599999999999999E-002     8.8772550225257874E-003
  -1.1500000000000000E-002     9.3077858909964561E-003
  -1.1400000000000000E-002     9.7550703212618828E-003
  -1.1300000000000001E-002     1.0219689458608627E-002
  -1.1199999999999998E-002     1.0702350176870823E-002
  -1.1099999999999999E-002     1.1203889735043049E-002
  -1.0999999999999999E-002     1.1725278571248055E-002
  -1.0900000000000000E-002     1.2267616577446461E-002
  -1.0800000000000001E-002     1.2832125648856163E-002
  -1.0699999999999998E-002     1.3420141302049160E-002
  -1.0599999999999998E-002     1.4033097773790359E-002
  -1.0499999999999999E-002     1.4672510325908661E-002
  -1.0400000000000000E-002     1.5339957550168037E-002
  -1.0300000000000000E-002     1.6037059947848320E-002
  -1.0200000000000001E-002     1.6765456646680832E-002
  -1.0099999999999998E-002     1.7526786774396896E-002
  -9.9999999999999985E-003     1.8322670832276344E-002
  -9.8999999999999991E-003     1.9154688343405724E-002
  -9.7999999999999997E-003     2.0024362951517105E-002
  -9.7000000000000003E-003     2.0933154970407486E-002
  -9.6000000000000009E-003     2.1882448345422745E-002
  -9.4999999999999980E-003     2.2873546928167343E-002
  -9.3999999999999986E-003     2.3907676339149475E-002
  -9.2999999999999992E-003     2.4985989555716515E-002
  -9.1999999999999998E-003     2.6109572499990463E-002
  -9.1000000000000004E-003     2.7279460802674294E-002
  -9.0000000000000011E-003     2.8496660292148590E-002
  -8.8999999999999982E-003     2.9762158170342445E-002
  -8.7999999999999988E-003     3.1076950952410698E-002
  -8.6999999999999994E-003     3.2442070543766022E-002
  -8.5999999999999965E-003     3.3858604729175568E-002
  -8.5000000000000006E-003     3.5327725112438202E-002
  -8.3999999999999977E-003     3.6850705742835999E-002
  -8.3000000000000018E-003     3.8428943604230881E-002
  -8.1999999999999990E-003     4.0063984692096710E-002
  -8.0999999999999961E-003     4.1757527738809586E-002
  -8.0000000000000002E-003     4.3511431664228439E-002
  -7.8999999999999973E-003     4.5327734202146530E-002
  -7.8000000000000014E-003     4.7208636999130249E-002
  -7.6999999999999985E-003     4.9156505614519119E-002
  -7.6000000000000026E-003     5.1173862069845200E-002
  -7.4999999999999997E-003     5.3263366222381592E-002
  -7.3999999999999969E-003     5.5427797138690948E-002
  -7.3000000000000009E-003     5.7670027017593384E-002
  -7.1999999999999981E-003     5.9993002563714981E-002
  -7.1000000000000021E-003     6.2399711459875107E-002
  -6.9999999999999993E-003     6.4893156290054321E-002
  -6.8999999999999964E-003     6.7476339638233185E-002
  -6.8000000000000005E-003     7.0152230560779572E-002
  -6.6999999999999976E-003     7.2923734784126282E-002
  -6.6000000000000017E-003     7.5793690979480743E-002
  -6.4999999999999988E-003     7.8764840960502625E-002
  -6.3999999999999960E-003     8.1839822232723236E-002
  -6.3000000000000000E-003     8.5021175444126129E-002
  -6.1999999999999972E-003     8.8311336934566498E-002
  -6.1000000000000013E-003     9.1712638735771179E-002
  -5.9999999999999984E-003     9.5227323472499847E-002
  -5.9000000000000025E-003     9.8857559263706207E-002
  -5.7999999999999996E-003    0.10260546207427979
  -5.6999999999999967E-003    0.10647311806678772
  -5.6000000000000008E-003    0.11046260595321655
  -5.4999999999999979E-003    0.11457604169845581
  -5.4000000000000020E-003    0.11881559342145920
  -5.2999999999999992E-003    0.12318349629640579
  -5.1999999999999963E-003    0.12768207490444183
  -5.1000000000000004E-003    0.13231380283832550
  -4.9999999999999975E-003    0.13708129525184631
  -4.9000000000000016E-003    0.14198730885982513
  -4.7999999999999987E-003    0.14703474938869476
  -4.6999999999999958E-003    0.15222671627998352
  -4.5999999999999999E-003    0.15756647288799286
  -4.4999999999999971E-003    0.16305740177631378
  -4.4000000000000011E-003    0.16870300471782684
  -4.2999999999999983E-003    0.17450690269470215
  -4.2000000000000023E-003    0.18047279119491577
  -4.0999999999999995E-003    0.18660441040992737
  -3.9999999999999966E-003    0.19290550053119659
  -3.9000000000000007E-003    0.19937978684902191
  -3.7999999999999978E-003    0.20603092014789581
  -3.7000000000000019E-003    0.21286244690418243
  -3.5999999999999990E-003    0.21987779438495636
  -3.4999999999999962E-003    0.22708021104335785
  -3.4000000000000002E-003    0.23447273671627045
  -3.2999999999999974E-003    0.24205818772315979
  -3.2000000000000015E-003    0.24983915686607361
  -3.0999999999999986E-003    0.25781801342964172
  -2.9999999999999957E-003    0.26599681377410889
  -2.8999999999999998E-003    0.27437743544578552
  -2.7999999999999969E-003    0.28296148777008057
  -2.7000000000000010E-003    0.29175034165382385
  -2.5999999999999981E-003    0.30074515938758850
  -2.5000000000000022E-003    0.30994692444801331
  -2.3999999999999994E-003    0.31935653090476990
  -2.2999999999999965E-003    0.32897466421127319
  -2.2000000000000006E-003    0.33880192041397095
  -2.0999999999999977E-003    0.34883886575698853
  -2.0000000000000018E-003    0.35908597707748413
  -1.8999999999999989E-003    0.36954376101493835
  -1.7999999999999960E-003    0.38021269440650940
  -1.7000000000000001E-003    0.39109322428703308
  -1.5999999999999973E-003    0.40218582749366760
  -1.5000000000000013E-003    0.41349101066589355
  -1.3999999999999985E-003    0.42500925064086914
  -1.2999999999999956E-003    0.43674102425575256
  -1.1999999999999997E-003    0.44868674874305725
  -1.0999999999999968E-003    0.46084672212600708
  -1.0000000000000009E-003    0.47322121262550354
  -8.9999999999999802E-004    0.48581030964851379
  -8.0000000000000210E-004    0.49861386418342590
  -6.9999999999999923E-004    0.51163148880004883
  -5.9999999999999637E-004    0.52486258745193481
  -5.0000000000000044E-004    0.53830611705780029
  -3.9999999999999758E-004    0.55196064710617065
  -3.0000000000000165E-004    0.56582432985305786
  -1.9999999999999879E-004    0.57989490032196045
  -9.9999999999995925E-005    0.59416955709457397
   0.0000000000000000         0.60864502191543579
   1.0000000000000286E-004    0.62331742048263550
   1.9999999999999879E-004    0.63818228244781494
   3.0000000000000165E-004    0.65323460102081299
   4.0000000000000452E-004    0.66846883296966553
   5.0000000000000044E-004    0.68387895822525024
   6.0000000000000331E-004    0.69945842027664185
   6.9999999999999923E-004    0.71520012617111206
   8.0000000000000210E-004    0.73109644651412964
   8.9999999999999802E-004    0.74713939428329468
   1.0000000000000009E-003    0.76332056522369385
   1.1000000000000038E-003    0.77963113784790039
   1.1999999999999997E-003    0.79606199264526367
   1.3000000000000025E-003    0.81260365247726440
   1.3999999999999985E-003    0.82924622297286987
   1.5000000000000013E-003    0.84597951173782349
   1.6000000000000042E-003    0.86279314756393433
   1.7000000000000001E-003    0.87967640161514282
   1.8000000000000030E-003    0.89661818742752075
   1.8999999999999989E-003    0.91360712051391602
   2.0000000000000018E-003    0.93063145875930786
   2.1000000000000046E-003    0.94767910242080688
   2.2000000000000006E-003    0.96473747491836548
   2.3000000000000034E-003    0.98179352283477783
   2.3999999999999994E-003    0.99883371591567993
   2.5000000000000022E-003     1.0158441066741943
   2.5999999999999981E-003     1.0328098535537720
   2.7000000000000010E-003     1.0497155189514160
   2.8000000000000039E-003     1.0665450096130371
   2.8999999999999998E-003     1.0832813978195190
   3.0000000000000027E-003     1.0999069213867188
   3.0999999999999986E-003     1.1164032220840454
   3.2000000000000015E-003     1.1327511072158813
   3.3000000000000043E-003     1.1489304304122925
   3.4000000000000002E-003     1.1649200916290283
   3.5000000000000031E-003     1.1806981563568115
   3.5999999999999990E-003     1.1962419748306274
   3.7000000000000019E-003     1.2115279436111450
   3.7999999999999978E-003     1.2265315055847168
   3.9000000000000007E-003     1.2412275075912476
   4.0000000000000036E-003     1.2555900812149048
   4.0999999999999995E-003     1.2695924043655396
   4.2000000000000023E-003     1.2832072973251343
   4.2999999999999983E-003     1.2964068651199341
   4.4000000000000011E-003     1.3091626167297363
   4.5000000000000040E-003     1.3214455842971802
   4.5999999999999999E-003     1.3332260847091675
   4.7000000000000028E-003     1.3444739580154419
   4.7999999999999987E-003     1.3551586866378784
   4.9000000000000016E-003     1.3652493953704834
   5.0000000000000044E-003     1.3747147321701050
   5.1000000000000004E-003     1.3835228681564331
   5.2000000000000032E-003     1.3916414976119995
   5.2999999999999992E-003     1.3990380764007568
   5.4000000000000020E-003     1.4056794643402100
   5.4999999999999979E-003     1.4115319252014160
   5.6000000000000008E-003     1.4165612459182739
   5.7000000000000037E-003     1.4207329750061035
   5.7999999999999996E-003     1.4240121841430664
   5.9000000000000025E-003     1.4263628721237183
   5.9999999999999984E-003     1.4277485609054565
   6.1000000000000013E-003     1.4281322956085205
   6.2000000000000041E-003     1.4274764060974121
   6.3000000000000000E-003     1.4257427453994751
   6.4000000000000029E-003     1.4228924512863159
   6.4999999999999988E-003     1.4188859462738037
   6.6000000000000017E-003     1.4136829376220703
   6.7000000000000046E-003     1.4072425365447998
   6.8000000000000005E-003     1.3995234966278076
   6.9000000000000034E-003     1.3904838562011719
   6.9999999999999993E-003     1.3800811767578125
   7.1000000000000021E-003     1.3682731389999390
   7.1999999999999981E-003     1.3550169467926025
   7.3000000000000009E-003     1.3402692079544067
   7.4000000000000038E-003     1.3239866495132446
   7.4999999999999997E-003     1.3061258792877197
   7.6000000000000026E-003     1.2866436243057251
   7.6999999999999985E-003     1.2654964923858643
   7.8000000000000014E-003     1.2426412105560303
   7.9000000000000042E-003     1.2180347442626953
   8.0000000000000002E-003     1.1916342973709106
   8.1000000000000030E-003     1.1633975505828857
   8.1999999999999990E-003     1.1332825422286987
   8.3000000000000018E-003     1.1012476682662964
   8.4000000000000047E-003     1.0672518014907837
   8.5000000000000006E-003     1.0312545299530029
   8.6000000000000035E-003    0.99321585893630981
   8.6999999999999994E-003    0.95309638977050781
   8.8000000000000023E-003    0.91085714101791382
   8.8999999999999982E-003    0.86645978689193726
   9.0000000000000011E-003    0.81986677646636963
   9.1000000000000039E-003    0.77104115486145020
   9.1999999999999998E-003    0.71994674205780029
   9.3000000000000027E-003    0.66654807329177856
   9.3999999999999986E-003    0.61081027984619141
   9.5000000000000015E-003    0.55269926786422729
   9.6000000000000044E-003    0.49218180775642395
   9.7000000000000003E-003    0.42922547459602356
   9.8000000000000032E-003    0.36379876732826233
   9.8999999999999991E-003    0.29587122797966003
   1.0000000000000002E-002    0.22541362047195435
   1.0100000000000005E-002    0.15239779651165009
   1.0200000000000001E-002     7.6796837151050568E-002
   1.0300000000000004E-002    -1.4147530309855938E-003
   1.0400000000000000E-002    -8.2261070609092712E-002
   1.0500000000000002E-002   -0.16576455533504486
   1.0599999999999998E-002   -0.25194594264030457
   1.0700000000000001E-002   -0.34082433581352234
   1.0800000000000004E-002   -0.43241694569587708
   1.0900000000000000E-002   -0.52673894166946411
   1.1000000000000003E-002   -0.62380337715148926
   1.1099999999999999E-002   -0.72362095117568970
   1.1200000000000002E-002   -0.82620018720626831
   1.1300000000000004E-002   -0.93154704570770264
   1.1400000000000000E-002    -1.0396651029586792
   1.1500000000000003E-002    -1.1505553722381592
   1.1599999999999999E-002    -1.2642163038253784
   1.1700000000000002E-002    -1.3806436061859131
   1.1800000000000005E-002    -1.4998301267623901
   1.1900000000000001E-002    -1.6217658519744873
   1.2000000000000004E-002    -1.7464380264282227
   1.2100000000000000E-002    -1.8738311529159546
   1.2200000000000003E-002    -2.0039267539978027
   1.2299999999999998E-002    -2.1367034912109375
   1.2400000000000001E-002    -2.2721364498138428
   1.2500000000000004E-002    -2.4101979732513428
   1.2600000000000000E-002    -2.5508575439453125
   1.2700000000000003E-002    -2.6940815448760986
   1.2799999999999999E-002    -2.8398330211639404
   1.2900000000000002E-002    -2.9880719184875488
   1.3000000000000005E-002    -3.1387546062469482
   1.3100000000000001E-002    -3.2918341159820557
   1.3200000000000003E-002    -3.4472608566284180
   1.3299999999999999E-002    -3.6049811840057373
   1.3400000000000002E-002    -3.7649381160736084
   1.3500000000000005E-002    -3.9270713329315186
   1.3600000000000001E-002    -4.0913166999816895
   1.3700000000000004E-002    -4.2576065063476562
   1.3800000000000000E-002    -4.4258689880371094
   1.3900000000000003E-002    -4.5960288047790527
   1.3999999999999999E-002    -4.7680063247680664
   1.4100000000000001E-002    -4.9417185783386230
   1.4200000000000004E-002    -5.1170787811279297
   1.4300000000000000E-002    -5.2939953804016113
   1.4400000000000003E-002    -5.4723730087280273
   1.4499999999999999E-002    -5.6521124839782715
   1.4600000000000002E-002    -5.8331103324890137
   1.4700000000000005E-002    -6.0152587890625000
   1.4800000000000001E-002    -6.1984462738037109
   1.4900000000000004E-002    -6.3825573921203613
   1.4999999999999999E-002    -6.5674724578857422
   1.5100000000000002E-002    -6.7530679702758789
   1.5200000000000005E-002    -6.9392161369323730
   1.5300000000000001E-002    -7.1257853507995605
   1.5400000000000004E-002    -7.3126406669616699
   1.5500000000000000E-002    -7.4996428489685059
   1.5600000000000003E-002    -7.6866493225097656
   1.5699999999999999E-002    -7.8735136985778809
   1.5800000000000002E-002    -8.0600862503051758
   1.5900000000000004E-002    -8.2462129592895508
   1.6000000000000000E-002    -8.4317378997802734
   1.6100000000000003E-002    -8.6165008544921875
   1.6199999999999999E-002    -8.8003387451171875
   1.6300000000000002E-002    -8.9830856323242188
   1.6400000000000005E-002    -9.1645717620849609