  -4.0000000000000001E-002     0.0000000000000000
  -3.9899999999999998E-002     0.0000000000000000
  -3.9800000000000002E-002     0.0000000000000000
  -3.9699999999999999E-002     0.0000000000000000
  -3.9600000000000003E-002     0.0000000000000000
  -3.9500000000000000E-002     0.0000000000000000
  -3.9399999999999998E-002     0.0000000000000000
  -3.9300000000000002E-002     0.0000000000000000
  -3.9199999999999999E-002     0.0000000000000000
  -3.9100000000000003E-002    -2.5642318404430639E-031
  -3.9000000000000000E-002    -4.7740143302148857E-030
  -3.8900000000000004E-002    -4.6660136708432565E-029
  -3.8800000000000001E-002    -3.1839856619186230E-028
  -3.8699999999999998E-002    -1.7025446042186658E-027
  -3.8600000000000002E-002    -7.5932484359388916E-027
  -3.8500000000000000E-002    -2.9365082188891817E-026
  -3.8400000000000004E-002    -1.0109995755291404E-025
  -3.8300000000000001E-002    -3.1579401191300388E-025
  -3.8199999999999998E-002    -9.0769264400840251E-025
  -3.8100000000000002E-002    -2.4271804466041716E-024
  -3.7999999999999999E-002    -6.0903931245802220E-024
  -3.7900000000000003E-002    -1.4440763090952817E-023
  -3.7800000000000000E-002    -3.2539164965940619E-023
  -3.7699999999999997E-002    -7.0006179923728614E-023
  -3.7600000000000001E-002    -1.4437207221536443E-022
  -3.7499999999999999E-002    -2.8633583412862325E-022
  -3.7400000000000003E-002    -5.4766621644403156E-022
  -3.7300000000000000E-002    -1.0125446994376112E-021
  -3.7200000000000004E-002    -1.8130716583782659E-021
  -3.7100000000000001E-002    -3.1493068131559561E-021
  -3.6999999999999998E-002    -5.3134334388255867E-021
  -3.6900000000000002E-002    -8.7161911381659180E-021
  -3.6799999999999999E-002    -1.3911371676726234E-020
  -3.6700000000000003E-002    -2.1610589488197953E-020
  -3.6600000000000001E-002    -3.2675485658700034E-020
  -3.6499999999999998E-002    -4.8067756201140539E-020
  -3.6400000000000002E-002    -6.8728485467773327E-020
  -3.6299999999999999E-002    -9.5348456511785407E-020
  -3.6200000000000003E-002    -1.2797817904933080E-019
  -3.6100000000000000E-002    -1.6541553346817121E-019
  -3.6000000000000004E-002    -2.0429660239925221E-019
  -3.5900000000000001E-002    -2.3780879094107244E-019
  -3.5799999999999998E-002    -2.5394186311436527E-019
  -3.5700000000000003E-002    -2.3320597027191526E-019
  -3.5600000000000000E-002    -1.4576858512805605E-019
  -3.5500000000000004E-002     5.1992540799597124E-020
  -3.5400000000000001E-002     4.2144056048237178E-019
  -3.5299999999999998E-002     1.0459443453718909E-018
  -3.5200000000000002E-002     2.0351401716147345E-018
  -3.5099999999999999E-002     3.5286102180858569E-018
  -3.5000000000000003E-002     5.6982677416848836E-018
  -3.4900000000000000E-002     8.7483026902108358E-018
  -3.4799999999999998E-002     1.2911416686406519E-017
  -3.4700000000000002E-002     1.8439538339172920E-017
  -3.4599999999999999E-002     2.5587025686870095E-017
  -3.4500000000000003E-002     3.4584136860711369E-017
  -3.4400000000000000E-002     4.5598232005312144E-017
  -3.4299999999999997E-002     5.8680351473189393E-017
  -3.4200000000000001E-002     7.3694910435778325E-017
  -3.4099999999999998E-002     9.0231104531105503E-017
  -3.4000000000000002E-002     1.0749525727014875E-016
  -3.3900000000000000E-002     1.2418540622108429E-016
  -3.3799999999999997E-002     1.3835078818427119E-016
  -3.3700000000000001E-002     1.4724260919230181E-016
  -3.3599999999999998E-002     1.4716489391939123E-016
  -3.3500000000000002E-002     1.3333992655677196E-016
  -3.3399999999999999E-002     9.9803827532165277E-017
  -3.3300000000000003E-002     3.9359827731339322E-017
  -3.3200000000000000E-002    -5.6388472223821369E-017
  -3.3099999999999997E-002    -1.9688427208534057E-016
  -3.3000000000000002E-002    -3.9231657088040965E-016
  -3.2899999999999999E-002    -6.5311687713948585E-016
  -3.2800000000000003E-002    -9.8923876766998306E-016
  -3.2700000000000000E-002    -1.4091494220406717E-015
  -3.2600000000000004E-002    -1.9185321666298320E-015
  -3.2500000000000001E-002    -2.5186706798690280E-015
  -3.2399999999999998E-002    -3.2044994929754421E-015
  -3.2300000000000002E-002    -3.9623705758282026E-015
  -3.2199999999999999E-002    -4.7675473899939317E-015
  -3.2100000000000004E-002    -5.5815706162607847E-015
  -3.2000000000000001E-002    -6.3495724249209434E-015
  -3.1899999999999998E-002    -6.9977618467084550E-015
  -3.1800000000000002E-002    -7.4312953319698345E-015
  -3.1699999999999999E-002    -7.5328410298184691E-015
  -3.1600000000000003E-002    -7.1621819531988290E-015
  -3.1500000000000000E-002    -6.1572171718301226E-015
  -3.1399999999999997E-002    -4.3368383360951716E-015
  -3.1300000000000001E-002    -1.5061076953260953E-015
  -3.1199999999999999E-002     2.5358165325455864E-015
  -3.1100000000000003E-002     7.9847136254208514E-015
  -3.1000000000000000E-002     1.5016686285835960E-014
  -3.0900000000000000E-002     2.3770084004955984E-014
  -3.0800000000000001E-002     3.4323557180065273E-014
  -3.0699999999999998E-002     4.6670803886036255E-014
  -3.0600000000000002E-002     6.0692004536216232E-014
  -3.0499999999999999E-002     7.6123576029946821E-014
  -3.0400000000000000E-002     9.2526362277262769E-014
  -3.0300000000000001E-002     1.0925489706730199E-013
  -3.0200000000000001E-002     1.2542939777093753E-013
  -3.0100000000000002E-002     1.3991271249208515E-013
  -2.9999999999999999E-002     1.5129623899198807E-013
  -2.9899999999999999E-002     1.5789663142511817E-013
  -2.9800000000000000E-002     1.5776853293843901E-013
  -2.9700000000000001E-002     1.4873577358891915E-013
  -2.9600000000000001E-002     1.2844539071677624E-013
  -2.9499999999999998E-002     9.4448171614365528E-014
  -2.9400000000000003E-002     4.4307642949568959E-014
  -2.9300000000000000E-002    -2.4259901135496517E-014
  -2.9200000000000000E-002    -1.1321304814850344E-013
  -2.9100000000000001E-002    -2.2398280604372933E-013
  -2.8999999999999998E-002    -3.5724158006789075E-013
  -2.8900000000000002E-002    -5.1264889685750936E-013
  -2.8799999999999999E-002    -6.8858167865532005E-013
  -2.8700000000000000E-002    -8.8186207468365918E-013
  -2.8600000000000000E-002    -1.0874899071533495E-012
  -2.8500000000000001E-002    -1.2984045262565136E-012
  -2.8400000000000002E-002    -1.5052882985228111E-012
  -2.8299999999999999E-002    -1.6964424656706889E-012
  -2.8200000000000003E-002    -1.8577448607226543E-012
  -2.8100000000000000E-002    -1.9727333915725564E-012
  -2.8000000000000001E-002    -2.0228254835052972E-012
  -2.7900000000000001E-002    -1.9877029709680638E-012
  -2.7799999999999998E-002    -1.8458830384343594E-012
  -2.7700000000000002E-002    -1.5754974365053687E-012
  -2.7600000000000000E-002    -1.1552760701208364E-012
  -2.7500000000000000E-002    -5.6575582977128058E-013
  -2.7400000000000001E-002     2.0931161263861714E-013
  -2.7299999999999998E-002     1.1813613238695342E-012
  -2.7200000000000002E-002     2.3552782987823484E-012
  -2.7099999999999999E-002     3.7275287023685877E-012
  -2.7000000000000000E-002     5.2843150862014188E-012
  -2.6900000000000000E-002     6.9997163447410582E-012
  -2.6800000000000001E-002     8.8340463416658466E-012
  -2.6700000000000002E-002     1.0732426232451520E-011
  -2.6599999999999999E-002     1.2623789166776866E-011
  -2.6500000000000003E-002     1.4420390229141766E-011
  -2.6400000000000000E-002     1.6018028917152982E-011
  -2.6300000000000000E-002     1.7297031862373302E-011
  -2.6200000000000001E-002     1.8124222608828511E-011
  -2.6099999999999998E-002     1.8355901867939117E-011
  -2.6000000000000002E-002     1.7842017793756604E-011
  -2.5899999999999999E-002     1.6431529747951146E-011
  -2.5800000000000000E-002     1.3978884889909171E-011
  -2.5700000000000001E-002     1.0351793207352689E-011
  -2.5599999999999998E-002     5.4399167462304554E-012
  -2.5500000000000002E-002    -8.3551687703881106E-013
  -2.5399999999999999E-002    -8.5114588987966755E-012
  -2.5300000000000000E-002    -1.7572597890702646E-011
  -2.5200000000000000E-002    -2.7940988064911743E-011
  -2.5100000000000001E-002    -3.9466273998867152E-011
  -2.5000000000000001E-002    -5.1917217053221165E-011
  -2.4899999999999999E-002    -6.4974907398873682E-011
  -2.4800000000000003E-002    -7.8228402922153606E-011
  -2.4700000000000000E-002    -9.1173305016845063E-011
  -2.4600000000000000E-002    -1.0321470067520266E-010
  -2.4500000000000001E-002    -1.1367365382319861E-010
  -2.4399999999999998E-002    -1.2179887654006905E-010
  -2.4299999999999999E-002    -1.2678409710975558E-010
  -2.4199999999999999E-002    -1.2779015345909528E-010
  -2.4100000000000000E-002    -1.2397365078964384E-010
  -2.4000000000000000E-002    -1.1452026132952042E-010
  -2.3900000000000001E-002    -9.8683602955951244E-011
  -2.3800000000000002E-002    -7.5828412993139693E-011
  -2.3699999999999999E-002    -4.5476778592901113E-011
  -2.3599999999999999E-002    -7.3564097521905403E-012
  -2.3500000000000000E-002     3.8550222042355031E-011
  -2.3400000000000001E-002     9.1958947401327151E-011
  -2.3300000000000001E-002     1.5224055349705168E-010
  -2.3199999999999998E-002     2.1838357511239082E-010
  -2.3099999999999999E-002     2.8896599002514733E-010
  -2.3000000000000000E-002     3.6213784748717615E-010
  -2.2900000000000000E-002     4.3561942941749976E-010
  -2.2800000000000001E-002     5.0671306039973274E-010
  -2.2700000000000001E-002     5.7233684458424250E-010
  -2.2599999999999999E-002     6.2907690168145791E-010
  -2.2499999999999999E-002     6.7326177966009482E-010
  -2.2400000000000000E-002     7.0105754534921516E-010
  -2.2300000000000000E-002     7.0858879874791114E-010
  -2.2200000000000001E-002     6.9207634068035873E-010
  -2.2100000000000002E-002     6.4799521304337304E-010
  -2.1999999999999999E-002     5.7324878177666960E-010
  -2.1899999999999999E-002     4.6535220121768361E-010
  -2.1800000000000000E-002     3.2262320592835181E-010
  -2.1700000000000001E-002     1.4437055717575475E-010
  -2.1600000000000001E-002    -6.8924164986494674E-011
  -2.1499999999999998E-002    -3.1544286627216422E-010
  -2.1399999999999999E-002    -5.9189131373926784E-010
  -2.1299999999999999E-002    -8.9339430298096545E-010
  -2.1200000000000000E-002    -1.2134316884626628E-009
  -2.1100000000000001E-002    -1.5438285094759863E-009
  -2.1000000000000001E-002    -1.8748054220196764E-009
  -2.0899999999999998E-002    -2.1950861128772203E-009
  -2.0799999999999999E-002    -2.4920916441573127E-009
  -2.0700000000000000E-002    -2.7521951384557042E-009
  -2.0600000000000000E-002    -2.9610476293129295E-009
  -2.0500000000000001E-002    -3.1039950609823563E-009
  -2.0400000000000001E-002    -3.1665410293868490E-009
  -2.0299999999999999E-002    -3.1348794671259839E-009
  -2.0199999999999999E-002    -2.9964697390028050E-009
  -2.0100000000000000E-002    -2.7406446001521090E-009
  -2.0000000000000000E-002    -2.3592330311572596E-009
  -1.9900000000000001E-002    -1.8471695284461020E-009
  -1.9799999999999998E-002    -1.2030800800033603E-009
  -1.9699999999999999E-002    -4.2980899395139716E-010
  -1.9599999999999999E-002     4.6513673468417949E-010
  -1.9500000000000000E-002     1.4692480565514643E-009
  -1.9400000000000001E-002     2.5648085877350013E-009
  -1.9300000000000001E-002     3.7288461207651835E-009
  -1.9199999999999998E-002     4.9332546936398103E-009
  -1.9099999999999999E-002     6.1451190802586098E-009
  -1.9000000000000000E-002     7.3272419243153308E-009
  -1.8900000000000000E-002     8.4388460663831211E-009
  -1.8800000000000001E-002     9.4365519842654066E-009
  -1.8700000000000001E-002     1.0275471140630543E-008
  -1.8599999999999998E-002     1.0910531145214009E-008
  -1.8499999999999999E-002     1.1297932367426711E-008
  -1.8400000000000000E-002     1.1396716459444178E-008
  -1.8300000000000000E-002     1.1170406821747747E-008
  -1.8200000000000001E-002     1.0588686372159373E-008
  -1.8100000000000002E-002     9.6290184714575844E-009
  -1.7999999999999999E-002     8.2781870247572442E-009
  -1.7899999999999999E-002     6.5336700494356137E-009
  -1.7800000000000000E-002     4.4048107383787283E-009
  -1.7700000000000000E-002     1.9136763285132474E-009
  -1.7600000000000001E-002    -9.0440033240213324E-010
  -1.7499999999999998E-002    -4.0006806756309743E-009
  -1.7399999999999999E-002    -7.3133112898915442E-009
  -1.7299999999999999E-002    -1.0768078873013565E-008
  -1.7200000000000000E-002    -1.4279632587488322E-008
  -1.7100000000000001E-002    -1.7753189140989889E-008
  -1.7000000000000001E-002    -2.1086707491235757E-008
  -1.6899999999999998E-002    -2.4173438362140587E-008
  -1.6799999999999999E-002    -2.6904876548883294E-008
  -1.6700000000000000E-002    -2.9174046289881517E-008
  -1.6600000000000000E-002    -3.0878823054081295E-008
  -1.6500000000000001E-002    -3.1925580401548359E-008
  -1.6400000000000001E-002    -3.2232627233952371E-008
  -1.6299999999999999E-002    -3.1733581096204944E-008
  -1.6199999999999999E-002    -3.0380455484646518E-008
  -1.6100000000000000E-002    -2.8146310171450750E-008
  -1.6000000000000000E-002    -2.5027414807254900E-008
  -1.5900000000000001E-002    -2.1044746389975444E-008
  -1.5799999999999998E-002    -1.6244730005610108E-008
  -1.5699999999999999E-002    -1.0699136687719601E-008
  -1.5599999999999999E-002    -4.5042591878541316E-009
  -1.5500000000000000E-002     2.2209860617294908E-009
  -1.5400000000000000E-002     9.3377261478622131E-009
  -1.5300000000000001E-002     1.6690604454083768E-008
  -1.5199999999999998E-002     2.4111995955422572E-008
  -1.5099999999999999E-002     3.1426868218886739E-008
  -1.4999999999999999E-002     3.8458090045878635E-008
  -1.4900000000000000E-002     4.5031889328583929E-008
  -1.4800000000000001E-002     5.0983569366280790E-008
  -1.4700000000000001E-002     5.6162800632364451E-008
  -1.4599999999999998E-002     6.0438829052600340E-008
  -1.4499999999999999E-002     6.3704604258418840E-008
  -1.4400000000000000E-002     6.5880598754120001E-008
  -1.4300000000000000E-002     6.6916946650508180E-008
  -1.4200000000000001E-002     6.6794946462778171E-008
  -1.4099999999999998E-002     6.5526684522865253E-008
  -1.3999999999999999E-002     6.3153585472264240E-008
  -1.3899999999999999E-002     5.9743413771684573E-008
  -1.3800000000000000E-002     5.5385829256238139E-008
  -1.3700000000000000E-002     5.0186731215262625E-008
  -1.3600000000000001E-002     4.4261835085990242E-008
  -1.3499999999999998E-002     3.7728735691189286E-008
  -1.3399999999999999E-002     3.0699421671442906E-008
  -1.3299999999999999E-002     2.3272102467331024E-008
  -1.3200000000000000E-002     1.5523761831559568E-008
  -1.3100000000000001E-002     7.5033392832324353E-009
  -1.3000000000000001E-002    -7.7374751050740542E-010
  -1.2899999999999998E-002    -9.3291010472285052E-009
  -1.2799999999999999E-002    -1.8222934272671409E-008
  -1.2699999999999999E-002    -2.7552909287464900E-008
  -1.2600000000000000E-002    -3.7450234913194436E-008
  -1.2500000000000001E-002    -4.8072784863961715E-008
  -1.2399999999999998E-002    -5.9595006263180039E-008
  -1.2299999999999998E-002    -7.2194943356862495E-008
  -1.2199999999999999E-002    -8.6038696167634043E-008
  -1.2100000000000000E-002    -1.0126235139296114E-007
  -1.2000000000000000E-002    -1.1795203391784526E-007
  -1.1900000000000001E-002    -1.3612341831503727E-007
  -1.1799999999999998E-002    -1.5570090283745230E-007
  -1.1699999999999999E-002    -1.7649743710990151E-007
  -1.1599999999999999E-002    -1.9819636065676605E-007
  -1.1500000000000000E-002    -2.2033705704416207E-007
  -1.1400000000000000E-002    -2.4230419626292132E-007
  -1.1300000000000001E-002    -2.6332259039918426E-007
  -1.1199999999999998E-002    -2.8245892735867528E-007
  -1.1099999999999999E-002    -2.9863059580748086E-007
  -1.0999999999999999E-002    -3.1062305083651154E-007
  -1.0900000000000000E-002    -3.1711581982563075E-007
  -1.0800000000000001E-002    -3.1671720535086934E-007
  -1.0699999999999998E-002    -3.0800813988207665E-007
  -1.0599999999999998E-002    -2.8959343012502359E-007
  -1.0499999999999999E-002    -2.6016189735855733E-007
  -1.0400000000000000E-002    -2.1855036891338386E-007
  -1.0300000000000000E-002    -1.6381346767957439E-007
  -1.0200000000000001E-002    -9.5295163760056312E-008
  -1.0099999999999998E-002    -1.2698676776778939E-008
  -9.9999999999999985E-003     8.3844412301914417E-008
  -9.8999999999999991E-003     1.9371393022993288E-007
  -9.7999999999999997E-003     3.1574836611980572E-007
  -9.7000000000000003E-003     4.4820544076173974E-007
  -9.6000000000000009E-003     5.8873729358310811E-007
  -9.4999999999999980E-003     7.3438496883682092E-007
  -9.3999999999999986E-003     8.8159475808424759E-007
  -9.2999999999999992E-003     1.0262531304761069E-006
  -9.1999999999999998E-003     1.1637511079243268E-006
  -9.1000000000000004E-003     1.2890704965684563E-006
  -9.0000000000000011E-003     1.3968943903819309E-006
  -8.8999999999999982E-003     1.4817441069681081E-006
  -8.7999999999999988E-003     1.5381353932752972E-006
  -8.6999999999999994E-003     1.5607524801453110E-006
  -8.5999999999999965E-003     1.5446419183717808E-006
  -8.5000000000000006E-003     1.4854080063742003E-006
  -8.3999999999999977E-003     1.3794214055451448E-006
  -8.3000000000000018E-003     1.2240166142873932E-006
  -8.1999999999999990E-003     1.0176870546274586E-006
  -8.0999999999999961E-003     7.6025958151149098E-007
  -8.0000000000000002E-003     4.5304363993636798E-007
  -7.8999999999999973E-003     9.8953123028877599E-008
  -7.8000000000000014E-003    -2.9741681828454603E-007
  -7.6999999999999985E-003    -7.2975365128513658E-007
  -7.6000000000000026E-003    -1.1900440313183935E-006
  -7.4999999999999997E-003    -1.6686453818692826E-006
  -7.3999999999999969E-003    -2.1544162791542476E-006
  -7.3000000000000009E-003    -2.6349039217166137E-006
  -7.1999999999999981E-003    -3.0965941277827369E-006
  -7.1000000000000021E-003    -3.5252062389190542E-006
  -6.9999999999999993E-003    -3.9060564631654415E-006
  -6.8999999999999964E-003    -4.2244505493727047E-006
  -6.8000000000000005E-003    -4.4661128413281403E-006
  -6.6999999999999976E-003    -4.6176405703590717E-006
  -6.6000000000000017E-003    -4.6669842959090602E-006
  -6.4999999999999988E-003    -4.6038958316785283E-006
  -6.3999999999999960E-003    -4.4203816287335940E-006
  -6.3000000000000000E-003    -4.1111193240794819E-006
  -6.1999999999999972E-003    -3.6738215385412332E-006
  -6.1000000000000013E-003    -3.1095321446628077E-006
  -5.9999999999999984E-003    -2.4228577331086854E-006
  -5.9000000000000025E-003    -1.6221003988903249E-006
  -5.7999999999999996E-003    -7.1927433964447118E-007
  -5.6999999999999967E-003     2.6995695634468575E-007
  -5.6000000000000008E-003     1.3264809695101576E-006
  -5.4999999999999979E-003     2.4280470825033262E-006
  -5.4000000000000020E-003     3.5496927921485621E-006
  -5.2999999999999992E-003     4.6642749111924786E-006
  -5.1999999999999963E-003     5.7431061577517539E-006
  -5.1000000000000004E-003     6.7566747929959092E-006
  -4.9999999999999975E-003     7.6754313340643421E-006
  -4.9000000000000016E-003     8.4706198322237469E-006
  -4.7999999999999987E-003     9.1151523520238698E-006
  -4.6999999999999958E-003     9.5844525276334025E-006
  -4.5999999999999999E-003     9.8572963906917721E-006
  -4.4999999999999971E-003     9.9165836218162440E-006
  -4.4000000000000011E-003     9.7500305855646729E-006
  -4.2999999999999983E-003     9.3507569545181468E-006
  -4.2000000000000023E-003     8.7177122622961178E-006
  -4.0999999999999995E-003     7.8560042311437428E-006
  -3.9999999999999966E-003     6.7769806264550425E-006
  -3.9000000000000007E-003     5.4981960602162872E-006
  -3.7999999999999978E-003     4.0431323213852011E-006
  -3.7000000000000019E-003     2.4407586352026556E-006
  -3.5999999999999990E-003     7.2489740432502003E-007
  -3.4999999999999962E-003    -1.0665922900443547E-006
  -3.4000000000000002E-003    -2.8927699986525113E-006
  -3.2999999999999974E-003    -4.7107287173275836E-006
  -3.2000000000000015E-003    -6.4767677940835711E-006
  -3.0999999999999986E-003    -8.1476810009917244E-006
  -2.9999999999999957E-003    -9.6820367616601288E-006
  -2.8999999999999998E-003    -1.1041420293622650E-005
  -2.7999999999999969E-003    -1.2191690984764136E-005
  -2.7000000000000010E-003    -1.3104055142321158E-005
  -2.5999999999999981E-003    -1.3756040061707608E-005
  -2.5000000000000022E-003    -1.4132276191958226E-005
  -2.3999999999999994E-003    -1.4225030099623837E-005
  -2.2999999999999965E-003    -1.4034554624231532E-005
  -2.2000000000000006E-003    -1.3569099792221095E-005
  -2.0999999999999977E-003    -1.2844715456594713E-005
  -2.0000000000000018E-003    -1.1884708328580018E-005
  -1.8999999999999989E-003    -1.0718899829953443E-005
  -1.7999999999999960E-003    -9.3825565272709355E-006
  -1.7000000000000001E-003    -7.9151632235152647E-006
  -1.5999999999999973E-003    -6.3589654928364325E-006
  -1.5000000000000013E-003    -4.7573998926964123E-006
  -1.3999999999999985E-003    -3.1534355002804659E-006
  -1.2999999999999956E-003    -1.5878761132626096E-006
  -1.1999999999999997E-003    -9.7728296566401696E-008
  -1.0999999999999968E-003     1.2853112139055156E-006
  -1.0000000000000009E-003     2.5362576252518920E-006
  -8.9999999999999802E-004     3.6379249195306329E-006
  -8.0000000000000210E-004     4.5817719183105510E-006
  -6.9999999999999923E-004     5.3683788792113774E-006
  -5.9999999999999637E-004     6.0075803958170582E-006
  -5.0000000000000044E-004     6.5181329773622565E-006
  -3.9999999999999758E-004     6.9270399762899615E-006
  -3.0000000000000165E-004     7.2684142651269212E-006
  -1.9999999999999879E-004     7.5819584708369803E-006
  -9.9999999999995925E-005     7.9111241575446911E-006
   0.0000000000000000          8.3009172158199362E-006
   1.0000000000000286E-004     8.7955213530221954E-006
   1.9999999999999879E-004     9.4357637863140553E-006
   3.0000000000000165E-004     1.0256506357109174E-005
   4.0000000000000452E-004     1.1284111678833142E-005
   5.0000000000000044E-004     1.2534022062027361E-005
   6.0000000000000331E-004     1.4008692232891917E-005
   6.9999999999999923E-004     1.5695763067924418E-005
   8.0000000000000210E-004     1.7566850146977231E-005
   8.9999999999999802E-004     1.9576771592255682E-005
   1.0000000000000009E-003     2.1663456209353171E-005
   1.1000000000000038E-003     2.3748665626044385E-005
   1.1999999999999997E-003     2.5739096599863842E-005
   1.3000000000000025E-003     2.7528725695447065E-005
   1.3999999999999985E-003     2.9001357688684948E-005
   1.5000000000000013E-003     3.0034214432816952E-005
   1.6000000000000042E-003     3.0501980290864594E-005
   1.7000000000000001E-003     3.0281320505309850E-005
   1.8000000000000030E-003     2.9255796107463539E-005
   1.8999999999999989E-003     2.7321138986735605E-005
   2.0000000000000018E-003     2.4390294129261747E-005
   2.1000000000000046E-003     2.0398614651639946E-005
   2.2000000000000006E-003     1.5308638467104174E-005
   2.3000000000000034E-003     9.1142846940783784E-006
   2.3999999999999994E-003     1.8444709439791040E-006
   2.5000000000000022E-003    -6.4342043515352998E-006
   2.5999999999999981E-003    -1.5615847587469034E-005
   2.7000000000000010E-003    -2.5554791136528365E-005
   2.8000000000000039E-003    -3.6066307075088844E-005
   2.8999999999999998E-003    -4.6928962547099218E-005
   3.0000000000000027E-003    -5.7887962611857802E-005
   3.0999999999999986E-003    -6.8660134274978191E-005
   3.2000000000000015E-003    -7.8940123785287142E-005
   3.3000000000000043E-003    -8.8407825387548655E-005
   3.4000000000000002E-003    -9.6736708655953407E-005
   3.5000000000000031E-003    -1.0360312444390729E-004
   3.5999999999999990E-003    -1.0869615653064102E-004
   3.7000000000000019E-003    -1.1172769154654816E-004
   3.7999999999999978E-003    -1.1244283086853102E-004
   3.9000000000000007E-003    -1.1062940029660240E-004
   4.0000000000000036E-003    -1.0612748883431777E-004
   4.0999999999999995E-003    -9.8837495897896588E-005
   4.2000000000000023E-003    -8.8727334514260292E-005
   4.2999999999999983E-003    -7.5837517215404660E-005
   4.4000000000000011E-003    -6.0285150539129972E-005
   4.5000000000000040E-003    -4.2264931835234165E-005
   4.5999999999999999E-003    -2.2049094695830718E-005
   4.7000000000000028E-003     1.6104158007124170E-008
   4.7999999999999987E-003     2.3515343855251558E-005
   4.9000000000000016E-003     4.7972127504181117E-005
   5.0000000000000044E-003     7.2858267230913043E-005
   5.1000000000000004E-003     9.7605909104458988E-005
   5.2000000000000032E-003     1.2162100756540895E-004
   5.2999999999999992E-003     1.4429775183089077E-004
   5.4000000000000020E-003     1.6503538063261658E-004
   5.4999999999999979E-003     1.8325376731809229E-004
   5.6000000000000008E-003     1.9841054745484143E-004
   5.7000000000000037E-003     2.1001705317758024E-004
   5.7999999999999996E-003     2.1765384008176625E-004
   5.9000000000000025E-003     2.2098433692008257E-004
   5.9999999999999984E-003     2.1976727293804288E-004
   6.1000000000000013E-003     2.1386616572272032E-004
   6.2000000000000041E-003     2.0325643708929420E-004
   6.3000000000000000E-003     1.8802964768838137E-004
   6.4000000000000029E-003     1.6839463205542415E-004
   6.4999999999999988E-003     1.4467489381786436E-004
   6.6000000000000017E-003     1.1730280675692484E-004
   6.7000000000000046E-003     8.6810992797836661E-005
   6.8000000000000005E-003     5.3819869208382443E-005
   6.9000000000000034E-003     1.9022938431589864E-005
   6.9999999999999993E-003    -1.6830741515150294E-005
   7.1000000000000021E-003    -5.2955638238927349E-005
   7.1999999999999981E-003    -8.8550645159557462E-005
   7.3000000000000009E-003    -1.2282062380108982E-004
   7.4000000000000038E-003    -1.5499819710385054E-004
   7.4999999999999997E-003    -1.8436490790918469E-004
   7.6000000000000026E-003    -2.1027128968853503E-004
   7.6999999999999985E-003    -2.3215523106046021E-004
   7.8000000000000014E-003    -2.4955754633992910E-004
   7.9000000000000042E-003    -2.6213540695607662E-004
   8.0000000000000002E-003    -2.6967126177623868E-004
   8.1000000000000030E-003    -2.7207867242395878E-004
   8.1999999999999990E-003    -2.6940403040498495E-004
   8.3000000000000018E-003    -2.6182425790466368E-004
   8.4000000000000047E-003    -2.4963985197246075E-004
   8.5000000000000006E-003    -2.3326478549279273E-004
   8.6000000000000035E-003    -2.1321189706213772E-004
   8.6999999999999994E-003    -1.9007590890396386E-004
   8.8000000000000023E-003    -1.6451335977762938E-004
   8.8999999999999982E-003    -1.3722019502893090E-004
   9.0000000000000011E-003    -1.0890880366787314E-004
   9.1000000000000039E-003    -8.0283731222152710E-005
   9.1999999999999998E-003    -5.2018483984284103E-005
   9.3000000000000027E-003    -2.4732888050493784E-005
   9.3999999999999986E-003     1.0274163741996745E-006
   9.5000000000000015E-003     2.4808570742607117E-005
   9.6000000000000044E-003     4.6262841351563111E-005
   9.7000000000000003E-003     6.5159052610397339E-005
   9.8000000000000032E-003     8.1388643593527377E-005
   9.8999999999999991E-003     9.4966882898006588E-005
   1.0000000000000002E-002     1.0602905240375549E-004
   1.0100000000000005E-002     1.1482219269964844E-004
   1.0200000000000001E-002     1.2169221736257896E-004
   1.0300000000000004E-002     1.2706608686130494E-004
   1.0400000000000000E-002     1.3143187970854342E-004
   1.0500000000000002E-002     1.3531357399187982E-004
   1.0599999999999998E-002     1.3924592349212617E-004
   1.0700000000000001E-002     1.4374707825481892E-004
   1.0800000000000004E-002     1.4929061580915004E-004
   1.0900000000000000E-002     1.5627931861672550E-004
   1.1000000000000003E-002     1.6502036305610090E-004
   1.1099999999999999E-002     1.7570322961546481E-004
   1.1200000000000002E-002     1.8838197865989059E-004
   1.1300000000000004E-002     2.0296216825954616E-004
   1.1400000000000000E-002     2.1919274877291173E-004
   1.1500000000000003E-002     2.3666450579185039E-004
   1.1599999999999999E-002     2.5481442571617663E-004
   1.1700000000000002E-002     2.7293691528029740E-004
   1.1800000000000005E-002     2.9020057991147041E-004
   1.1900000000000001E-002     3.0567261273972690E-004
   1.2000000000000004E-002     3.1834628316573799E-004
   1.2100000000000000E-002     3.2717557041905820E-004
   1.2200000000000003E-002     3.3111224183812737E-004
   1.2299999999999998E-002     3.2914429903030396E-004
   1.2400000000000001E-002     3.2033963361755013E-004
   1.2500000000000004E-002     3.0388429877348244E-004
   1.2600000000000000E-002     2.7912433142773807E-004
   1.2700000000000003E-002     2.4560056044720113E-004
   1.2799999999999999E-002     2.0308177045080811E-004
   1.2900000000000002E-002     1.5159057511482388E-004
   1.3000000000000005E-002     9.1422800323925912E-005
   1.3100000000000001E-002     2.3159927877713926E-005
   1.3200000000000003E-002    -5.2328588935779408E-005
   1.3299999999999999E-002    -1.3389153173193336E-004
   1.3400000000000002E-002    -2.2011101827956736E-004
   1.3500000000000005E-002    -3.0932750087231398E-004
   1.3600000000000001E-002    -3.9967452175915241E-004
   1.3700000000000004E-002    -4.8911914927884936E-004
   1.3800000000000000E-002    -5.7551159989088774E-004
   1.3900000000000003E-002    -6.5664254361763597E-004
   1.3999999999999999E-002    -7.3029997292906046E-004
   1.4100000000000001E-002    -7.9433410428464413E-004
   1.4200000000000004E-002    -8.4671983495354652E-004
   1.4300000000000000E-002    -8.8561978191137314E-004
   1.4400000000000003E-002    -9.0944289695471525E-004
   1.4499999999999999E-002    -9.1690139379352331E-004