  -4.0000000000000001E-002     0.0000000000000000
  -3.9899999999999998E-002     0.0000000000000000
  -3.9800000000000002E-002     0.0000000000000000
  -3.9699999999999999E-002     0.0000000000000000
  -3.9600000000000003E-002     0.0000000000000000
  -3.9500000000000000E-002     0.0000000000000000
  -3.9399999999999998E-002     0.0000000000000000
  -3.9300000000000002E-002     0.0000000000000000
  -3.9199999999999999E-002     0.0000000000000000
  -3.9100000000000003E-002     0.0000000000000000
  -3.9000000000000000E-002     7.9759946771518533E-040
  -3.8900000000000004E-002     1.6791410574686666E-038
  -3.8800000000000001E-002     1.8505222418629811E-037
  -3.8699999999999998E-002     1.4203502043549213E-036
  -3.8600000000000002E-002     8.5245058094527582E-036
  -3.8500000000000000E-002     4.2592800892706710E-035
  -3.8400000000000004E-002     1.8423707779373730E-034
  -3.8300000000000001E-002     7.0848518483772604E-034
  -3.8199999999999998E-002     2.4689040093434972E-033
  -3.8100000000000002E-002     7.9091734148696321E-033
  -3.7999999999999999E-002     2.3552638276617218E-032
  -3.7900000000000003E-002     6.5775221333170902E-032
  -3.7800000000000000E-002     1.7350139101893953E-031
  -3.7699999999999997E-002     4.3482650405560994E-031
  -3.7600000000000001E-002     1.0404787623987047E-030
  -3.7499999999999999E-002     2.3870081055029235E-030
  -3.7400000000000003E-002     5.2688060454703488E-030
  -3.7300000000000000E-002     1.1223472607639834E-029
  -3.7200000000000004E-002     2.3133506138532798E-029
  -3.7100000000000001E-002     4.6243500885416382E-029
  -3.6999999999999998E-002     8.9831294840799671E-029
  -3.6900000000000002E-002     1.6987932297247398E-028
  -3.6799999999999999E-002     3.1323343874813448E-028
  -3.6700000000000003E-002     5.6391276919906875E-028
  -3.6600000000000001E-002     9.9244421888738115E-028
  -3.6499999999999998E-002     1.7093279220757921E-027
  -3.6400000000000002E-002     2.8839770544678610E-027
  -3.6299999999999999E-002     4.7706756132949344E-027
  -3.6200000000000003E-002     7.7432121266165703E-027
  -3.6100000000000000E-002     1.2339779821079010E-026
  -3.6000000000000004E-002     1.9319389998881196E-026
  -3.5900000000000001E-002     2.9730263158250925E-026
  -3.5799999999999998E-002     4.4989264359187088E-026
  -3.5700000000000003E-002     6.6969286516896406E-026
  -3.5600000000000000E-002     9.8088185224393372E-026
  -3.5500000000000004E-002     1.4138852611889347E-025
  -3.5400000000000001E-002     2.0059140306817915E-025
  -3.5299999999999998E-002     2.8010024997114575E-025
  -3.5200000000000002E-002     3.8492159721468169E-025
  -3.5099999999999999E-002     5.2045990620855285E-025
  -3.5000000000000003E-002     6.9213230944081520E-025
  -3.4900000000000000E-002     9.0473816270312352E-025
  -3.4799999999999998E-002     1.1615099221622340E-024
  -3.4700000000000002E-002     1.4627637731297207E-024
  -3.4599999999999999E-002     1.8040696699770885E-024
  -3.4500000000000003E-002     2.1738661658850316E-024
  -3.4400000000000000E-002     2.5504650093786954E-024
  -3.4299999999999997E-002     2.8984268215062524E-024
  -3.4200000000000001E-002     3.1643409858188087E-024
  -3.4099999999999998E-002     3.2721208819316662E-024
  -3.4000000000000002E-002     3.1180299203016777E-024
  -3.3900000000000000E-002     2.5657864630951242E-024
  -3.3799999999999997E-002     1.4422550659233980E-024
  -3.3700000000000001E-002    -4.6558102239981642E-025
  -3.3599999999999998E-002    -3.4114629056471901E-024
  -3.3500000000000002E-002    -7.6873927233935841E-024
  -3.3399999999999999E-002    -1.3616539129072558E-023
  -3.3300000000000003E-002    -2.1539984278857236E-023
  -3.3200000000000000E-002    -3.1795685650875162E-023
  -3.3099999999999997E-002    -4.4687960538811636E-023
  -3.3000000000000002E-002    -6.0445905193595512E-023
  -3.2899999999999999E-002    -7.9169436737482084E-023
  -3.2800000000000003E-002    -1.0076213743519162E-022
  -3.2700000000000000E-002    -1.2485084452411837E-022
  -3.2600000000000004E-002    -1.5069301901139590E-022
  -3.2500000000000001E-002    -1.7707431997396320E-022
  -3.2399999999999998E-002    -2.0220081460447526E-022
  -3.2300000000000002E-002    -2.2359200867255514E-022
  -3.2199999999999999E-002    -2.3798408800160315E-022
  -3.2100000000000004E-002    -2.4125456647513015E-022
  -3.2000000000000001E-002    -2.2838368865038689E-022
  -3.1899999999999998E-002    -1.9346958850951875E-022
  -3.1800000000000002E-002    -1.2981791668017333E-022
  -3.1699999999999999E-002    -3.0128099961553982E-023
  -3.1600000000000003E-002     1.1320005052982614E-022
  -3.1500000000000000E-002     3.0761574201108179E-022
  -3.1399999999999997E-002     5.5980073994540531E-022
  -3.1300000000000001E-002     8.7486921064868279E-022
  -3.1199999999999999E-002     1.2553721914488796E-021
  -3.1100000000000003E-002     1.7001057670086583E-021
  -3.1000000000000000E-002     2.2027337055630877E-021
  -3.0900000000000000E-002     2.7502535599102081E-021
  -3.0800000000000001E-002     3.3213541201668420E-021
  -3.0699999999999998E-002     3.8847402518591385E-021
  -3.0600000000000002E-002     4.3975211458081244E-021
  -3.0499999999999999E-002     4.8037984969230732E-021
  -3.0400000000000000E-002     5.0336109199578985E-021
  -3.0300000000000001E-002     5.0024292804802037E-021
  -3.0200000000000001E-002     4.6114228628515915E-021
  -3.0100000000000002E-002     3.7487417425151906E-021
  -2.9999999999999999E-002     2.2920708273059485E-021
  -2.9899999999999999E-002     1.1272038523412831E-022
  -2.9800000000000000E-002    -2.9184931299949009E-021
  -2.9700000000000001E-002    -6.9233571320203582E-021
  -2.9600000000000001E-002    -1.2006189741289780E-020
  -2.9499999999999998E-002    -1.8241490931205141E-020
  -2.9400000000000003E-002    -2.5659325162741048E-020
  -2.9300000000000000E-002    -3.4228594806950770E-020
  -2.9200000000000000E-002    -4.3838488357907745E-020
  -2.9100000000000001E-002    -5.4278667679889089E-020
  -2.8999999999999998E-002    -6.5218848601590329E-020
  -2.8900000000000002E-002    -7.6188846799434691E-020
  -2.8799999999999999E-002    -8.6560218265383547E-020
  -2.8700000000000000E-002    -9.5531121255491844E-020
  -2.8600000000000000E-002    -1.0211601530634240E-019
  -2.8500000000000001E-002    -1.0514229435145886E-019
  -2.8400000000000002E-002    -1.0325598005036557E-019
  -2.8299999999999999E-002    -9.4938685453493416E-020
  -2.8200000000000003E-002    -7.8538291770678176E-020
  -2.8100000000000000E-002    -5.2315409425957031E-020
  -2.8000000000000001E-002    -1.4507730124285753E-020
  -2.7900000000000001E-002     3.6586198493220414E-020
  -2.7799999999999998E-002     1.0250267700627119E-019
  -2.7700000000000002E-002     1.8448778515301808E-019
  -2.7600000000000000E-002     2.8335224394429402E-019
  -2.7500000000000000E-002     3.9930807657320255E-019
  -2.7400000000000001E-002     5.3179017650970216E-019
  -2.7299999999999998E-002     6.7926774263268690E-019
  -2.7200000000000002E-002     8.3905179171650588E-019
  -2.7099999999999999E-002     1.0071073884319137E-018
  -2.7000000000000000E-002     1.1778802734595582E-018
  -2.6900000000000000E-002     1.3441497804373110E-018
  -2.6800000000000001E-002     1.4969215609745765E-018
  -2.6700000000000002E-002     1.6253746450930893E-018
  -2.6599999999999999E-002     1.7168794324052366E-018
  -2.6500000000000003E-002     1.7571016066785104E-018
  -2.6400000000000000E-002     1.7302084140007630E-018
  -2.6300000000000000E-002     1.6191940549536697E-018
  -2.6200000000000001E-002     1.4063346339496334E-018
  -2.6099999999999998E-002     1.0737857972243539E-018
  -2.6000000000000002E-002     6.0432833276146795E-019
  -2.5899999999999999E-002    -1.7736316221482521E-020
  -2.5800000000000000E-002    -8.0554518664382039E-019
  -2.5700000000000001E-002    -1.7684995351340317E-018
  -2.5599999999999998E-002    -2.9109772021593564E-018
  -2.5500000000000002E-002    -4.2309614179888135E-018
  -2.5399999999999999E-002    -5.7186246565598137E-018
  -2.5300000000000000E-002    -7.3549186027264858E-018
  -2.5200000000000000E-002    -9.1102264682466750E-018
  -2.5100000000000001E-002    -1.0943151999365165E-017
  -2.5000000000000001E-002    -1.2799519829043408E-017
  -2.4899999999999999E-002    -1.4611674027800079E-017
  -2.4800000000000003E-002    -1.6298167910981369E-017
  -2.4700000000000000E-002    -1.7763930302064109E-017
  -2.4600000000000000E-002    -1.8901012476748903E-017
  -2.4500000000000001E-002    -1.9589999333085147E-017
  -2.4399999999999998E-002    -1.9702166678508562E-017
  -2.4299999999999999E-002    -1.9102434264628016E-017
  -2.4199999999999999E-002    -1.7653187361655510E-017
  -2.4100000000000000E-002    -1.5218973489924261E-017
  -2.4000000000000000E-002    -1.1672057764882605E-017
  -2.3900000000000001E-002    -6.8988141080968903E-018
  -2.3800000000000002E-002    -8.0685771548078891E-019
  -2.3699999999999999E-002     6.6672097404366366E-018
  -2.3599999999999999E-002     1.5549607506929056E-017
  -2.3500000000000000E-002     2.5820962290267442E-017
  -2.3400000000000001E-002     3.7407946183510193E-017
  -2.3300000000000001E-002     5.0175277106196713E-017
  -2.3199999999999998E-002     6.3918442923679389E-017
  -2.3099999999999999E-002     7.8357555495172331E-017
  -2.3000000000000000E-002     9.3132741623378216E-017
  -2.2900000000000000E-002     1.0780155232480978E-016
  -2.2800000000000001E-002     1.2183879408494486E-016
  -2.2700000000000001E-002     1.3463922215830085E-016
  -2.2599999999999999E-002     1.4552360876540841E-016
  -2.2499999999999999E-002     1.5374839132747628E-016
  -2.2400000000000000E-002     1.5851926469821672E-016
  -2.2300000000000000E-002     1.5900902179529712E-016
  -2.2200000000000001E-002     1.5437954998718894E-016
  -2.2100000000000002E-002     1.4380812881920204E-016
  -2.1999999999999999E-002     1.2651764526690001E-016
  -2.1899999999999999E-002     1.0181061402033322E-016
  -2.1800000000000000E-002     6.9106208705701659E-017
  -2.1700000000000001E-002     2.7979771340132836E-017
  -2.1600000000000001E-002    -2.1796238919274331E-017
  -2.1499999999999998E-002    -8.0210942993103545E-017
  -2.1399999999999999E-002    -1.4697469531806324E-016
  -2.1299999999999999E-002    -2.2148119566620919E-016
  -2.1200000000000000E-002    -3.0277354165260536E-016
  -2.1100000000000001E-002    -3.8951630642656654E-016
  -2.1000000000000001E-002    -4.7997487239123432E-016
  -2.0899999999999998E-002    -5.7200457859394043E-016
  -2.0799999999999999E-002    -6.6305061484708827E-016
  -2.0700000000000000E-002    -7.5016133602729264E-016
  -2.0600000000000000E-002    -8.3001563182748782E-016
  -2.0500000000000001E-002    -8.9896633719547441E-016
  -2.0400000000000001E-002    -9.5310010697537834E-016
  -2.0299999999999999E-002    -9.8831465472452862E-016
  -2.0199999999999999E-002    -1.0004138851013459E-015
  -2.0100000000000000E-002    -9.8521980809349822E-016
  -2.0000000000000000E-002    -9.3870054687205523E-016
  -1.9900000000000001E-002    -8.5711295696398173E-016
  -1.9799999999999998E-002    -7.3715826855619586E-016
  -1.9699999999999999E-002    -5.7614619912909953E-016
  -1.9599999999999999E-002    -3.7216578941412786E-016
  -1.9500000000000000E-002    -1.2425739078671111E-016
  -1.9400000000000001E-002     1.6741829872118881E-016
  -1.9300000000000001E-002     5.0141989373114109E-016
  -1.9199999999999998E-002     8.7487952597219989E-016
  -1.9099999999999999E-002     1.2833773113511433E-015
  -1.9000000000000000E-002     1.7208431470701509E-015
  -1.8900000000000000E-002     2.1794920062505677E-015
  -1.8800000000000001E-002     2.6497985798840454E-015
  -1.8700000000000001E-002     3.1205182938375464E-015
  -1.8599999999999998E-002     3.5787578243462025E-015
  -1.8499999999999999E-002     4.0101042705377715E-015
  -1.8400000000000000E-002     4.3988089605821908E-015
  -1.8300000000000000E-002     4.7280383852022021E-015
  -1.8200000000000001E-002     4.9801831529408622E-015
  -1.8100000000000002E-002     5.1372328022407029E-015
  -1.7999999999999999E-002     5.1812077882468308E-015
  -1.7899999999999999E-002     5.0946494913669139E-015
  -1.7800000000000000E-002     4.8611563891267934E-015
  -1.7700000000000000E-002     4.4659638502228798E-015
  -1.7600000000000001E-002     3.8965535747277017E-015
  -1.7499999999999998E-002     3.1432814572620585E-015
  -1.7399999999999999E-002     2.2000086265407245E-015
  -1.7299999999999999E-002     1.0647196735448267E-015
  -1.7200000000000000E-002    -2.5988725768149527E-016
  -1.7100000000000001E-002    -1.7658611482717040E-015
  -1.7000000000000001E-002    -3.4395269953995137E-015
  -1.6899999999999998E-002    -5.2611033239636455E-015
  -1.6799999999999999E-002    -7.2044302625419790E-015
  -1.6700000000000000E-002    -9.2368248331064703E-015
  -1.6600000000000000E-002    -1.1319087621407611E-014
  -1.6500000000000001E-002    -1.3405670277739749E-014
  -1.6400000000000001E-002    -1.5445025765064777E-014
  -1.6299999999999999E-002    -1.7380152154164268E-014
  -1.6199999999999999E-002    -1.9149338012633063E-014
  -1.6100000000000000E-002    -2.0687104305516617E-014
  -1.6000000000000000E-002    -2.1925368218580522E-014
  -1.5900000000000001E-002    -2.2794796716960226E-014
  -1.5799999999999998E-002    -2.3226354921388609E-014
  -1.5699999999999999E-002    -2.3153028973210699E-014
  -1.5599999999999999E-002    -2.2511704753460683E-014
  -1.5500000000000000E-002    -2.1245168574683324E-014
  -1.5400000000000000E-002    -1.9304206128577250E-014
  -1.5300000000000001E-002    -1.6649740397153834E-014
  -1.5199999999999998E-002    -1.3254989045653840E-014
  -1.5099999999999999E-002    -9.1075735345860949E-015
  -1.4999999999999999E-002    -4.2115240467136342E-015
  -1.4900000000000000E-002     1.4108709106268476E-015
  -1.4800000000000001E-002     7.7174315318818097E-015
  -1.4700000000000001E-002     1.4644740566169441E-014
  -1.4599999999999998E-002     2.2107139794995401E-014
  -1.4499999999999999E-002     2.9996140391442411E-014
  -1.4400000000000000E-002     3.8180287924294287E-014
  -1.4300000000000000E-002     4.6505564698685886E-014
  -1.4200000000000001E-002     5.4796357067728868E-014
  -1.4099999999999998E-002     6.2857027525661802E-014
  -1.3999999999999999E-002     7.0474150874830915E-014
  -1.3899999999999999E-002     7.7419380585183606E-014
  -1.3800000000000000E-002     8.3453033437701218E-014
  -1.3700000000000000E-002     8.8328270479026694E-014
  -1.3600000000000001E-002     9.1796003036295065E-014
  -1.3499999999999998E-002     9.3610293399205152E-014
  -1.3399999999999999E-002     9.3534392470867589E-014
  -1.3299999999999999E-002     9.1347170441940378E-014
  -1.3200000000000000E-002     8.6849913382997662E-014
  -1.3100000000000001E-002     7.9873417992495921E-014
  -1.3000000000000001E-002     7.0285120226058068E-014
  -1.2899999999999998E-002     5.7996237478284696E-014
  -1.2799999999999999E-002     4.2968656654681150E-014
  -1.2699999999999999E-002     2.5221485124471595E-014
  -1.2600000000000000E-002     4.8369532696919491E-015
  -1.2500000000000001E-002    -1.8034419037348329E-014
  -1.2399999999999998E-002    -4.3169664349328174E-014
  -1.2299999999999998E-002    -7.0270395405302999E-014
  -1.2199999999999999E-002    -9.8961217367445065E-014
  -1.2100000000000000E-002    -1.2878969266917617E-013
  -1.2000000000000000E-002    -1.5922808590303900E-013
  -1.1900000000000001E-002    -1.8967694168786631E-013
  -1.1799999999999998E-002    -2.1947069541502356E-013
  -1.1699999999999999E-002    -2.4788542529394220E-013
  -1.1599999999999999E-002    -2.7414856951409050E-013
  -1.1500000000000000E-002    -2.9745102865172401E-013
  -1.1400000000000000E-002    -3.1696108411527479E-013
  -1.1300000000000001E-002    -3.3184051210013998E-013
  -1.1199999999999998E-002    -3.4126244581947351E-013
  -1.1099999999999999E-002    -3.4443086403823653E-013
  -1.0999999999999999E-002    -3.4060129933469185E-013
  -1.0900000000000000E-002    -3.2910276608934252E-013
  -1.0800000000000001E-002    -3.0936006794463067E-013
  -1.0699999999999998E-002    -2.8091637631517952E-013
  -1.0599999999999998E-002    -2.4345548363738367E-013
  -1.0499999999999999E-002    -1.9682314859967992E-013
  -1.0400000000000000E-002    -1.4104695059483086E-013
  -1.0300000000000000E-002    -7.6354199384561644E-014
  -1.0200000000000001E-002    -3.1871302353590454E-015
  -1.0099999999999998E-002     7.7785115859280857E-014
  -9.9999999999999985E-003     1.6565833991025181E-013
  -9.8999999999999991E-003     2.5928952453006804E-013
  -9.7999999999999997E-003     3.5729793147580569E-013
  -9.7000000000000003E-003     4.5807162316752192E-013
  -9.6000000000000009E-003     5.5977954476621461E-013
  -9.4999999999999980E-003     6.6038960324504847E-013
  -9.3999999999999986E-003     7.5769306193823605E-013
  -9.2999999999999992E-003     8.4933460004626982E-013
  -9.1999999999999998E-003     9.3284874182891775E-013
  -9.1000000000000004E-003     1.0057024657506020E-012
  -9.0000000000000011E-003     1.0653418251738156E-012
  -8.8999999999999982E-003     1.1092450742655746E-012
  -8.7999999999999988E-003     1.1349785044093008E-012
  -8.6999999999999994E-003     1.1402565090051775E-012
  -8.5999999999999965E-003     1.1230027324726777E-012
  -8.5000000000000006E-003     1.0814133876574372E-012
  -8.3999999999999977E-003     1.0140197058763900E-012
  -8.3000000000000018E-003     9.1974854381920990E-013
  -8.1999999999999990E-003     7.9798027994432141E-013
  -8.0999999999999961E-003     6.4860215722578607E-013
  -8.0000000000000002E-003     4.7205506647704509E-013
  -7.8999999999999973E-003     2.6937341788581259E-013
  -7.8000000000000014E-003     4.2215027724586476E-014
  -7.6999999999999985E-003    -2.0711873242960227E-013
  -7.6000000000000026E-003    -4.7567489227032245E-013
  -7.4999999999999997E-003    -7.5985366002756516E-013
  -7.3999999999999969E-003    -1.0554267963064357E-012
  -7.3000000000000009E-003    -1.3575707398516546E-012
  -7.1999999999999981E-003    -1.6609140278400769E-012
  -7.1000000000000021E-003    -1.9596004506572395E-012
  -6.9999999999999993E-003    -2.2473665723526937E-012
  -6.8999999999999964E-003    -2.5176336709842317E-012
  -6.8000000000000005E-003    -2.7636133399094875E-012
  -6.6999999999999976E-003    -2.9784250153014336E-012
  -6.6000000000000017E-003    -3.1552254298877758E-012
  -6.4999999999999988E-003    -3.2873463066268593E-012
  -6.3999999999999960E-003    -3.3684385575966092E-012
  -6.3000000000000000E-003    -3.3926225544156363E-012
  -6.1999999999999972E-003    -3.3546383986643447E-012
  -6.1000000000000013E-003    -3.2499970596677752E-012
  -5.9999999999999984E-003    -3.0751258744271537E-012
  -5.9000000000000025E-003    -2.8275077591788378E-012
  -5.7999999999999996E-003    -2.5058102294528428E-012
  -5.6999999999999967E-003    -2.1100001086626907E-012
  -5.6000000000000008E-003    -1.6414418652424545E-012
  -5.4999999999999979E-003    -1.1029771930862187E-012
  -5.4000000000000020E-003    -4.9898063111952773E-013
  -5.2999999999999992E-003     1.6460889996992162E-013
  -5.1999999999999963E-003     8.8028385579128066E-013
  -5.1000000000000004E-003     1.6389929777954615E-012
  -4.9999999999999975E-003     2.4301966689010968E-012
  -4.9000000000000016E-003     3.2419535805905397E-012
  -4.7999999999999987E-003     4.0610388316042467E-012
  -4.6999999999999958E-003     4.8730945494124267E-012
  -4.5999999999999999E-003     5.6628096309352394E-012
  -4.4999999999999971E-003     6.4141313788068643E-012
  -4.4000000000000011E-003     7.1105018574491030E-012
  -4.2999999999999983E-003     7.7351224384014650E-012
  -4.2000000000000023E-003     8.2712361265668832E-012
  -4.0999999999999995E-003     8.7024337389052242E-012
  -3.9999999999999966E-003     9.0129700577867844E-012
  -3.9000000000000007E-003     9.1880903926866431E-012
  -3.7999999999999978E-003     9.2143601776450978E-012
  -3.7000000000000019E-003     9.0799980381750522E-012
  -3.5999999999999990E-003     8.7751975824668094E-012
  -3.4999999999999962E-003     8.2924387842520098E-012
  -3.4000000000000002E-003     7.6267776816241195E-012
  -3.2999999999999974E-003     6.7761165602198137E-012
  -3.2000000000000015E-003     5.7414368398456261E-012
  -3.0999999999999986E-003     4.5270003024011629E-012
  -2.9999999999999957E-003     3.1405030485875951E-012
  -2.8999999999999998E-003     1.5931856528483834E-012
  -2.7999999999999969E-003    -1.0011282981000486E-013
  -2.7000000000000010E-003    -1.9209568831446422E-012
  -2.5999999999999981E-003    -3.8473781452386113E-012
  -2.5000000000000022E-003    -5.8540026125208922E-012
  -2.3999999999999994E-003    -7.9122455115543389E-012
  -2.2999999999999965E-003    -9.9905708705883001E-012
  -2.2000000000000006E-003    -1.2054825887508613E-011
  -2.0999999999999977E-003    -1.4068633411024045E-011
  -2.0000000000000018E-003    -1.5993855545515245E-011
  -1.8999999999999989E-003    -1.7791121006971444E-011
  -1.7999999999999960E-003    -1.9420401051184477E-011
  -1.7000000000000001E-003    -2.0841649586711419E-011
  -1.5999999999999973E-003    -2.2015481451753693E-011
  -1.5000000000000013E-003    -2.2903892324399600E-011
  -1.3999999999999985E-003    -2.3470997714825081E-011
  -1.2999999999999956E-003    -2.3683797978346632E-011
  -1.1999999999999997E-003    -2.3512950267368105E-011
  -1.0999999999999968E-003    -2.2933523136092759E-011
  -1.0000000000000009E-003    -2.1925745941064889E-011
  -8.9999999999999802E-004    -2.0475707934730636E-011
  -8.0000000000000210E-004    -1.8576020929805814E-011
  -6.9999999999999923E-004    -1.6226409105257744E-011
  -5.9999999999999637E-004    -1.3434224219177615E-011
  -5.0000000000000044E-004    -1.0214867146585149E-011
  -3.9999999999999758E-004    -6.5920970938881940E-012
  -3.0000000000000165E-004    -2.5982230689863828E-012
  -1.9999999999999879E-004     1.7258414749393713E-012
  -9.9999999999995925E-005     6.3306690618880612E-012
   0.0000000000000000          1.1158564523772174E-011
   1.0000000000000286E-004     1.6143969841508898E-011
   1.9999999999999879E-004     2.1214040940575885E-011
   3.0000000000000165E-004     2.6289389068456792E-011
   4.0000000000000452E-004     3.1284995427593998E-011
   5.0000000000000044E-004     3.6111277162964583E-011
   6.0000000000000331E-004     4.0675327689365659E-011
   6.9999999999999923E-004     4.4882299266024717E-011
   8.0000000000000210E-004     4.8636896593512446E-011
   8.9999999999999802E-004     5.1845017862151010E-011
   1.0000000000000009E-003     5.4415458250467452E-011
   1.1000000000000038E-003     5.6261696690373952E-011
   1.1999999999999997E-003     5.7303717326817605E-011
   1.3000000000000025E-003     5.7469830977430192E-011
   1.3999999999999985E-003     5.6698503531071864E-011
   1.5000000000000013E-003     5.4940087201860166E-011
   1.6000000000000042E-003     5.2158475455366116E-011
   1.7000000000000001E-003     4.8332619156932211E-011
   1.8000000000000030E-003     4.3457890064324545E-011
   1.8999999999999989E-003     3.7547218806333049E-011
   2.0000000000000018E-003     3.0632003877872904E-011
   2.1000000000000046E-003     2.2762746548776747E-011
   2.2000000000000006E-003     1.4009385665425533E-011
   2.3000000000000034E-003     4.4613028549189693E-012
   2.3999999999999994E-003    -5.7730140112788320E-012
   2.5000000000000022E-003    -1.6566671645623643E-011
   2.5999999999999981E-003    -2.7775445138322752E-011
   2.7000000000000010E-003    -3.9239222981990451E-011
   2.8000000000000039E-003    -5.0783818122956959E-011
   2.8999999999999998E-003    -6.2223150243401193E-011
   3.0000000000000027E-003    -7.3361754171497040E-011
   3.0999999999999986E-003    -8.3997600541785289E-011
   3.2000000000000015E-003    -9.3925194011301727E-011
   3.3000000000000043E-003    -1.0293892127588578E-010
   3.4000000000000002E-003    -1.1083656908938977E-010
   3.5000000000000031E-003    -1.1742297412187241E-010
   3.5999999999999990E-003    -1.2251379077898861E-010
   3.7000000000000019E-003    -1.2593918963244022E-010
   3.7999999999999978E-003    -1.2754759748379030E-010
   3.9000000000000007E-003    -1.2720925701703578E-010
   4.0000000000000036E-003    -1.2481955746768136E-010
   4.0999999999999995E-003    -1.2030215712499626E-010
   4.2000000000000023E-003    -1.1361178664515137E-010
   4.2999999999999983E-003    -1.0473658051957102E-010
   4.4000000000000011E-003    -9.3700006087438226E-011
   4.5000000000000040E-003    -8.0562272131157187E-011
   4.5999999999999999E-003    -6.5421133788046149E-011
   4.7000000000000028E-003    -4.8412149289411843E-011
   4.7999999999999987E-003    -2.9708277504703062E-011
   4.9000000000000016E-003    -9.5188197601903113E-012
   5.0000000000000044E-003     1.1912287996296289E-011
   5.1000000000000004E-003     3.4308854368614305E-011
   5.2000000000000032E-003     5.7365452665880667E-011
   5.2999999999999992E-003     8.0751051678706887E-011
   5.4000000000000020E-003     1.0411325968018303E-010
   5.4999999999999979E-003     1.2708305241471152E-010
   5.6000000000000008E-003     1.4928000502401062E-010
   5.7000000000000037E-003     1.7031798194011571E-010
   5.7999999999999996E-003     1.8981102800630367E-010
   5.9000000000000025E-003     2.0737961348160638E-010
   5.9999999999999984E-003     2.2265697618983893E-010
   6.1000000000000013E-003     2.3529550530199117E-010
   6.2000000000000041E-003     2.4497306960746812E-010
   6.3000000000000000E-003     2.5139923476302783E-010
   6.4000000000000029E-003     2.5432114747481194E-010
   6.4999999999999988E-003     2.5352908661346873E-010
   6.6000000000000017E-003     2.4886157024006650E-010
   6.7000000000000046E-003     2.4020982425376758E-010
   6.8000000000000005E-003     2.2752166817241459E-010
   6.9000000000000034E-003     2.1080466539036280E-010
   6.9999999999999993E-003     1.9012842689125620E-010
   7.1000000000000021E-003     1.6562602678238392E-010
   7.1999999999999981E-003     1.3749462679513158E-010
   7.3000000000000009E-003     1.0599492811236289E-010
   7.4000000000000038E-003     7.1449873795259577E-011
   7.4999999999999997E-003     3.4242182006538613E-011
   7.6000000000000026E-003    -5.1890232562190608E-012
   7.6999999999999985E-003    -4.6352578025876667E-011
   7.8000000000000014E-003    -8.8710580548045925E-011
   7.9000000000000042E-003    -1.3168460766266321E-010
   8.0000000000000002E-003    -1.7466274260247161E-010
   8.1000000000000030E-003    -2.1700735652885328E-010
   8.1999999999999990E-003    -2.5806359826852088E-010
   8.3000000000000018E-003    -2.9716840099780484E-010
   8.4000000000000047E-003    -3.3366007179402857E-010
   8.5000000000000006E-003    -3.6688804772033734E-010
   8.6000000000000035E-003    -3.9622305436637362E-010
   8.6999999999999994E-003    -4.2106720887780114E-010
   8.8000000000000023E-003    -4.4086412298582900E-010
   8.8999999999999982E-003    -4.5510886725885769E-010
   9.0000000000000011E-003    -4.6335732473146152E-010
   9.1000000000000039E-003    -4.6523546126664428E-010
   9.1999999999999998E-003    -4.6044751345064583E-010
   9.3000000000000027E-003    -4.4878364913181201E-010
   9.3999999999999986E-003    -4.3012654549201557E-010
   9.5000000000000015E-003    -4.0445691240620363E-010
   9.6000000000000044E-003    -3.7185798884564747E-010
   9.7000000000000003E-003    -3.3251837394665529E-010
   9.8000000000000032E-003    -2.8673377561183599E-010
   9.8999999999999991E-003    -2.3490701051009921E-010
   1.0000000000000002E-002    -1.7754660242008669E-010
   1.0100000000000005E-002    -1.1526357646118868E-010
   1.0200000000000001E-002    -4.8766737176242358E-011
   1.0300000000000004E-002     2.1143779435628396E-011
   1.0400000000000000E-002     9.3584591465134537E-011
   1.0500000000000002E-002     1.6759878207484036E-010
   1.0599999999999998E-002     2.4216709193503050E-010
   1.0700000000000001E-002     3.1622057750091415E-010
   1.0800000000000004E-002     3.8865460849635269E-010
   1.0900000000000000E-002     4.5834400164146416E-010
   1.1000000000000003E-002     5.2415916051984368E-010
   1.1099999999999999E-002     5.8498289545738658E-010
   1.1200000000000002E-002     6.3972804831280428E-010
   1.1300000000000004E-002     6.8735500624583779E-010
   1.1400000000000000E-002     7.2688977059698345E-010
   1.1500000000000003E-002     7.5744138738897959E-010
   1.1599999999999999E-002     7.7821904476138570E-010
   1.1700000000000002E-002     7.8854828222674200E-010
   1.1800000000000005E-002     7.8788608970370433E-010
   1.1900000000000001E-002     7.7583461877139825E-010
   1.2000000000000004E-002     7.5215311756693382E-010
   1.2100000000000000E-002     7.1676786728147590E-010
   1.2200000000000003E-002     6.6978017576602156E-010
   1.2299999999999998E-002     6.1147126251270834E-010
   1.2400000000000001E-002     5.4230514523467832E-010
   1.2500000000000004E-002     4.6292841782147320E-010
   1.2600000000000000E-002     3.7416708620341410E-010
   1.2700000000000003E-002     2.7702024008036119E-010
   1.2799999999999999E-002     1.7265097684848740E-010
   1.2900000000000002E-002     6.2374098941386791E-011
   1.3000000000000005E-002    -5.2359096225362833E-011
   1.3100000000000001E-002    -1.6997880880609273E-010
   1.3200000000000003E-002    -2.8881735891772564E-010
   1.3299999999999999E-002    -4.0713221682864287E-010
   1.3400000000000002E-002    -5.2313103848788955E-010
   1.3500000000000005E-002    -6.3499855373905234E-010
   1.3600000000000001E-002    -7.4092465496278237E-010
   1.3700000000000004E-002    -8.3913348492004047E-010
   1.3800000000000000E-002    -9.2791280215109850E-010
   1.3900000000000003E-002    -1.0056439014860530E-009
   1.3999999999999999E-002    -1.0708298692208018E-009
   1.4100000000000001E-002    -1.1221240603376259E-009
   1.4200000000000004E-002    -1.1583560777239654E-009
   1.4300000000000000E-002    -1.1785559195232054E-009
   1.4400000000000003E-002    -1.1819758505282607E-009
   1.4499999999999999E-002    -1.1681089429060876E-009