  -4.0000000000000001E-002     0.0000000000000000
  -3.9899999999999998E-002     0.0000000000000000
  -3.9800000000000002E-002     0.0000000000000000
  -3.9699999999999999E-002    -3.4466567566011402E-011
  -3.9600000000000003E-002    -2.3598790483754576E-010
  -3.9500000000000000E-002    -9.1570389886573650E-010
  -3.9399999999999998E-002    -2.6421120010879691E-009
  -3.9300000000000002E-002    -6.2957554304340282E-009
  -3.9199999999999999E-002    -1.3075656454083352E-008
  -3.9100000000000003E-002    -2.4434652492840577E-008
  -3.9000000000000000E-002    -4.1925015473133534E-008
  -3.8900000000000004E-002    -6.6943145535670123E-008
  -3.8800000000000001E-002    -1.0037184742195001E-007
  -3.8699999999999998E-002    -1.4213060693632302E-007
  -3.8600000000000002E-002    -1.9065813178391807E-007
  -3.8500000000000000E-002    -2.4236268819261563E-007
  -3.8400000000000004E-002    -2.9109141975630688E-007
  -3.8300000000000001E-002    -3.2767608430379230E-007
  -3.8199999999999998E-002    -3.3962471017983341E-007
  -3.8100000000000002E-002    -3.1102365860609080E-007
  -3.7999999999999999E-002    -2.2272440359598854E-007
  -3.7900000000000003E-002    -5.2864523022483332E-008
  -3.7800000000000000E-002     2.2222156129180644E-007
  -3.7699999999999997E-002     6.2668664219908927E-007
  -3.7600000000000001E-002     1.1834401439935019E-006
  -3.7499999999999999E-002     1.9120408563895120E-006
  -3.7400000000000003E-002     2.8262639308999917E-006
  -3.7300000000000000E-002     3.9314442712983364E-006
  -3.7200000000000004E-002     5.2217196357940151E-006
  -3.7100000000000001E-002     6.6773280146602543E-006
  -3.6999999999999998E-002     8.2621385121314841E-006
  -3.6900000000000002E-002     9.9216372384101704E-006
  -3.6799999999999999E-002     1.1581536882753054E-005
  -3.6700000000000003E-002     1.3147232507219310E-005
  -3.6600000000000001E-002     1.4504339208625397E-005
  -3.6499999999999998E-002     1.5520366001176713E-005
  -3.6400000000000002E-002     1.6047775654327108E-005
  -3.6299999999999999E-002     1.5928442988805747E-005
  -3.6200000000000003E-002     1.4999462884530995E-005
  -3.6100000000000000E-002     1.3100382984286754E-005
  -3.6000000000000004E-002     1.0081596799278798E-005
  -3.5900000000000001E-002     5.8137252808136143E-006
  -3.5799999999999998E-002     1.9768520716492838E-007
  -3.5700000000000003E-002    -6.8249518627255159E-006
  -3.5600000000000000E-002    -1.5261690744844059E-005
  -3.5500000000000004E-002    -2.5059578363142174E-005
  -3.5400000000000001E-002    -3.6096784385603170E-005
  -3.5299999999999998E-002    -4.8175877388182031E-005
  -3.5200000000000002E-002    -6.1019398884978738E-005
  -3.5099999999999999E-002    -7.4268300150908821E-005
  -3.5000000000000003E-002    -8.7483354034861312E-005
  -3.4900000000000000E-002    -1.0015044764437164E-004
  -3.4799999999999998E-002    -1.1168944442130769E-004
  -3.4700000000000002E-002    -1.2146714573416046E-004
  -3.4599999999999999E-002    -1.2881404572274085E-004
  -3.4500000000000003E-002    -1.3304490823910477E-004
  -3.4400000000000000E-002    -1.3348236071273622E-004
  -3.4299999999999997E-002    -1.2948374679144171E-004
  -3.4200000000000001E-002    -1.2046950259163221E-004
  -3.4099999999999998E-002    -1.0595279023406580E-004
  -3.4000000000000002E-002    -8.5569604677859386E-005
  -3.3900000000000000E-002    -5.9107284574805535E-005
  -3.3799999999999997E-002    -2.6531428749745994E-005
  -3.3700000000000001E-002     1.1991128186854253E-005
  -3.3599999999999998E-002     5.6073474283486376E-005
  -3.3500000000000002E-002     1.0509595895798417E-004
  -3.3399999999999999E-002     1.5820014441388672E-004
  -3.3300000000000003E-002     2.1429020820321531E-004
  -3.3200000000000000E-002     2.7204301350036047E-004
  -3.3099999999999997E-002     3.2992675916439305E-004
  -3.3000000000000002E-002     3.8622823005432213E-004
  -3.2899999999999999E-002     4.3908907836969174E-004
  -3.2800000000000003E-002     4.8655004381239510E-004
  -3.2700000000000000E-002     5.2660257260643984E-004
  -3.2600000000000004E-002     5.5724639416932539E-004
  -3.2500000000000001E-002     5.7655233678976191E-004
  -3.2399999999999998E-002     5.8272749812814594E-004
  -3.2300000000000002E-002     5.7418236147177299E-004
  -3.2199999999999999E-002     5.4959570512252000E-004
  -3.2100000000000004E-002     5.0797779538938755E-004
  -3.2000000000000001E-002     4.4872677251931435E-004
  -3.1899999999999998E-002     3.7167834474132388E-004
  -3.1800000000000002E-002     2.7714554111893630E-004
  -3.1699999999999999E-002     1.6594661414559792E-004
  -3.1600000000000003E-002     3.9420443337718477E-005
  -3.1500000000000000E-002    -1.0057266871650860E-004
  -3.1399999999999997E-002    -2.5166616635316426E-004
  -3.1300000000000001E-002    -4.1101619983258125E-004
  -3.1199999999999999E-002    -5.7534838115323717E-004
  -3.1100000000000003E-002    -7.4101716892150250E-004
  -3.1000000000000000E-002    -9.0408174718820860E-004
  -3.0900000000000000E-002    -1.0603913490590559E-003
  -3.0800000000000001E-002    -1.2056835900793755E-003
  -3.0699999999999998E-002    -1.3356884364380335E-003
  -3.0600000000000002E-002    -1.4462397915618354E-003
  -3.0499999999999999E-002    -1.5333868385719591E-003
  -3.0400000000000000E-002    -1.5935070087650521E-003
  -3.0300000000000001E-002    -1.6234126740161587E-003
  -3.0200000000000001E-002    -1.6204524072514985E-003
  -3.0100000000000002E-002    -1.5826004710575985E-003
  -2.9999999999999999E-002    -1.5085343646391029E-003
  -2.9899999999999999E-002    -1.3976964604171837E-003
  -2.9800000000000000E-002    -1.2503386523113388E-003
  -2.9700000000000001E-002    -1.0675467727668854E-003
  -2.9600000000000001E-002    -8.5124373931586071E-004
  -2.9499999999999998E-002    -6.0417771300487228E-004
  -2.9400000000000003E-002    -3.2988192862123955E-004
  -2.9300000000000000E-002    -3.2620376940810185E-005
  -2.9200000000000000E-002     2.8268656312006879E-004
  -2.9100000000000001E-002     6.1055444298999530E-004
  -2.8999999999999998E-002     9.4503965166086519E-004
  -2.8900000000000002E-002     1.2798572077887935E-003
  -2.8799999999999999E-002     1.6085063474435589E-003
  -2.8700000000000000E-002     1.9244037331562162E-003
  -2.8600000000000000E-002     2.2210153328329407E-003
  -2.8500000000000001E-002     2.4919924357728182E-003
  -2.8400000000000002E-002     2.7312976339682331E-003
  -2.8299999999999999E-002     2.9333296025709035E-003
  -2.8200000000000003E-002     3.0930342430658111E-003
  -2.8100000000000000E-002     3.2060044968296795E-003
  -2.8000000000000001E-002     3.2685668387907067E-003
  -2.7900000000000001E-002     3.2778535710833532E-003
  -2.7799999999999998E-002     3.2318573143233012E-003
  -2.7700000000000002E-002     3.1294692434468896E-003
  -2.7600000000000000E-002     2.9705003351838868E-003
  -2.7500000000000000E-002     2.7556863211525445E-003
  -2.7400000000000001E-002     2.4866812954876432E-003
  -2.7299999999999998E-002     2.1660307638559097E-003
  -2.7200000000000002E-002     1.7971380111925436E-003
  -2.7099999999999999E-002     1.3842141686983508E-003
  -2.7000000000000000E-002     9.3222368529644690E-004
  -2.6900000000000000E-002     4.4681951307694290E-004
  -2.6800000000000001E-002    -6.5729144994387204E-005
  -2.6700000000000002E-002    -5.9861091506128918E-004
  -2.6599999999999999E-002    -1.1445502990309320E-003
  -2.6500000000000003E-002    -1.6958956828482842E-003
  -2.6400000000000000E-002    -2.2446972894164317E-003
  -2.6300000000000000E-002    -2.7827972246991803E-003
  -2.6200000000000001E-002    -3.3019189110525477E-003
  -2.6099999999999998E-002    -3.7937542086453422E-003
  -2.6000000000000002E-002    -4.2500628263266536E-003
  -2.5899999999999999E-002    -4.6627597501398919E-003
  -2.5800000000000000E-002    -5.0240283180377652E-003
  -2.5700000000000001E-002    -5.3264092802634702E-003
  -2.5599999999999998E-002    -5.5629188312304352E-003
  -2.5500000000000002E-002    -5.7271591779660307E-003
  -2.5399999999999999E-002    -5.8134256929711957E-003
  -2.5300000000000000E-002    -5.8168433696696026E-003
  -2.5200000000000000E-002    -5.7334674249565933E-003
  -2.5100000000000001E-002    -5.5604191364385328E-003
  -2.5000000000000001E-002    -5.2959914008734689E-003
  -2.4899999999999999E-002    -4.9397719312967671E-003
  -2.4800000000000003E-002    -4.4927356509371959E-003
  -2.4700000000000000E-002    -3.9573422070855978E-003
  -2.4600000000000000E-002    -3.3376117338982875E-003
  -2.4500000000000001E-002    -2.6391691333018143E-003
  -2.4399999999999998E-002    -1.8692807622814919E-003
  -2.4299999999999999E-002    -1.0368498706848220E-003
  -2.4199999999999999E-002    -1.5237890309234602E-004
  -2.4100000000000000E-002     7.7209579562610882E-004
  -2.4000000000000000E-002     1.7231154388185330E-003
  -2.3900000000000001E-002     2.6859531808660119E-003
  -2.3800000000000002E-002     3.6447998790695322E-003
  -2.3699999999999999E-002     4.5829921331893547E-003
  -2.3599999999999999E-002     5.4832926919482425E-003
  -2.3500000000000000E-002     6.3281889742127888E-003
  -2.3400000000000001E-002     7.1002282786982451E-003
  -2.3300000000000001E-002     7.7823774090248453E-003
  -2.3199999999999998E-002     8.3584019347791721E-003
  -2.3099999999999999E-002     8.8132566532636569E-003
  -2.3000000000000000E-002     9.1334667036428903E-003
  -2.2900000000000000E-002     9.3075026699661213E-003
  -2.2800000000000001E-002     9.3261443948392028E-003
  -2.2700000000000001E-002     9.1827932583425000E-003
  -2.2599999999999999E-002     8.8737608425813012E-003
  -2.2499999999999999E-002     8.3985017162731667E-003
  -2.2400000000000000E-002     7.7597702624154575E-003
  -2.2300000000000000E-002     6.9637376396906080E-003
  -2.2200000000000001E-002     6.0199909734333342E-003
  -2.2100000000000002E-002     4.9415025392897079E-003
  -2.1999999999999999E-002     3.7444641304003995E-003
  -2.1899999999999999E-002     2.4480813270085439E-003
  -2.1800000000000000E-002     1.0742578183111605E-003
  -2.1700000000000001E-002    -3.5279417975416210E-004
  -2.1600000000000001E-002    -1.8069988766004968E-003
  -2.1499999999999998E-002    -3.2609474450111114E-003
  -2.1399999999999999E-002    -4.6864637181478434E-003
  -2.1299999999999999E-002    -6.0552294197674938E-003
  -2.1200000000000000E-002    -7.3393963312815107E-003
  -2.1100000000000001E-002    -8.5122510104286338E-003
  -2.1000000000000001E-002    -9.5488440797322667E-003
  -2.0899999999999998E-002    -1.0426604276270053E-002
  -2.0799999999999999E-002    -1.1125922692150868E-002
  -2.0700000000000000E-002    -1.1630638301581982E-002
  -2.0600000000000000E-002    -1.1928531429120461E-002
  -2.0500000000000001E-002    -1.2011632003260619E-002
  -2.0400000000000001E-002    -1.1876514582319541E-002
  -2.0299999999999999E-002    -1.1524444583735602E-002
  -2.0199999999999999E-002    -1.0961416956058092E-002
  -2.0100000000000000E-002    -1.0198088349067793E-002
  -2.0000000000000000E-002    -9.2495847905057303E-003
  -1.9900000000000001E-002    -8.1351999629617078E-003
  -1.9799999999999998E-002    -6.8779899639950584E-003
  -1.9699999999999999E-002    -5.5042436226328435E-003
  -1.9599999999999999E-002    -4.0428890837739904E-003
  -1.9500000000000000E-002    -2.5248615972688210E-003
  -1.9400000000000001E-002    -9.8230525492700241E-004
  -1.9300000000000001E-002     5.5214477711826478E-004
  -1.9199999999999998E-002     2.0461395371259294E-003
  -1.9099999999999999E-002     3.4684531955056427E-003
  -1.9000000000000000E-002     4.7897243066696875E-003
  -1.8900000000000000E-002     5.9831384518404963E-003
  -1.8800000000000001E-002     7.0251256247413716E-003
  -1.8700000000000001E-002     7.8960002875634160E-003
  -1.8599999999999998E-002     8.5803490239192010E-003
  -1.8499999999999999E-002     9.0674868549259664E-003
  -1.8400000000000000E-002     9.3517482245772266E-003
  -1.8300000000000000E-002     9.4325667950342675E-003
  -1.8200000000000001E-002     9.3145461045454209E-003
  -1.8100000000000002E-002     9.0073689248942740E-003
  -1.7999999999999999E-002     8.5255844233437135E-003
  -1.7899999999999999E-002     7.8882002441826287E-003
  -1.7800000000000000E-002     7.1182793526717199E-003
  -1.7700000000000000E-002     6.2423889169935390E-003
  -1.7600000000000001E-002     5.2899832737094976E-003
  -1.7499999999999998E-002     4.2927238797241122E-003
  -1.7399999999999999E-002     3.2837321237835972E-003
  -1.7299999999999999E-002     2.2967975218747931E-003
  -1.7200000000000000E-002     1.3656308436139570E-003
  -1.7100000000000001E-002     5.2315124041951190E-004
  -1.7000000000000001E-002    -1.9932944247336940E-004
  -1.6899999999999998E-002    -7.7268248176037314E-004
  -1.6799999999999999E-002    -1.1706477240335305E-003
  -1.6700000000000000E-002    -1.3703475337466450E-003
  -1.6600000000000000E-002    -1.3526741524809947E-003
  -1.6500000000000001E-002    -1.1027781843453814E-003
  -1.6400000000000001E-002    -6.1011497393661900E-004
  -1.6299999999999999E-002     1.3135532980478905E-004
  -1.6199999999999999E-002     1.1230472197317990E-003
  -1.6100000000000000E-002     2.3620230172402903E-003
  -1.6000000000000000E-002     3.8411748593311715E-003
  -1.5900000000000001E-002     5.5493180429289114E-003
  -1.5799999999999998E-002     7.4718229155561339E-003
  -1.5699999999999999E-002     9.5908122534499804E-003
  -1.5599999999999999E-002     1.1885995725729938E-002
  -1.5500000000000000E-002     1.4334994844374588E-002
  -1.5400000000000000E-002     1.6914065097461670E-002
  -1.5300000000000001E-002     1.9598488334936284E-002
  -1.5199999999999998E-002     2.2363500676379197E-002
  -1.5099999999999999E-002     2.5184775862813487E-002
  -1.4999999999999999E-002     2.8038783599744849E-002
  -1.4900000000000000E-002     3.0903866760348814E-002
  -1.4800000000000001E-002     3.3760205368155771E-002
  -1.4700000000000001E-002     3.6590422234537692E-002
  -1.4599999999999998E-002     3.9380005109958496E-002
  -1.4499999999999999E-002     4.2117706656902953E-002
  -1.4400000000000000E-002     4.4795773569104580E-002
  -1.4300000000000000E-002     4.7409743049253827E-002
  -1.4200000000000001E-002     4.9959000041851748E-002
  -1.4099999999999998E-002     5.2446569020094980E-002
  -1.3999999999999999E-002     5.4879126931382791E-002
  -1.3899999999999999E-002     5.7266809444921837E-002
  -1.3800000000000000E-002     5.9623247436138560E-002
  -1.3700000000000000E-002     6.1965261280614706E-002
  -1.3600000000000001E-002     6.4312253247382961E-002
  -1.3499999999999998E-002     6.6686545392884086E-002
  -1.3399999999999999E-002     6.9113033376909438E-002
  -1.3299999999999999E-002     7.1618140498267674E-002
  -1.3200000000000000E-002     7.4229846469064775E-002
  -1.3100000000000001E-002     7.6978330126143357E-002
  -1.3000000000000001E-002     7.9893802874109549E-002
  -1.2899999999999998E-002     8.3007959260473954E-002
  -1.2799999999999999E-002     8.6352766844011830E-002
  -1.2699999999999999E-002     8.9960054486466989E-002
  -1.2600000000000000E-002     9.3862103495238935E-002
  -1.2500000000000001E-002     9.8091108348804912E-002
  -1.2399999999999998E-002    0.10267745496305716
  -1.2299999999999998E-002    0.10765290874082234
  -1.2199999999999999E-002    0.11304718372525502
  -1.2100000000000000E-002    0.11889005621412155
  -1.2000000000000000E-002    0.12520933076684385
  -1.1900000000000001E-002    0.13203271855119642
  -1.1799999999999998E-002    0.13938765560834940
  -1.1699999999999999E-002    0.14729945939621225
  -1.1599999999999999E-002    0.15579376013297574
  -1.1500000000000000E-002    0.16489498864121566
  -1.1400000000000000E-002    0.17462608568598476
  -1.1300000000000001E-002    0.18501028136122255
  -1.1199999999999998E-002    0.19607001909157229
  -1.1099999999999999E-002    0.20782750621104568
  -1.0999999999999999E-002    0.22030503946695851
  -1.0900000000000000E-002    0.23352231505672377
  -1.0800000000000001E-002    0.24750278379923485
  -1.0699999999999998E-002    0.26226629531822726
  -1.0599999999999998E-002    0.27783522640646274
  -1.0499999999999999E-002    0.29422955298110842
  -1.0400000000000000E-002    0.31147162013844770
  -1.0300000000000000E-002    0.32958407460827721
  -1.0200000000000001E-002    0.34858979123553874
  -1.0099999999999998E-002    0.36851070587373203
  -9.9999999999999985E-003    0.38936977748157786
  -9.8999999999999991E-003    0.41119195811205400
  -9.7999999999999997E-003    0.43400148911146608
  -9.7000000000000003E-003    0.45782342591923109
  -9.6000000000000009E-003    0.48268461402155260
  -9.4999999999999980E-003    0.50861217679512361
  -9.3999999999999986E-003    0.53563499668015713
  -9.2999999999999992E-003    0.56378255013732692
  -9.1999999999999998E-003    0.59308602221508699
  -9.1000000000000004E-003    0.62357825012706181
  -9.0000000000000011E-003    0.65529111161859621
  -8.8999999999999982E-003    0.68825816633665760
  -8.7999999999999988E-003    0.72252189115147258
  -8.6999999999999994E-003    0.75811805189127934
  -8.5999999999999965E-003    0.79509430862626340
  -8.5000000000000006E-003    0.83348958689255070
  -8.3999999999999977E-003    0.87335406251056402
  -8.3000000000000018E-003    0.91474106957267698
  -8.1999999999999990E-003    0.95770470083950165
  -8.0999999999999961E-003     1.0023022658664200
  -8.0000000000000002E-003     1.0485941028110495
  -7.8999999999999973E-003     1.0966526946688253
  -7.8000000000000014E-003     1.1465418343350422
  -7.6999999999999985E-003     1.1983409504978613
  -7.6000000000000026E-003     1.2521263954721418
  -7.4999999999999997E-003     1.3079914819366549
  -7.3999999999999969E-003     1.3660119042647301
  -7.3000000000000009E-003     1.4262941287156625
  -7.1999999999999981E-003     1.4889315643939627
  -7.1000000000000021E-003     1.5540386229404461
  -6.9999999999999993E-003     1.6217112580220219
  -6.8999999999999964E-003     1.6920668511344994
  -6.8000000000000005E-003     1.7652255420325922
  -6.6999999999999976E-003     1.8413007723455417
  -6.6000000000000017E-003     1.9204161517206892
  -6.4999999999999988E-003     2.0026935433725468
  -6.3999999999999960E-003     2.0882644068172245
  -6.3000000000000000E-003     2.1772471514514615
  -6.1999999999999972E-003     2.2697683690617043
  -6.1000000000000013E-003     2.3659492000171900
  -5.9999999999999984E-003     2.4659187501315722
  -5.9000000000000025E-003     2.5697948723645894
  -5.7999999999999996E-003     2.6776910185958238
  -5.6999999999999967E-003     2.7897331082749881
  -5.6000000000000008E-003     2.9060070266057849
  -5.4999999999999979E-003     3.0266344846515914
  -5.4000000000000020E-003     3.1517084182828956
  -5.2999999999999992E-003     3.2813137070042497
  -5.1999999999999963E-003     3.4155531359331635
  -5.1000000000000004E-003     3.5544922397443788
  -4.9999999999999975E-003     3.6982142539961522
  -4.9000000000000016E-003     3.8467968271116071
  -4.7999999999999987E-003     4.0003018177433143
  -4.6999999999999958E-003     4.1587812058997136
  -4.5999999999999999E-003     4.3223145193167474
  -4.4999999999999971E-003     4.4909422930868459
  -4.4000000000000011E-003     4.6647266129288543
  -4.2999999999999983E-003     4.8437331572082183
  -4.2000000000000023E-003     5.0279962304155958
  -4.0999999999999995E-003     5.2175802439791017
  -3.9999999999999966E-003     5.4125408993774489
  -3.9000000000000007E-003     5.6129459708136693
  -3.7999999999999978E-003     5.8188548398612010
  -3.7000000000000019E-003     6.0303435931090732
  -3.5999999999999990E-003     6.2475073006364141
  -3.4999999999999962E-003     6.4703966234093819
  -3.4000000000000002E-003     6.6991290510252188
  -3.2999999999999974E-003     6.9337821796843091
  -3.2000000000000015E-003     7.1744871622433912
  -3.0999999999999986E-003     7.4213430370420657
  -2.9999999999999957E-003     7.6744575911930824
  -2.8999999999999998E-003     7.9339695239876828
  -2.7999999999999969E-003     8.1999853821338640
  -2.7000000000000010E-003     8.4726844502701226
  -2.5999999999999981E-003     8.7521447484411361
  -2.5000000000000022E-003     9.0385387294612975
  -2.3999999999999994E-003     9.3319849603825702
  -2.2999999999999965E-003     9.6326351696244163
  -2.2000000000000006E-003     9.9405968809913574
  -2.0999999999999977E-003     10.256020960625202
  -2.0000000000000018E-003     10.579015006414425
  -1.8999999999999989E-003     10.909686919984766
  -1.7999999999999960E-003     11.248113724582149
  -1.7000000000000001E-003     11.594410939016356
  -1.5999999999999973E-003     11.948658494932014
  -1.5000000000000013E-003     12.310878346052364
  -1.3999999999999985E-003     12.681098615665803
  -1.2999999999999956E-003     13.059395691565964
  -1.1999999999999997E-003     13.445682700002251
  -1.0999999999999968E-003     13.840079407896766
  -1.0000000000000009E-003     14.242450011924582
  -8.9999999999999802E-004     14.652789039346914
  -8.0000000000000210E-004     15.070956626775470
  -6.9999999999999923E-004     15.496931686000988
  -5.9999999999999637E-004     15.930604131402134
  -5.0000000000000044E-004     16.371776230746210
  -3.9999999999999758E-004     16.820347397015393
  -3.0000000000000165E-004     17.276130289218411
  -1.9999999999999879E-004     17.739005189594788
  -9.9999999999995925E-005     18.208706635085090
   0.0000000000000000          18.685060983772235
   1.0000000000000286E-004     19.167794454563612
   1.9999999999999879E-004     19.656723177710123
   3.0000000000000165E-004     20.151629089588660
   4.0000000000000452E-004     20.652254014894410
   5.0000000000000044E-004     21.158339319217454
   6.0000000000000331E-004     21.669545836083820
   6.9999999999999923E-004     22.185647628681451
   8.0000000000000210E-004     22.706515977588889
   8.9999999999999802E-004     23.231732716602949
   1.0000000000000009E-003     23.761015854294520
   1.1000000000000038E-003     24.294106080105571
   1.1999999999999997E-003     24.830732433813324
   1.3000000000000025E-003     25.370598855937338
   1.3999999999999985E-003     25.913281255063204
   1.5000000000000013E-003     26.458602436657912
   1.6000000000000042E-003     27.006203882841003
   1.7000000000000001E-003     27.555770489728403
   1.8000000000000030E-003     28.106837972972663
   1.8999999999999989E-003     28.659237210969479
   2.0000000000000018E-003     29.212413032494936
   2.1000000000000046E-003     29.766110087623630
   2.2000000000000006E-003     30.319757683806579
   2.3000000000000034E-003     30.873013722254413
   2.3999999999999994E-003     31.425468071139505
   2.5000000000000022E-003     31.976594046918777
   2.5999999999999981E-003     32.525943080277926
   2.7000000000000010E-003     33.072890084445660
   2.8000000000000039E-003     33.616981038192307
   2.8999999999999998E-003     34.157603680096884
   3.0000000000000027E-003     34.694121538719649
   3.0999999999999986E-003     35.225958420262181
   3.2000000000000015E-003     35.752298261353069
   3.3000000000000043E-003     36.272525938143602
   3.4000000000000002E-003     36.785864651017036
   3.5000000000000031E-003     37.291514335513313
   3.5999999999999990E-003     37.788590427887414
   3.7000000000000019E-003     38.276543426664148
   3.7999999999999978E-003     38.754134220904582
   3.9000000000000007E-003     39.220655783977442
   4.0000000000000036E-003     39.675024735131863
   4.0999999999999995E-003     40.116651387435532
   4.2000000000000023E-003     40.544265266863817
   4.2999999999999983E-003     40.956827990578347
   4.4000000000000011E-003     41.353212849221329
   4.5000000000000040E-003     41.732667573478018
   4.5999999999999999E-003     42.094188801442343
   4.7000000000000028E-003     42.436425149997270
   4.7999999999999987E-003     42.758685048019373
   4.9000000000000016E-003     43.059406387782069
   5.0000000000000044E-003     43.338299340480681
   5.1000000000000004E-003     43.593415137105502
   5.2000000000000032E-003     43.824356712593946
   5.2999999999999992E-003     44.029583870357392
   5.4000000000000020E-003     44.208572970068957
   5.4999999999999979E-003     44.359684662061930
   5.6000000000000008E-003     44.482276371833777
   5.7000000000000037E-003     44.575233099125661
   5.7999999999999996E-003     44.637103450475195
   5.9000000000000025E-003     44.667363775050077
   5.9999999999999984E-003     44.664884490761658
   6.1000000000000013E-003     44.628527623201521
   6.2000000000000041E-003     44.557274045133823
   6.3000000000000000E-003     44.450473398176328
   6.4000000000000029E-003     44.306767111585231
   6.4999999999999988E-003     44.125525161894338
   6.6000000000000017E-003     43.905559724809393
   6.7000000000000046E-003     43.646183485560272
   6.8000000000000005E-003     43.346556128388748
   6.9000000000000034E-003     43.005267460809385
   6.9999999999999993E-003     42.621959836772746
   7.1000000000000021E-003     42.195130833794522
   7.1999999999999981E-003     41.724415796861322
   7.3000000000000009E-003     41.209250171591208
   7.4000000000000038E-003     40.648749707208466
   7.4999999999999997E-003     40.041813973491593
   7.6000000000000026E-003     39.387379444729177
   7.6999999999999985E-003     38.684876769396887
   7.8000000000000014E-003     37.933289278141849
   7.9000000000000042E-003     37.132779169613180
   8.0000000000000002E-003     36.282037565739707
   8.1000000000000030E-003     35.380222805556599
   8.1999999999999990E-003     34.427092254147809
   8.3000000000000018E-003     33.421854126347625
   8.4000000000000047E-003     32.363706742390235
   8.5000000000000006E-003     31.252358012520901
   8.6000000000000035E-003     30.087058158454276
   8.6999999999999994E-003     28.867964077540798
   8.8000000000000023E-003     27.593641522005150
   8.8999999999999982E-003     26.264527005457772
   9.0000000000000011E-003     24.879993274538403
   9.1000000000000039E-003     23.440247315309190
   9.1999999999999998E-003     21.944883800574885
   9.3000000000000027E-003     20.393475806587212
   9.3999999999999986E-003     18.786356918425945
   9.5000000000000015E-003     17.123114700432581
   9.6000000000000044E-003     15.403612993090736
   9.7000000000000003E-003     13.628245107816213
   9.8000000000000032E-003     11.797911746666445
   9.8999999999999991E-003     9.9116887707231278
   1.0000000000000002E-002     7.9702648789367139
   1.0100000000000005E-002     5.9745481568056586
   1.0200000000000001E-002     3.9243338259444851
   1.0300000000000004E-002     1.8196546903806201
   1.0400000000000000E-002   -0.33778055536379359
   1.0500000000000002E-002    -2.5485143077554486
   1.0599999999999998E-002    -4.8103688216530749
   1.0700000000000001E-002    -7.1243133390411231
   1.0800000000000004E-002    -9.4881220352816165
   1.0900000000000000E-002    -11.902047203984388
   1.1000000000000003E-002    -14.364416183512702
   1.1099999999999999E-002    -16.873799404780055
   1.1200000000000002E-002    -19.429611816923085
   1.1300000000000004E-002    -22.030139532313008
   1.1400000000000000E-002    -24.673929772827215
   1.1500000000000003E-002    -27.359749388966726
   1.1599999999999999E-002    -30.086627220108895
   1.1700000000000002E-002    -32.852371892272579
   1.1800000000000005E-002    -35.655560664265749
   1.1900000000000001E-002    -38.493414391236037
   1.2000000000000004E-002    -41.365063722724273
   1.2100000000000000E-002    -44.268716414053785
   1.2200000000000003E-002    -47.202048644968698
   1.2299999999999998E-002    -50.163033925640747
   1.2400000000000001E-002    -53.150163363422408
   1.2500000000000004E-002    -56.159429585857524
   1.2600000000000000E-002    -59.189401990421729
   1.2700000000000003E-002    -62.237545929091581
   1.2799999999999999E-002    -65.301769250603314
   1.2900000000000002E-002    -68.379609602115806
   1.3000000000000005E-002    -71.467089483361946
   1.3100000000000001E-002    -74.561991312041926
   1.3200000000000003E-002    -77.663364183099148
   1.3299999999999999E-002    -80.766013741977787
   1.3400000000000002E-002    -83.869155231291387
   1.3500000000000005E-002    -86.969178401981992
   1.3600000000000001E-002    -90.062524198015808
   1.3700000000000004E-002    -93.147588239584280
   1.3800000000000000E-002    -96.220034293921316
   1.3900000000000003E-002    -99.278184240229905
   1.3999999999999999E-002    -102.31909035311079
   1.4100000000000001E-002    -105.33954511389408
   1.4200000000000004E-002    -108.33631546281316
   1.4300000000000000E-002    -111.30700560012957
   1.4400000000000003E-002    -114.24827146598281
   1.4499999999999999E-002    -117.15825080968597
   1.4600000000000002E-002    -120.03265441577068
   1.4700000000000005E-002    -122.86984378262440
   1.4800000000000001E-002    -125.66597841558919
   1.4900000000000004E-002    -128.41865648061003
   1.4999999999999999E-002    -131.12507676897883
   1.5100000000000002E-002    -133.78172351783235
   1.5200000000000005E-002    -136.38704979798987
   1.5300000000000001E-002    -138.93702770250565
   1.5400000000000004E-002    -141.42858540885425
   1.5500000000000000E-002    -143.85978714816673
   1.5600000000000003E-002    -146.22877009528167
   1.5699999999999999E-002    -148.53065841883318
   1.5800000000000002E-002    -150.76429377079660
   1.5900000000000004E-002    -152.92635943063868
   1.6000000000000000E-002    -155.01533317316694
   1.6100000000000003E-002    -157.02774072904566
   1.6199999999999999E-002    -158.96044036432087
   1.6300000000000002E-002    -160.81376517501670
   1.6400000000000005E-002    -162.58215635680560
   1.6500000000000001E-002    -164.26580216596392
   1.6600000000000004E-002    -165.86065122293184
   1.6700000000000000E-002    -167.36606942500734
   1.6800000000000002E-002    -168.77886728276536
   1.6900000000000005E-002    -170.09774890193484
   1.7000000000000001E-002    -171.32029832443013
   1.7100000000000004E-002    -172.44496312598358