  -4.0000000000000001E-002     0.0000000000000000
  -3.9899999999999998E-002    -5.6906629831294593E-006
  -3.9800000000000002E-002    -1.9661657124729089E-005
  -3.9699999999999999E-002    -4.6638412369771091E-005
  -3.9600000000000003E-002    -9.3159882407673237E-005
  -3.9500000000000000E-002    -1.6704239963580853E-004
  -3.9399999999999998E-002    -2.7666207278823697E-004
  -3.9300000000000002E-002    -4.3010219224354326E-004
  -3.9199999999999999E-002    -6.3422224689854592E-004
  -3.9100000000000003E-002    -8.9371439820983846E-004
  -3.9000000000000000E-002    -1.2102142446853905E-003
  -3.8900000000000004E-002    -1.5815382322149861E-003
  -3.8800000000000001E-002    -2.0011036943817545E-003
  -3.8699999999999998E-002    -2.4575986524780716E-003
  -3.8600000000000002E-002    -2.9349301941015223E-003
  -3.8500000000000000E-002    -3.4124931549220951E-003
  -3.8400000000000004E-002    -3.8657621520513724E-003
  -3.8300000000000001E-002    -4.2671942094774729E-003
  -3.8199999999999998E-002    -4.5874274006361508E-003
  -3.8100000000000002E-002    -4.7967110238716958E-003
  -3.7999999999999999E-002    -4.8665233591014103E-003
  -3.7900000000000003E-002    -4.7712794610808105E-003
  -3.7800000000000000E-002    -4.4900538549513423E-003
  -3.7699999999999997E-002    -4.0082270310083648E-003
  -3.7600000000000001E-002    -3.3189314597353867E-003
  -3.7499999999999999E-002    -2.4242544616454014E-003
  -3.7400000000000003E-002    -1.3360638463382505E-003
  -3.7300000000000000E-002    -7.6407870770192621E-005
  -3.7200000000000004E-002     1.3225486673433201E-003
  -3.7100000000000001E-002     2.8191027672638683E-003
  -3.6999999999999998E-002     4.3630954541396400E-003
  -3.6900000000000002E-002     5.8975169519919664E-003
  -3.6799999999999999E-002     7.3605169930333648E-003
  -3.6700000000000003E-002     8.6878200820924949E-003
  -3.6600000000000001E-002     9.8153844943957291E-003
  -3.6499999999999998E-002     1.0682327084722307E-002
  -3.6400000000000002E-002     1.1233732867067574E-002
  -3.6299999999999999E-002     1.1423507635952216E-002
  -3.6200000000000003E-002     1.1216935103008707E-002
  -3.6100000000000000E-002     1.0592871933422879E-002
  -3.6000000000000004E-002     9.5454645654291029E-003
  -3.5900000000000001E-002     8.0852317853717989E-003
  -3.5799999999999998E-002     6.2395329592592717E-003
  -3.5700000000000003E-002     4.0522411146553146E-003
  -3.5600000000000000E-002     1.5826767769275517E-003
  -3.5500000000000004E-002    -1.0961818579137677E-003
  -3.5400000000000001E-002    -3.9001927078792086E-003
  -3.5299999999999998E-002    -6.7372001497547282E-003
  -3.5200000000000002E-002    -9.5106280845029603E-003
  -3.5099999999999999E-002    -1.2123424642017320E-002
  -3.5000000000000003E-002    -1.4482289563906493E-002
  -3.4900000000000000E-002    -1.6501745645087305E-002
  -3.4799999999999998E-002    -1.8108181136746615E-002
  -3.4700000000000002E-002    -1.9243456428716020E-002
  -3.4599999999999999E-002    -1.9867931229098603E-002
  -3.4500000000000003E-002    -1.9962759390786896E-002
  -3.4400000000000000E-002    -1.9531466740248030E-002
  -3.4299999999999997E-002    -1.8600379360490568E-002
  -3.4200000000000001E-002    -1.7218166638261388E-002
  -3.4099999999999998E-002    -1.5454294220446405E-002
  -3.4000000000000002E-002    -1.3396473783213632E-002
  -3.3900000000000000E-002    -1.1147080318338963E-002
  -3.3799999999999997E-002    -8.8191573106023158E-003
  -3.3700000000000001E-002    -6.5310165783456914E-003
  -3.3599999999999998E-002    -4.4011520810846028E-003
  -3.3500000000000002E-002    -2.5425466373205086E-003
  -3.3399999999999999E-002    -1.0568998502488436E-003
  -3.3300000000000003E-002    -2.9611253507345892E-005
  -3.3200000000000000E-002     4.7533713384529871E-004
  -3.3099999999999997E-002     4.1912930218212033E-004
  -3.3000000000000002E-002    -2.0867446728505424E-004
  -3.2899999999999999E-002    -1.3885670777019528E-003
  -3.2800000000000003E-002    -3.0702017390734013E-003
  -3.2700000000000000E-002    -5.1736068665006064E-003
  -3.2600000000000004E-002    -7.5913695376210039E-003
  -3.2500000000000001E-002    -1.0192261515667371E-002
  -3.2399999999999998E-002    -1.2826256233016094E-002
  -3.2300000000000002E-002    -1.5330717323419681E-002
  -3.2199999999999999E-002    -1.7537302075229667E-002
  -3.2100000000000004E-002    -1.9279541019903250E-002
  -3.2000000000000001E-002    -2.0400890273013367E-002
  -3.1899999999999998E-002    -2.0762603249183900E-002
  -3.1800000000000002E-002    -2.0251573352156799E-002
  -3.1699999999999999E-002    -1.8786949336673076E-002
  -3.1600000000000003E-002    -1.6326098555864615E-002
  -3.1500000000000000E-002    -1.2869328394171820E-002
  -3.1399999999999997E-002    -8.4627306274698416E-003
  -3.1300000000000001E-002    -3.1992658944136592E-003
  -3.1199999999999999E-002     2.7819245097724168E-003
  -3.1100000000000003E-002     9.2982143676863631E-003
  -3.1000000000000000E-002     1.6128275778554392E-002
  -3.0900000000000000E-002     2.3018414296133945E-002
  -3.0800000000000001E-002     2.9691174247005812E-002
  -3.0699999999999998E-002     3.5854539779339278E-002
  -3.0600000000000002E-002     4.1212978796434013E-002
  -3.0499999999999999E-002     4.5478403086354396E-002
  -3.0400000000000000E-002     4.8382174110099971E-002
  -3.0300000000000001E-002     4.9686206483681161E-002
  -3.0200000000000001E-002     4.9194131878391820E-002
  -3.0100000000000002E-002     4.6760601882684730E-002
  -2.9999999999999999E-002     4.2299229213557950E-002
  -2.9899999999999999E-002     3.5788645223974583E-002
  -2.9800000000000000E-002     2.7277043632873359E-002
  -2.9700000000000001E-002     1.6883348815940929E-002
  -2.9600000000000001E-002     4.7954591843929473E-003
  -2.9499999999999998E-002    -8.7333712779076311E-003
  -2.9400000000000003E-002    -2.3390205853304910E-002
  -2.9300000000000000E-002    -3.8811922264481824E-002
  -2.9200000000000000E-002    -5.4596580259723436E-002
  -2.9100000000000001E-002    -7.0315290083343043E-002
  -2.8999999999999998E-002    -8.5527356985435010E-002
  -2.8900000000000002E-002    -9.9794099343120751E-002
  -2.8799999999999999E-002   -0.11269539874348013
  -2.8700000000000000E-002   -0.12384341290965165
  -2.8600000000000000E-002   -0.13289822204315116
  -2.8500000000000001E-002   -0.13957887472818412
  -2.8400000000000002E-002   -0.14367500390451757
  -2.8299999999999999E-002   -0.14505452999818455
  -2.8200000000000003E-002   -0.14367054568444945
  -2.8100000000000000E-002   -0.13956207857185626
  -2.8000000000000001E-002   -0.13285339700234902
  -2.7900000000000001E-002   -0.12375206752798647
  -2.7799999999999998E-002   -0.11253952576606552
  -2.7700000000000002E-002    -9.9562701514560870E-002
  -2.7600000000000000E-002    -8.5219657497369122E-002
  -2.7500000000000000E-002    -6.9946844838789157E-002
  -2.7400000000000001E-002    -5.4201897034127450E-002
  -2.7299999999999998E-002    -3.8445075293956438E-002
  -2.7200000000000002E-002    -2.3125062453856690E-002
  -2.7099999999999999E-002    -8.6582139148699139E-003
  -2.7000000000000000E-002     4.5869427396132839E-003
  -2.6900000000000000E-002     1.6302452360559549E-002
  -2.6800000000000001E-002     2.6253208270489707E-002
  -2.6700000000000002E-002     3.4289830331085007E-002
  -2.6599999999999999E-002     4.0347852595613645E-002
  -2.6500000000000003E-002     4.4459612935000545E-002
  -2.6400000000000000E-002     4.6744037200647917E-002
  -2.6300000000000000E-002     4.7409827349078476E-002
  -2.6200000000000001E-002     4.6739855825653071E-002
  -2.6099999999999998E-002     4.5084758036486594E-002
  -2.6000000000000002E-002     4.2848372991731498E-002
  -2.5899999999999999E-002     4.0468835686270105E-002
  -2.5800000000000000E-002     3.8401531602314076E-002
  -2.5700000000000001E-002     3.7099552027121369E-002
  -2.5599999999999998E-002     3.6997291507613800E-002
  -2.5500000000000002E-002     3.8487298044382917E-002
  -2.5399999999999999E-002     4.1903652744580022E-002
  -2.5300000000000000E-002     4.7510487627507481E-002
  -2.5200000000000000E-002     5.5486836045957916E-002
  -2.5100000000000001E-002     6.5916099401537281E-002
  -2.5000000000000001E-002     7.8787367270003184E-002
  -2.4899999999999999E-002     9.3982976917958261E-002
  -2.4800000000000003E-002    0.11129441425304942
  -2.4700000000000000E-002    0.13041825077646191
  -2.4600000000000000E-002    0.15097136449618412
  -2.4500000000000001E-002    0.17250786705532531
  -2.4399999999999998E-002    0.19453266868311281
  -2.4299999999999999E-002    0.21652629686599867
  -2.4199999999999999E-002    0.23795559201055005
  -2.4100000000000000E-002    0.25831104989828563
  -2.4000000000000000E-002    0.27712110605668955
  -2.3900000000000001E-002    0.29397108272783246
  -2.3800000000000002E-002    0.30852504067533343
  -2.3699999999999999E-002    0.32054326594378957
  -2.3599999999999999E-002    0.32989676130762002
  -2.3500000000000000E-002    0.33657669662003814
  -2.3400000000000001E-002    0.34069918749124667
  -2.3300000000000001E-002    0.34250100036630982
  -2.3199999999999998E-002    0.34234349960952604
  -2.3099999999999999E-002    0.34069879118146595
  -2.3000000000000000E-002    0.33813089087600201
  -2.2900000000000000E-002    0.33529612958143573
  -2.2800000000000001E-002    0.33289849690104889
  -2.2700000000000001E-002    0.33169528773799184
  -2.2599999999999999E-002    0.33243729130560706
  -2.2499999999999999E-002    0.33587054279308670
  -2.2400000000000000E-002    0.34270446078671279
  -2.2300000000000000E-002    0.35357698653458625
  -2.2200000000000001E-002    0.36904183800834811
  -2.2100000000000002E-002    0.38955954574034279
  -2.1999999999999999E-002    0.41544647939592894
  -2.1899999999999999E-002    0.44690600319244500
  -2.1800000000000000E-002    0.48399315487743932
  -2.1700000000000001E-002    0.52663615167364430
  -2.1600000000000001E-002    0.57462287695813896
  -2.1499999999999998E-002    0.62761339235991798
  -2.1399999999999999E-002    0.68517272665059670
  -2.1299999999999999E-002    0.74676174511727877
  -2.1200000000000000E-002    0.81177682432458687
  -2.1100000000000001E-002    0.87958057253563982
  -2.1000000000000001E-002    0.94951303397155229
  -2.0899999999999998E-002     1.0209324967917390
  -2.0799999999999999E-002     1.0932334316255830
  -2.0700000000000000E-002     1.1658937757433898
  -2.0600000000000000E-002     1.2384676279546283
  -2.0500000000000001E-002     1.3106357189426032
  -2.0400000000000001E-002     1.3821963703142059
  -2.0299999999999999E-002     1.4531068133675153
  -2.0199999999999999E-002     1.5234505793100874
  -2.0100000000000000E-002     1.5934762338983943
  -2.0000000000000000E-002     1.6635790437659610
  -1.9900000000000001E-002     1.7342746653387819
  -1.9799999999999998E-002     1.8062000120734476
  -1.9699999999999999E-002     1.8801223707276140
  -1.9599999999999999E-002     1.9568323735849362
  -1.9500000000000000E-002     2.0372057173268940
  -1.9400000000000001E-002     2.1221244647862769
  -1.9300000000000001E-002     2.2124646088207478
  -1.9199999999999998E-002     2.3090802771665704
  -1.9099999999999999E-002     2.4127436030166054
  -1.9000000000000000E-002     2.5241108569884085
  -1.8900000000000000E-002     2.6437958085626101
  -1.8800000000000001E-002     2.7722266777926885
  -1.8700000000000001E-002     2.9097596691538872
  -1.8599999999999998E-002     3.0565209293124234
  -1.8499999999999999E-002     3.2125875277668490
  -1.8400000000000000E-002     3.3778574490612767
  -1.8300000000000000E-002     3.5521098750487150
  -1.8200000000000001E-002     3.7350203041814063
  -1.8100000000000002E-002     3.9261975036340875
  -1.7999999999999999E-002     4.1251838612456195
  -1.7899999999999999E-002     4.3315164729483673
  -1.7800000000000000E-002     4.5447263685091661
  -1.7700000000000000E-002     4.7643093716411284
  -1.7600000000000001E-002     4.9899491882954621
  -1.7499999999999998E-002     5.2213464680050503
  -1.7399999999999999E-002     5.4583334361057858
  -1.7299999999999999E-002     5.7008592297697316
  -1.7200000000000000E-002     5.9490609628511368
  -1.7100000000000001E-002     6.2031716763853861
  -1.7000000000000001E-002     6.4636476314554585
  -1.6899999999999998E-002     6.7311038174841897
  -1.6799999999999999E-002     7.0062848839379832
  -1.6700000000000000E-002     7.2900778615259174
  -1.6600000000000000E-002     7.5834414144491564
  -1.6500000000000001E-002     7.8875194667352453
  -1.6400000000000001E-002     8.2033837870956958
  -1.6299999999999999E-002     8.5322553497068920
  -1.6199999999999999E-002     8.8752952771720075
  -1.6100000000000000E-002     9.2336026607801358
  -1.6000000000000000E-002     9.6082282280886790
  -1.5900000000000001E-002     10.000151163583762
  -1.5799999999999998E-002     10.410185162986942
  -1.5699999999999999E-002     10.839032388391178
  -1.5599999999999999E-002     11.287203701418226
  -1.5500000000000000E-002     11.755057955442876
  -1.5400000000000000E-002     12.242802471696075
  -1.5300000000000001E-002     12.750455738015662
  -1.5199999999999998E-002     13.277796568122213
  -1.5099999999999999E-002     13.824621072097315
  -1.4999999999999999E-002     14.390524296968174
  -1.4900000000000000E-002     14.974992044484988
  -1.4800000000000001E-002     15.577553993066651
  -1.4700000000000001E-002     16.197611419984895
  -1.4599999999999998E-002     16.834602935055432
  -1.4499999999999999E-002     17.487995488975926
  -1.4400000000000000E-002     18.157468290102692
  -1.4300000000000000E-002     18.842618646688745
  -1.4200000000000001E-002     19.543335718179549
  -1.4099999999999998E-002     20.259585961658345
  -1.3999999999999999E-002     20.991439736522402
  -1.3899999999999999E-002     21.739326475598538
  -1.3800000000000000E-002     22.503650622340651
  -1.3700000000000000E-002     23.285108997515657
  -1.3600000000000001E-002     24.084457688360228
  -1.3499999999999998E-002     24.902698729405120
  -1.3399999999999999E-002     25.740867853094343
  -1.3299999999999999E-002     26.600042459506092
  -1.3200000000000000E-002     27.481377805146813
  -1.3100000000000001E-002     28.385947543769369
  -1.3000000000000001E-002     29.314851144312691
  -1.2899999999999998E-002     30.269107282102176
  -1.2799999999999999E-002     31.249523453634055
  -1.2699999999999999E-002     32.256776198939143
  -1.2600000000000000E-002     33.291450449861244
  -1.2500000000000001E-002     34.353797735751456
  -1.2399999999999998E-002     35.443977270669926
  -1.2299999999999998E-002     36.561544448092270
  -1.2199999999999999E-002     37.706368799064158
  -1.2100000000000000E-002     38.877556551590686
  -1.2000000000000000E-002     40.074438503120163
  -1.1900000000000001E-002     41.295698913567158
  -1.1799999999999998E-002     42.540232376787806
  -1.1699999999999999E-002     43.806550163951556
  -1.1599999999999999E-002     45.093129992486929
  -1.1500000000000000E-002     46.398352077147443
  -1.1400000000000000E-002     47.720488242745816
  -1.1300000000000001E-002     49.058081734162087
  -1.1199999999999998E-002     50.409311256672467
  -1.1099999999999999E-002     51.772700750770937
  -1.0999999999999999E-002     53.146767596949864
  -1.0900000000000000E-002     54.530190073935032
  -1.0800000000000001E-002     55.921751678925546
  -1.0699999999999998E-002     57.320447126727757
  -1.0599999999999998E-002     58.725158485942544
  -1.0499999999999999E-002     60.135022127324248
  -1.0400000000000000E-002     61.549419620977531
  -1.0300000000000000E-002     62.967603149327445
  -1.0200000000000001E-002     64.388986054988507
  -1.0099999999999998E-002     65.812688682293143
  -9.9999999999999985E-003     67.238299167021410
  -9.8999999999999991E-003     68.664884846607563
  -9.7999999999999997E-003     70.091725119756731
  -9.7000000000000003E-003     71.517610490840738
  -9.6000000000000009E-003     72.941185077344826
  -9.4999999999999980E-003     74.360786019031750
  -9.3999999999999986E-003     75.774684937808260
  -9.2999999999999992E-003     77.180518962321003
  -9.1999999999999998E-003     78.575827691166552
  -9.1000000000000004E-003     79.957811540494248
  -9.0000000000000011E-003     81.322929376298063
  -8.8999999999999982E-003     82.667671395819184
  -8.7999999999999988E-003     83.988086734519243
  -8.6999999999999994E-003     85.279789127944440
  -8.5999999999999965E-003     86.538173148341826
  -8.5000000000000006E-003     87.758186095726060
  -8.3999999999999977E-003     88.934788290279556
  -8.3000000000000018E-003     90.062694629408725
  -8.1999999999999990E-003     91.136376640813495
  -8.0999999999999961E-003     92.150034664423259
  -8.0000000000000002E-003     93.098188318992129
  -7.8999999999999973E-003     93.975044767046469
  -7.8000000000000014E-003     94.774968759091266
  -7.6999999999999985E-003     95.492321375683275
  -7.6000000000000026E-003     96.121387908845335
  -7.4999999999999997E-003     96.656213092076570
  -7.3999999999999969E-003     97.091629767514277
  -7.3000000000000009E-003     97.422159348105325
  -7.1999999999999981E-003     97.641955041582605
  -7.1000000000000021E-003     97.745734188496314
  -6.9999999999999993E-003     97.727764408758901
  -6.8999999999999964E-003     97.582775715012403
  -6.8000000000000005E-003     97.304857804748139
  -6.6999999999999976E-003     96.888236773762941
  -6.6000000000000017E-003     96.326943364416394
  -6.4999999999999988E-003     95.614735904457277
  -6.3999999999999960E-003     94.745623805204275
  -6.3000000000000000E-003     93.712307196041877
  -6.1999999999999972E-003     92.508406947520996
  -6.1000000000000013E-003     91.125897798586010
  -5.9999999999999984E-003     89.558043353748246
  -5.9000000000000025E-003     87.795625002564776
  -5.7999999999999996E-003     85.831349453788448
  -5.6999999999999967E-003     83.655929763622012
  -5.6000000000000008E-003     81.260194940738089
  -5.4999999999999979E-003     78.635683420611159
  -5.4000000000000020E-003     75.772775055823132
  -5.2999999999999992E-003     72.661269689762008
  -5.1999999999999963E-003     69.291585970830354
  -5.1000000000000004E-003     65.654236510884786
  -4.9999999999999975E-003     61.738665852294659
  -4.9000000000000016E-003     57.535445334721345
  -4.7999999999999987E-003     53.034894310978757
  -4.6999999999999958E-003     48.226116222261737
  -4.5999999999999999E-003     43.099945737415581
  -4.4999999999999971E-003     37.647097279649543
  -4.4000000000000011E-003     31.858452378101958
  -4.2999999999999983E-003     25.724911397189061
  -4.2000000000000023E-003     19.237695577177035
  -4.0999999999999995E-003     12.388913953286718
  -3.9999999999999966E-003     5.1692058046073726
  -3.9000000000000007E-003    -2.4281857124518922
  -3.7999999999999978E-003    -10.411640986771829
  -3.7000000000000019E-003    -18.788374721486946
  -3.5999999999999990E-003    -27.565598384923049
  -3.4999999999999962E-003    -36.750637705481594
  -3.4000000000000002E-003    -46.350020051575058
  -3.2999999999999974E-003    -56.370507778647820
  -3.2000000000000015E-003    -66.818569592752098
  -3.0999999999999986E-003    -77.700684157917081
  -2.9999999999999957E-003    -89.022633895217027
  -2.8999999999999998E-003    -100.79155954934259
  -2.7999999999999969E-003    -113.01244032632394
  -2.7000000000000010E-003    -125.69157678912768
  -2.5999999999999981E-003    -138.83413712314905
  -2.5000000000000022E-003    -152.44537068236892
  -2.3999999999999994E-003    -166.53084442417108
  -2.2999999999999965E-003    -181.09540861469873
  -2.2000000000000006E-003    -196.14392191506374
  -2.0999999999999977E-003    -211.68000133225078
  -2.0000000000000018E-003    -227.70818622116349
  -1.8999999999999989E-003    -244.23042529978457
  -1.7999999999999960E-003    -261.25008113685487
  -1.7000000000000001E-003    -278.76864512146250
  -1.5999999999999973E-003    -296.78810069376425
  -1.5000000000000013E-003    -315.30799223567664
  -1.3999999999999985E-003    -334.32817791532045
  -1.2999999999999956E-003    -353.84785220545291
  -1.1999999999999997E-003    -373.86407092066918
  -1.0999999999999968E-003    -394.37355709501230
  -1.0000000000000009E-003    -415.37412340551560
  -8.9999999999999802E-004    -436.85912310437277
  -8.0000000000000210E-004    -458.82215628260963
  -6.9999999999999923E-004    -481.25676968121979
  -5.9999999999999637E-004    -504.15443297623079
  -5.0000000000000044E-004    -527.50578736481293
  -3.9999999999999758E-004    -551.30232186495004
  -3.0000000000000165E-004    -575.53134550874756
  -1.9999999999999879E-004    -600.18192744183398
  -9.9999999999995925E-005    -625.24062634653160
   0.0000000000000000         -650.69285478662687
   1.0000000000000286E-004    -676.52487948182875
   1.9999999999999879E-004    -702.71996593224276
   3.0000000000000165E-004    -729.26183519233098
   4.0000000000000452E-004    -756.13270952645746
   5.0000000000000044E-004    -783.31502649450726
   6.0000000000000331E-004    -810.78761790120291
   6.9999999999999923E-004    -838.53015400373602
   8.0000000000000210E-004    -866.52359304641732
   8.9999999999999802E-004    -894.74344934683506
   1.0000000000000009E-003    -923.16658607993179
   1.1000000000000038E-003    -951.76923012931434
   1.1999999999999997E-003    -980.52427308556912
   1.3000000000000025E-003    -1009.4069741132123
   1.3999999999999985E-003    -1038.3874159776801
   1.5000000000000013E-003    -1067.4377978572850
   1.6000000000000042E-003    -1096.5270966947810
   1.7000000000000001E-003    -1125.6244626182124
   1.8000000000000030E-003    -1154.6958278908194
   1.8999999999999989E-003    -1183.7076209436016
   2.0000000000000018E-003    -1212.6256682327798
   2.1000000000000046E-003    -1241.4117415429182
   2.2000000000000006E-003    -1270.0293566825383
   2.3000000000000034E-003    -1298.4381867783982
   2.3999999999999994E-003    -1326.5998115502682
   2.5000000000000022E-003    -1354.4696365701284
   2.5999999999999981E-003    -1382.0074649960482
   2.7000000000000010E-003    -1409.1686791259849
   2.8000000000000039E-003    -1435.9099906774763
   2.8999999999999998E-003    -1462.1845039342654
   3.0000000000000027E-003    -1487.9466151361657
   3.0999999999999986E-003    -1513.1478449332876
   3.2000000000000015E-003    -1537.7416538918701
   3.3000000000000043E-003    -1561.6802196278718
   3.4000000000000002E-003    -1584.9134420371154
   3.5000000000000031E-003    -1607.3908585314487
   3.5999999999999990E-003    -1629.0634721880624
   3.7000000000000019E-003    -1649.8791517012808
   3.7999999999999978E-003    -1669.7895815764389
   3.9000000000000007E-003    -1688.7394420709311
   4.0000000000000036E-003    -1706.6804761507794
   4.0999999999999995E-003    -1723.5608082070976
   4.2000000000000023E-003    -1739.3279067283827
   4.2999999999999983E-003    -1753.9291351022609
   4.4000000000000011E-003    -1767.3136411510854
   4.5000000000000040E-003    -1779.4274140258942
   4.5999999999999999E-003    -1790.2194108620947
   4.7000000000000028E-003    -1799.6398438626225
   4.7999999999999987E-003    -1807.6326021643363
   4.9000000000000016E-003    -1814.1503494408453
   5.0000000000000044E-003    -1819.1379538497076
   5.1000000000000004E-003    -1822.5446049334341
   5.2000000000000032E-003    -1824.3244506514416
   5.2999999999999992E-003    -1824.4245183633557
   5.4000000000000020E-003    -1822.7961913559775
   5.4999999999999979E-003    -1819.3870412283859
   5.6000000000000008E-003    -1814.1526384248850
   5.7000000000000037E-003    -1807.0462960002505
   5.7999999999999996E-003    -1798.0229374660303
   5.9000000000000025E-003    -1787.0339809962593
   5.9999999999999984E-003    -1774.0375950282366
   6.1000000000000013E-003    -1758.9915207318418
   6.2000000000000041E-003    -1741.8515412773202
   6.3000000000000000E-003    -1722.5849752035365
   6.4000000000000029E-003    -1701.1507457069915
   6.4999999999999988E-003    -1677.5110734001523
   6.6000000000000017E-003    -1651.6380867419439
   6.7000000000000046E-003    -1623.4940216361540
   6.8000000000000005E-003    -1593.0508415966478
   6.9000000000000034E-003    -1560.2866105263886
   6.9999999999999993E-003    -1525.1710255552046
   7.1000000000000021E-003    -1487.6826529586497
   7.1999999999999981E-003    -1447.8014163455425
   7.3000000000000009E-003    -1405.5076117545136
   7.4000000000000038E-003    -1360.7877858402085
   7.4999999999999997E-003    -1313.6246682798680
   7.6000000000000026E-003    -1264.0142355713019
   7.6999999999999985E-003    -1211.9466365035489
   7.8000000000000014E-003    -1157.4185621525996
   7.9000000000000042E-003    -1100.4280803298373
   8.0000000000000002E-003    -1040.9818300187956
   8.1000000000000030E-003    -979.07855094884235
   8.1999999999999990E-003    -914.72994002439805
   8.3000000000000018E-003    -847.94602344836949
   8.4000000000000047E-003    -778.73789089384400
   8.5000000000000006E-003    -707.12413553957754
   8.6000000000000035E-003    -633.12146455520588
   8.6999999999999994E-003    -556.76195544817051
   8.8000000000000023E-003    -478.06980540835730
   8.8999999999999982E-003    -397.07098897574406
   9.0000000000000011E-003    -313.80447880607858
   9.1000000000000039E-003    -228.31012298741553
   9.1999999999999998E-003    -140.62916812815115
   9.3000000000000027E-003    -50.803456473546248
   9.3999999999999986E-003     41.112550229123372
   9.5000000000000015E-003     135.07122270636910
   9.6000000000000044E-003     231.01389287647658
   9.7000000000000003E-003     328.87622678454431
   9.8000000000000032E-003     428.60508522639611
   9.8999999999999991E-003     530.13207879606648
   1.0000000000000002E-002     633.37511721655960
   1.0100000000000005E-002     738.26867704334245
   1.0200000000000001E-002     844.72768015214956
   1.0300000000000004E-002     952.67701751941172
   1.0400000000000000E-002     1062.0239996129167
   1.0500000000000002E-002     1172.6863363686880
   1.0599999999999998E-002     1284.5728731227669
   1.0700000000000001E-002     1397.5890331745456
   1.0800000000000004E-002     1511.6327827603814
   1.0900000000000000E-002     1626.6050876485112
   1.1000000000000003E-002     1742.3980936452851
   1.1099999999999999E-002     1858.9139306406446
   1.1200000000000002E-002     1976.0327917105919
   1.1300000000000004E-002     2093.6494401998202
   1.1400000000000000E-002     2211.6491296573536
   1.1500000000000003E-002     2329.9052004882101
   1.1599999999999999E-002     2448.3065426769676
   1.1700000000000002E-002     2566.7309114307031
   1.1800000000000005E-002     2685.0477998310753
   1.1900000000000001E-002     2803.1386876561232
   1.2000000000000004E-002     2920.8734752743417
   1.2100000000000000E-002     3038.1211464838570
   1.2200000000000003E-002     3154.7491968606623
   1.2299999999999998E-002     3270.6233477828155
   1.2400000000000001E-002     3385.6110193567183
   1.2500000000000004E-002     3499.5801351302957
   1.2600000000000000E-002     3612.3958586861686
   1.2700000000000003E-002     3723.9149474739011
   1.2799999999999999E-002     3834.0007154553496
   1.2900000000000002E-002     3942.5211476567429
   1.3000000000000005E-002     4049.3289977509367
   1.3100000000000001E-002     4154.2858509982598
   1.3200000000000003E-002     4257.2561392776433
   1.3299999999999999E-002     4358.1049240147440
   1.3400000000000002E-002     4456.6899061770800
   1.3500000000000005E-002     4552.8767064619005
   1.3600000000000001E-002     4646.5215947791303
   1.3700000000000004E-002     4737.4974277085312
   1.3800000000000000E-002     4825.6679736257665
   1.3900000000000003E-002     4910.9010239119152
   1.3999999999999999E-002     4993.0720322096795
   1.4100000000000001E-002     5072.0493690439671
   1.4200000000000004E-002     5147.7058846869186
   1.4300000000000000E-002     5219.9162116138386
   1.4400000000000003E-002     5288.5648421455289
   1.4499999999999999E-002     5353.5258302051670
   1.4600000000000002E-002     5414.6935915484428
   1.4700000000000005E-002     5471.9587133141049
   1.4800000000000001E-002     5525.2046617303340
   1.4900000000000004E-002     5574.3216061815929
   1.4999999999999999E-002     5619.2206866078632
   1.5100000000000002E-002     5659.7977073213578
   1.5200000000000005E-002     5695.9587617130910
   1.5300000000000001E-002     5727.6177120500442
   1.5400000000000004E-002     5754.6799049779884
   1.5500000000000000E-002     5777.0719069210163
   1.5600000000000003E-002     5794.7148690924250
   1.5699999999999999E-002     5807.5425115087774
   1.5800000000000002E-002     5815.4790634956535
   1.5900000000000004E-002     5818.4687255034278
   1.6000000000000000E-002     5816.4550121611592
   1.6100000000000003E-002     5809.3869263954593
   1.6199999999999999E-002     5797.2171367977153
   1.6300000000000002E-002     5779.9049023947337
   1.6400000000000005E-002     5757.4149150357043
   1.6500000000000001E-002     5729.7236815885462
   1.6600000000000004E-002     5696.8037219281860
   1.6700000000000000E-002     5658.6388653856720
   1.6800000000000002E-002     5615.2186573132685
   1.6900000000000005E-002     5566.5364727110555
   1.7000000000000001E-002     5512.5978677807589
   1.7100000000000004E-002     5453.4059038531841
   1.7200000000000000E-002     5388.9778419804734
   1.7300000000000003E-002     5319.3358514281563
   1.7399999999999999E-002     5244.5077267588440
   1.7500000000000002E-002     5164.5242756051048
   1.7600000000000005E-002     5079.4219888902480
   1.7700000000000000E-002     4989.2581623243377
   1.7800000000000003E-002     4894.0804828202699
   1.7899999999999999E-002     4793.9471980744238
   1.8000000000000002E-002     4688.9241038445289
   1.8100000000000005E-002     4579.0898360469218
   1.8200000000000001E-002     4464.5195886769179
   1.8300000000000004E-002     4345.2889829074957
   1.8400000000000000E-002     4221.4990704149022
   1.8500000000000003E-002     4093.2433089303377