  -4.0000000000000001E-002     0.0000000000000000
  -3.9899999999999998E-002    -2.8453313271940557E-010
  -3.9800000000000002E-002    -1.5521490189565369E-009
  -3.9699999999999999E-002    -4.8671524300076985E-009
  -3.9600000000000003E-002    -1.1857066677416417E-008
  -3.9500000000000000E-002    -2.4867180834948565E-008
  -3.9399999999999998E-002    -4.7052404101544361E-008
  -3.9300000000000002E-002    -8.2390617184559466E-008
  -3.9199999999999999E-002    -1.3560684135837973E-007
  -3.9100000000000003E-002    -2.1200367925539144E-007
  -3.9000000000000000E-002    -3.1720011810509965E-007
  -3.8900000000000004E-002    -4.5678773751181818E-007
  -3.8800000000000001E-002    -6.3591983171072149E-007
  -3.8699999999999998E-002    -8.5885493708710522E-007
  -3.8600000000000002E-002    -1.1284813918301673E-006
  -3.8500000000000000E-002    -1.4458525229228413E-006
  -3.8400000000000004E-002    -1.8097652565433379E-006
  -3.8300000000000001E-002    -2.2164130918397580E-006
  -3.8199999999999998E-002    -2.6591441159636623E-006
  -3.8100000000000002E-002    -3.1283511049742904E-006
  -3.7999999999999999E-002    -3.6115128495012690E-006
  -3.7900000000000003E-002    -4.0934029147932072E-006
  -3.7800000000000000E-002    -4.5564696268232509E-006
  -3.7699999999999997E-002    -4.9813839668239445E-006
  -3.7600000000000001E-002    -5.3477421828520012E-006
  -3.7499999999999999E-002    -5.6349015834317720E-006
  -3.7400000000000003E-002    -5.8229177658514415E-006
  -3.7300000000000000E-002    -5.8935417777316211E-006
  -3.7200000000000004E-002    -5.8312351160765100E-006
  -3.7100000000000001E-002    -5.6241527340650650E-006
  -3.6999999999999998E-002    -5.2650428903950400E-006
  -3.6900000000000002E-002    -4.7520123401168735E-006
  -3.6799999999999999E-002    -4.0891104592821792E-006
  -3.6700000000000003E-002    -3.2866933894995740E-006
  -3.6600000000000001E-002    -2.3615327290229518E-006
  -3.6499999999999998E-002    -1.3366469948559497E-006
  -3.6400000000000002E-002    -2.4084396402835709E-007
  -3.6299999999999999E-002     8.9201780410425821E-007
  -3.6200000000000003E-002     2.0240399006181921E-006
  -3.6100000000000000E-002     3.1145298341398062E-006
  -3.6000000000000004E-002     4.1214460334501223E-006
  -3.5900000000000001E-002     5.0029809819206559E-006
  -3.5799999999999998E-002     5.7192187636655364E-006
  -3.5700000000000003E-002     6.2338070915857037E-006
  -3.5600000000000000E-002     6.5155531235535642E-006
  -3.5500000000000004E-002     6.5398771661280064E-006
  -3.5400000000000001E-002     6.2900572617708381E-006
  -3.5299999999999998E-002     5.7581878004959793E-006
  -3.5200000000000002E-002     4.9457965344763142E-006
  -3.5099999999999999E-002     3.8640932070743826E-006
  -3.5000000000000003E-002     2.5338076431625152E-006
  -3.4900000000000000E-002     9.8460601072508419E-007
  -3.4799999999999998E-002    -7.4588922468099057E-007
  -3.4700000000000002E-002    -2.6134700692895288E-006
  -3.4599999999999999E-002    -4.5690402317449542E-006
  -3.4500000000000003E-002    -6.5605752295404106E-006
  -3.4400000000000000E-002    -8.5352863658061143E-006
  -3.4299999999999997E-002    -1.0441878683931311E-005
  -3.4200000000000001E-002    -1.2232805569374998E-005
  -3.4099999999999998E-002    -1.3866427698341664E-005
  -3.4000000000000002E-002    -1.5308965716565221E-005
  -3.3900000000000000E-002    -1.6536144148381161E-005
  -3.3799999999999997E-002    -1.7534455934723764E-005
  -3.3700000000000001E-002    -1.8301964632651876E-005
  -3.3599999999999998E-002    -1.8848572610024748E-005
  -3.3500000000000002E-002    -1.9195756959749403E-005
  -3.3399999999999999E-002    -1.9375728990906103E-005
  -3.3300000000000003E-002    -1.9430055366299729E-005
  -3.3200000000000000E-002    -1.9407770652108239E-005
  -3.3099999999999997E-002    -1.9363046702325876E-005
  -3.3000000000000002E-002    -1.9352522461455589E-005
  -3.2899999999999999E-002    -1.9432384051717619E-005
  -3.2800000000000003E-002    -1.9655324719834555E-005
  -3.2700000000000000E-002    -2.0067517964063068E-005
  -3.2600000000000004E-002    -2.0705766361051888E-005
  -3.2500000000000001E-002    -2.1594948778647346E-005
  -3.2399999999999998E-002    -2.2745876731071178E-005
  -3.2300000000000002E-002    -2.4153726373946584E-005
  -3.2199999999999999E-002    -2.5797127928920696E-005
  -3.2100000000000004E-002    -2.7637969687444741E-005
  -3.2000000000000001E-002    -2.9621988187652346E-005
  -3.1899999999999998E-002    -3.1680161784008955E-005
  -3.1800000000000002E-002    -3.3730872557539491E-005
  -3.1699999999999999E-002    -3.5682796556000842E-005
  -3.1600000000000003E-002    -3.7438446032722411E-005
  -3.1500000000000000E-002    -3.8898216092671202E-005
  -3.1399999999999997E-002    -3.9964821243970437E-005
  -3.1300000000000001E-002    -4.0547926169676186E-005
  -3.1199999999999999E-002    -4.0568795418138983E-005
  -3.1100000000000003E-002    -3.9964787115417155E-005
  -3.1000000000000000E-002    -3.8693462115755971E-005
  -3.0900000000000000E-002    -3.6736127762344319E-005
  -3.0800000000000001E-002    -3.4100650964066236E-005
  -3.0699999999999998E-002    -3.0823369484057878E-005
  -3.0600000000000002E-002    -2.6969994089903729E-005
  -3.0499999999999999E-002    -2.2635428583902677E-005
  -3.0400000000000000E-002    -1.7942401177577932E-005
  -3.0300000000000001E-002    -1.3038985077847465E-005
  -3.0200000000000001E-002    -8.0949681587105441E-006
  -3.0100000000000002E-002    -3.2972286485166369E-006
  -2.9999999999999999E-002     1.1557689510669018E-006
  -2.9899999999999999E-002     5.0601589341447983E-006
  -2.9800000000000000E-002     8.2134373272049307E-006
  -2.9700000000000001E-002     1.0421454976494224E-005
  -2.9600000000000001E-002     1.1505400316663992E-005
  -2.9499999999999998E-002     1.1308509674097835E-005
  -2.9400000000000003E-002     9.7023315506113364E-006
  -2.9300000000000000E-002     6.5922257110233179E-006
  -2.9200000000000000E-002     1.9217941184675825E-006
  -2.9100000000000001E-002    -4.3238068379784875E-006
  -2.8999999999999998E-002    -1.2115931560529821E-005
  -2.8900000000000002E-002    -2.1382000755119430E-005
  -2.8799999999999999E-002    -3.2006477862054768E-005
  -2.8700000000000000E-002    -4.3833411715719635E-005
  -2.8600000000000000E-002    -5.6670489160016283E-005
  -2.8500000000000001E-002    -7.0294342388679950E-005
  -2.8400000000000002E-002    -8.4457031078082864E-005
  -2.8299999999999999E-002    -9.8893494554317790E-005
  -2.8200000000000003E-002    -1.1332974679607031E-004
  -2.8100000000000000E-002    -1.2749139016490012E-004
  -2.8000000000000001E-002    -1.4111217205993093E-004
  -2.7900000000000001E-002    -1.5394247379221766E-004
  -2.7799999999999998E-002    -1.6575707365402284E-004
  -2.7700000000000002E-002    -1.7636217999470193E-004
  -2.7600000000000000E-002    -1.8560129917774673E-004
  -2.7500000000000000E-002    -1.9335965506071307E-004
  -2.7400000000000001E-002    -1.9956708849149142E-004
  -2.7299999999999998E-002    -2.0419940229631336E-004
  -2.7200000000000002E-002    -2.0727790802556648E-004
  -2.7099999999999999E-002    -2.0886709249339354E-004
  -2.7000000000000000E-002    -2.0907067599701314E-004
  -2.6900000000000000E-002    -2.0802623725554924E-004
  -2.6800000000000001E-002    -2.0589849341150793E-004
  -2.6700000000000002E-002    -2.0287135462638439E-004
  -2.6599999999999999E-002    -1.9913946391589201E-004
  -2.6500000000000003E-002    -1.9489910274981018E-004
  -2.6400000000000000E-002    -1.9033893224258046E-004
  -2.6300000000000000E-002    -1.8563122285604841E-004
  -2.6200000000000001E-002    -1.8092371282015375E-004
  -2.6099999999999998E-002    -1.7633244819529508E-004
  -2.6000000000000002E-002    -1.7193576509789949E-004
  -2.5899999999999999E-002    -1.6776987470618299E-004
  -2.5800000000000000E-002    -1.6382634906870900E-004
  -2.5700000000000001E-002    -1.6005135174311801E-004
  -2.5599999999999998E-002    -1.5634656522174563E-004
  -2.5500000000000002E-002    -1.5257233520147814E-004
  -2.5399999999999999E-002    -1.4855278517034750E-004
  -2.5300000000000000E-002    -1.4408204616062883E-004
  -2.5200000000000000E-002    -1.3893214693824264E-004
  -2.5100000000000001E-002    -1.3286198143286202E-004
  -2.5000000000000001E-002    -1.2562688987035367E-004
  -2.4899999999999999E-002    -1.1698840558954323E-004
  -2.4800000000000003E-002    -1.0672452904503271E-004
  -2.4700000000000000E-002    -9.4638932234770848E-005
  -2.4600000000000000E-002    -8.0569424178419068E-005
  -2.4500000000000001E-002    -6.4395473056504528E-005
  -2.4399999999999998E-002    -4.6043458717872775E-005
  -2.4299999999999999E-002    -2.5490459663531198E-005
  -2.4199999999999999E-002    -2.7662627730076382E-006
  -2.4100000000000000E-002     2.2047149618938333E-005
  -2.4000000000000000E-002     4.8818725075441534E-005
  -2.3900000000000001E-002     7.7373389589625039E-005
  -2.3800000000000002E-002     1.0749827367799388E-004
  -2.3699999999999999E-002     1.3895173607234853E-004
  -2.3599999999999999E-002     1.7147377586496082E-004
  -2.3500000000000000E-002     2.0479752317504782E-004
  -2.3400000000000001E-002     2.3866139938747224E-004
  -2.3300000000000001E-002     2.7282144011776290E-004
  -2.3199999999999998E-002     3.0706373113202211E-004
  -2.3099999999999999E-002     3.4121588569508321E-004
  -2.3000000000000000E-002     3.7515721601340550E-004
  -2.2900000000000000E-002     4.0882858420263817E-004
  -2.2800000000000001E-002     4.4223828898347036E-004
  -2.2700000000000001E-002     4.7546803496865205E-004
  -2.2599999999999999E-002     5.0867474168351514E-004
  -2.2499999999999999E-002     5.4209021703179776E-004
  -2.2400000000000000E-002     5.7601892096574895E-004
  -2.2300000000000000E-002     6.1083296003018595E-004
  -2.2200000000000001E-002     6.4696374610304325E-004
  -2.2100000000000002E-002     6.8489374438571995E-004
  -2.1999999999999999E-002     7.2514419655363756E-004
  -2.1899999999999999E-002     7.6826201246060722E-004
  -2.1800000000000000E-002     8.1480710611574018E-004
  -2.1700000000000001E-002     8.6533856948964793E-004
  -2.1600000000000001E-002     9.2040158319227458E-004
  -2.1499999999999998E-002     9.8051354041111269E-004
  -2.1399999999999999E-002     1.0461527463549579E-003
  -2.1299999999999999E-002     1.1177493362223010E-003
  -2.1200000000000000E-002     1.1956763978131666E-003
  -2.1100000000000001E-002     1.2802443072230947E-003
  -2.1000000000000001E-002     1.3716988510930018E-003
  -2.0899999999999998E-002     1.4702209855707161E-003
  -2.0799999999999999E-002     1.5759290285533895E-003
  -2.0700000000000000E-002     1.6888852569852558E-003
  -2.0600000000000000E-002     1.8091034744877905E-003
  -2.0500000000000001E-002     1.9365586349642736E-003
  -2.0400000000000001E-002     2.0712005440480163E-003
  -2.0299999999999999E-002     2.2129661709704962E-003
  -2.0199999999999999E-002     2.3617942103226733E-003
  -2.0100000000000000E-002     2.5176402607769936E-003
  -2.0000000000000000E-002     2.6804928645086344E-003
  -1.9900000000000001E-002     2.8503859745187673E-003
  -1.9799999999999998E-002     3.0274096791690032E-003
  -1.9699999999999999E-002     3.2117256658673191E-003
  -1.9599999999999999E-002     3.4035731252189654E-003
  -1.9500000000000000E-002     3.6032747157447951E-003
  -1.9400000000000001E-002     3.8112411960051634E-003
  -1.9300000000000001E-002     4.0279711633639274E-003
  -1.9199999999999998E-002     4.2540485152930858E-003
  -1.9099999999999999E-002     4.4901392126348453E-003
  -1.9000000000000000E-002     4.7369818442071880E-003
  -1.8900000000000000E-002     4.9953770989437695E-003
  -1.8800000000000001E-002     5.2661779687586804E-003
  -1.8700000000000001E-002     5.5502770960157034E-003
  -1.8599999999999998E-002     5.8485899171766258E-003
  -1.8499999999999999E-002     6.1620445284375387E-003
  -1.8400000000000000E-002     6.4915676136535795E-003
  -1.8300000000000000E-002     6.8380667101567514E-003
  -1.8200000000000001E-002     7.2024231558422865E-003
  -1.8100000000000002E-002     7.5854837869501774E-003
  -1.7999999999999999E-002     7.9880532548011855E-003
  -1.7899999999999999E-002     8.4108885032596580E-003
  -1.7800000000000000E-002     8.8546999725101980E-003
  -1.7700000000000000E-002     9.3201528211367384E-003
  -1.7600000000000001E-002     9.8078670471749216E-003
  -1.7499999999999998E-002     1.0318431486848599E-002
  -1.7399999999999999E-002     1.0852414962119387E-002
  -1.7299999999999999E-002     1.1410373858364128E-002
  -1.7200000000000000E-002     1.1992870052186799E-002
  -1.7100000000000001E-002     1.2600481996975107E-002
  -1.7000000000000001E-002     1.3233822747392099E-002
  -1.6899999999999998E-002     1.3893560178087946E-002
  -1.6799999999999999E-002     1.4580430572847834E-002
  -1.6700000000000000E-002     1.5295250125947684E-002
  -1.6600000000000000E-002     1.6038927943457872E-002
  -1.6500000000000001E-002     1.6812476587852641E-002
  -1.6400000000000001E-002     1.7617021041614712E-002
  -1.6299999999999999E-002     1.8453803210355536E-002
  -1.6199999999999999E-002     1.9324181969693245E-002
  -1.6100000000000000E-002     2.0229627920763254E-002
  -1.6000000000000000E-002     2.1171719018993968E-002
  -1.5900000000000001E-002     2.2152138407812022E-002
  -1.5799999999999998E-002     2.3172655491945048E-002
  -1.5699999999999999E-002     2.4235117075804970E-002
  -1.5599999999999999E-002     2.5341430822663637E-002
  -1.5500000000000000E-002     2.6493542858912165E-002
  -1.5400000000000000E-002     2.7693433214429450E-002
  -1.5300000000000001E-002     2.8943094709709856E-002
  -1.5199999999999998E-002     3.0244506794515888E-002
  -1.5099999999999999E-002     3.1599626163405087E-002
  -1.4999999999999999E-002     3.3010380405728935E-002
  -1.4900000000000000E-002     3.4478655234228842E-002
  -1.4800000000000001E-002     3.6006284325854628E-002
  -1.4700000000000001E-002     3.7595042915882025E-002
  -1.4599999999999998E-002     3.9246651854006512E-002
  -1.4499999999999999E-002     4.0962782443976026E-002
  -1.4400000000000000E-002     4.2745058392780207E-002
  -1.4300000000000000E-002     4.4595062307325191E-002
  -1.4200000000000001E-002     4.6514358853113336E-002
  -1.4099999999999998E-002     4.8504505513775498E-002
  -1.3999999999999999E-002     5.0567058295663408E-002
  -1.3899999999999999E-002     5.2703594393219699E-002
  -1.3800000000000000E-002     5.4915744069841718E-002
  -1.3700000000000000E-002     5.7205186748061854E-002
  -1.3600000000000001E-002     5.9573667237019762E-002
  -1.3499999999999998E-002     6.2023018391313134E-002
  -1.3399999999999999E-002     6.4555188913953399E-002
  -1.3299999999999999E-002     6.7172232337677343E-002
  -1.3200000000000000E-002     6.9876303697160191E-002
  -1.3100000000000001E-002     7.2669672671742652E-002
  -1.3000000000000001E-002     7.5554717242976743E-002
  -1.2899999999999998E-002     7.8533917850009918E-002
  -1.2799999999999999E-002     8.1609852122578569E-002
  -1.2699999999999999E-002     8.4785171070354645E-002
  -1.2600000000000000E-002     8.8062582904559331E-002
  -1.2500000000000001E-002     9.1444843357601446E-002
  -1.2399999999999998E-002     9.4934730519098259E-002
  -1.2299999999999998E-002     9.8535004019040737E-002
  -1.2199999999999999E-002    0.10224839471933700
  -1.2100000000000000E-002    0.10607759174786477
  -1.2000000000000000E-002    0.11002519417326032
  -1.1900000000000001E-002    0.11409369912282574
  -1.1799999999999998E-002    0.11828550036259300
  -1.1699999999999999E-002    0.12260283372164787
  -1.1599999999999999E-002    0.12704781197254769
  -1.1500000000000000E-002    0.13162238838300117
  -1.1400000000000000E-002    0.13632832804470094
  -1.1300000000000001E-002    0.14116725017951320
  -1.1199999999999998E-002    0.14614062022395738
  -1.1099999999999999E-002    0.15124972011812907
  -1.0999999999999999E-002    0.15649568795144914
  -1.0900000000000000E-002    0.16187952925411339
  -1.0800000000000001E-002    0.16740212812232647
  -1.0699999999999998E-002    0.17306424732801676
  -1.0599999999999998E-002    0.17886653638651942
  -1.0499999999999999E-002    0.18480955560542331
  -1.0400000000000000E-002    0.19089377776453156
  -1.0300000000000000E-002    0.19711963227458890
  -1.0200000000000001E-002    0.20348746763702599
  -1.0099999999999998E-002    0.20999755243740087
  -9.9999999999999985E-003    0.21665009953774578
  -9.8999999999999991E-003    0.22344526429360340
  -9.7999999999999997E-003    0.23038310000473072
  -9.7000000000000003E-003    0.23746356598181328
  -9.6000000000000009E-003    0.24468649819941879
  -9.4999999999999980E-003    0.25205159185256537
  -9.3999999999999986E-003    0.25955837399995246
  -9.2999999999999992E-003    0.26720614404678694
  -9.1999999999999998E-003    0.27499396488738803
  -9.1000000000000004E-003    0.28292063996558231
  -9.0000000000000011E-003    0.29098466204691603
  -8.8999999999999982E-003    0.29918417027739269
  -8.7999999999999988E-003    0.30751694702123622
  -8.6999999999999994E-003    0.31598034714274570
  -8.5999999999999965E-003    0.32457124945226273
  -8.5000000000000006E-003    0.33328607165839885
  -8.3999999999999977E-003    0.34212071768078861
  -8.3000000000000018E-003    0.35107058806927005
  -8.1999999999999990E-003    0.36013054337374789
  -8.0999999999999961E-003    0.36929485853938926
  -8.0000000000000002E-003    0.37855726291247771
  -7.8999999999999973E-003    0.38791091209351919
  -7.8000000000000014E-003    0.39734839058041033
  -7.6999999999999985E-003    0.40686173733100695
  -7.6000000000000026E-003    0.41644241360245526
  -7.4999999999999997E-003    0.42608128598169792
  -7.3999999999999969E-003    0.43576869723687550
  -7.3000000000000009E-003    0.44549440362719606
  -7.1999999999999981E-003    0.45524760076080861
  -7.1000000000000021E-003    0.46501696856729879
  -6.9999999999999993E-003    0.47479062159387919
  -6.8999999999999964E-003    0.48455614456839446
  -6.8000000000000005E-003    0.49430054459403205
  -6.6999999999999976E-003    0.50401022037860066
  -6.6000000000000017E-003    0.51367098803766209
  -6.4999999999999988E-003    0.52326807347785631
  -6.3999999999999960E-003    0.53278609337219707
  -6.3000000000000000E-003    0.54220896815428676
  -6.1999999999999972E-003    0.55151996775397771
  -6.1000000000000013E-003    0.56070165017952067
  -5.9999999999999984E-003    0.56973583575537923
  -5.9000000000000025E-003    0.57860353498732964
  -5.7999999999999996E-003    0.58728493139903160
  -5.6999999999999967E-003    0.59575933286458027
  -5.6000000000000008E-003    0.60400514975132169
  -5.4999999999999979E-003    0.61199995537921092
  -5.4000000000000020E-003    0.61972039496563158
  -5.2999999999999992E-003    0.62714209168552848
  -5.1999999999999963E-003    0.63423971801851720
  -5.1000000000000004E-003    0.64098699793142866
  -4.9999999999999975E-003    0.64735665183389723
  -4.9000000000000016E-003    0.65332037500598861
  -4.7999999999999987E-003    0.65884890001481433
  -4.6999999999999958E-003    0.66391199758426300
  -4.5999999999999999E-003    0.66847829025336458
  -4.4999999999999971E-003    0.67251558901041597
  -4.4000000000000011E-003    0.67599084375390017
  -4.2999999999999983E-003    0.67887000329235514
  -4.2000000000000023E-003    0.68111812694148488
  -4.0999999999999995E-003    0.68269944221292311
  -3.9999999999999966E-003    0.68357734432012007
  -3.9000000000000007E-003    0.68371436462318935
  -3.7999999999999978E-003    0.68307233106849008
  -3.7000000000000019E-003    0.68161232346488632
  -3.5999999999999990E-003    0.67929462341588587
  -3.4999999999999962E-003    0.67607884007756858
  -3.4000000000000002E-003    0.67192382236255621
  -3.2999999999999974E-003    0.66678779252441633
  -3.2000000000000015E-003    0.66062834738065024
  -3.0999999999999986E-003    0.65340234208751968
  -2.9999999999999957E-003    0.64506616321002674
  -2.8999999999999998E-003    0.63557545630997436
  -2.7999999999999969E-003    0.62488521617626613
  -2.7000000000000010E-003    0.61295001148459516
  -2.5999999999999981E-003    0.59972372996245848
  -2.5000000000000022E-003    0.58515973344987393
  -2.3999999999999994E-003    0.56921086025007162
  -2.2999999999999965E-003    0.55182951656989121
  -2.2000000000000006E-003    0.53296765235703869
  -2.0999999999999977E-003    0.51257648542686862
  -2.0000000000000018E-003    0.49060705055446852
  -1.8999999999999989E-003    0.46701012454356849
  -1.7999999999999960E-003    0.44173609620643350
  -1.7000000000000001E-003    0.41473519047921015
  -1.5999999999999973E-003    0.38595734315745278
  -1.5000000000000013E-003    0.35535243854836962
  -1.3999999999999985E-003    0.32287057809270803
  -1.2999999999999956E-003    0.28846178326225280
  -1.1999999999999997E-003    0.25207617332119475
  -1.0999999999999968E-003    0.21366432034667177
  -1.0000000000000009E-003    0.17317690157955495
  -8.9999999999999802E-004    0.13056520239883584
  -8.0000000000000210E-004     8.5781235355627761E-002
  -6.9999999999999923E-004     3.8777315291016246E-002
  -5.9999999999999637E-004    -1.0493258349648871E-002
  -5.0000000000000044E-004    -6.2076213919577738E-002
  -3.9999999999999758E-004   -0.11601651303825555
  -3.0000000000000165E-004   -0.17235816222774214
  -1.9999999999999879E-004   -0.23114380343170060
  -9.9999999999995925E-005   -0.29241487630107155
   0.0000000000000000        -0.35621153536258943
   1.0000000000000286E-004   -0.42257241218530828
   1.9999999999999879E-004   -0.49153455390538303
   3.0000000000000165E-004   -0.56313353203271843
   4.0000000000000452E-004   -0.63740319995704209
   5.0000000000000044E-004   -0.71437552205279542
   6.0000000000000331E-004   -0.79408051754047526
   6.9999999999999923E-004   -0.87654632930574938
   8.0000000000000210E-004   -0.96179902911819415
   8.9999999999999802E-004    -1.0498623671952674
   1.0000000000000009E-003    -1.1407578212589859
   1.1000000000000038E-003    -1.2345046150333490
   1.1999999999999997E-003    -1.3311193255883951
   1.3000000000000025E-003    -1.4306159777220913
   1.3999999999999985E-003    -1.5330056608890379
   1.5000000000000013E-003    -1.6382967202779284
   1.6000000000000042E-003    -1.7464948686854602
   1.7000000000000001E-003    -1.8576022699433277
   1.8000000000000030E-003    -1.9716182088414942
   1.8999999999999989E-003    -2.0885385938741878
   2.0000000000000018E-003    -2.2083553396248998
   2.1000000000000046E-003    -2.3310571611310662
   2.2000000000000006E-003    -2.4566291294606724
   2.3000000000000034E-003    -2.5850526483531211
   2.3999999999999994E-003    -2.7163047594790326
   2.5000000000000022E-003    -2.8503583779758057
   2.5999999999999981E-003    -2.9871823642073956
   2.7000000000000010E-003    -3.1267411806950234
   2.8000000000000039E-003    -3.2689950357169995
   2.8999999999999998E-003    -3.4138999296323389
   3.0000000000000027E-003    -3.5614067858928289
   3.0999999999999986E-003    -3.7114617700329515
   3.2000000000000015E-003    -3.8640063255284396
   3.3000000000000043E-003    -4.0189773504694566
   3.4000000000000002E-003    -4.1763070420094035
   3.5000000000000031E-003    -4.3359221691970635
   3.5999999999999990E-003    -4.4977449401478378
   3.7000000000000019E-003    -4.6616922571358632
   3.7999999999999978E-003    -4.8276756410812869
   3.9000000000000007E-003    -4.9956020512338482
   4.0000000000000036E-003    -5.1653729076940786
   4.0999999999999995E-003    -5.3368847917058488
   4.2000000000000023E-003    -5.5100291638543109
   4.2999999999999983E-003    -5.6846922333244283
   4.4000000000000011E-003    -5.8607547336740620
   4.5000000000000040E-003    -6.0380920074078803
   4.5999999999999999E-003    -6.2165745760093367
   4.7000000000000028E-003    -6.3960676146306064
   4.7999999999999987E-003    -6.5764312742974180
   4.9000000000000016E-003    -6.7575204177259192
   5.0000000000000044E-003    -6.9391848437169710
   5.1000000000000004E-003    -7.1212688609089732
   5.2000000000000032E-003    -7.3036123151903833
   5.2999999999999992E-003    -7.4860494293699507
   5.4000000000000020E-003    -7.6684101383855161
   5.4999999999999979E-003    -7.8505188781281152
   5.6000000000000008E-003    -8.0321955774399427
   5.7000000000000037E-003    -8.2132558061889238
   5.7999999999999996E-003    -8.3935097242417633
   5.9000000000000025E-003    -8.5727625636552780
   5.9999999999999984E-003    -8.7508158400855987
   6.1000000000000013E-003    -8.9274669831604800
   6.2000000000000041E-003    -9.1025086358035807
   6.3000000000000000E-003    -9.2757299290571655
   6.4000000000000029E-003    -9.4469168395062049
   6.4999999999999988E-003    -9.6158503601384115
   6.6000000000000017E-003    -9.7823077270386847
   6.7000000000000046E-003    -9.9460642865644910
   6.8000000000000005E-003    -10.106891762774016
   6.9000000000000034E-003    -10.264558203861640
   6.9999999999999993E-003    -10.418830801699292
   7.1000000000000021E-003    -10.569473633772516
   7.1999999999999981E-003    -10.716248283128969
   7.3000000000000009E-003    -10.858914409238048
   7.4000000000000038E-003    -10.997229567474889
   7.4999999999999997E-003    -11.130950240881702
   7.6000000000000026E-003    -11.259832502622871
   7.6999999999999985E-003    -11.383630761077615
   7.8000000000000014E-003    -11.502099015901432
   7.9000000000000042E-003    -11.614991414699107
   8.0000000000000002E-003    -11.722061966661506
   8.1000000000000030E-003    -11.823064875019380
   8.1999999999999990E-003    -11.917754744745512
   8.3000000000000018E-003    -12.005888135754503
   8.4000000000000047E-003    -12.087222025323886
   8.5000000000000006E-003    -12.161514524926400
   8.6000000000000035E-003    -12.228526803137948
   8.6999999999999994E-003    -12.288021395297594
   8.8000000000000023E-003    -12.339763154158007
   8.8999999999999982E-003    -12.383519939290004
   9.0000000000000011E-003    -12.419063617794635
   9.1000000000000039E-003    -12.446169492644541
   9.1999999999999998E-003    -12.464616183358066
   9.3000000000000027E-003    -12.474187436204216
   9.3999999999999986E-003    -12.474671556281232
   9.5000000000000015E-003    -12.465862170959443
   9.6000000000000044E-003    -12.447557940125998
   9.7000000000000003E-003    -12.419563341749738
   9.8000000000000032E-003    -12.381689019196216
   9.8999999999999991E-003    -12.333752126258403
   1.0000000000000002E-002    -12.275576659150623
   1.0100000000000005E-002    -12.206993785036012
   1.0200000000000001E-002    -12.127843605285936
   1.0300000000000004E-002    -12.037973587922460
   1.0400000000000000E-002    -11.937238707336991
   1.0500000000000002E-002    -11.825502930724706
   1.0599999999999998E-002    -11.702639718776350
   1.0700000000000001E-002    -11.568531872446146
   1.0800000000000004E-002    -11.423070912555183
   1.0900000000000000E-002    -11.266158942076405
   1.1000000000000003E-002    -11.097708706410282
   1.1099999999999999E-002    -10.917643094597150
   1.1200000000000002E-002    -10.725895777020547
   1.1300000000000004E-002    -10.522411845472284
   1.1400000000000000E-002    -10.307147093930311
   1.1500000000000003E-002    -10.080069310426669
   1.1599999999999999E-002    -9.8411588509023868
   1.1700000000000002E-002    -9.5904069044337330
   1.1800000000000005E-002    -9.3278180691222943
   1.1900000000000001E-002    -9.0534093099083286
   1.2000000000000004E-002    -8.7672090031645755
   1.2100000000000000E-002    -8.4692594870171760
   1.2200000000000003E-002    -8.1596160538830169
   1.2299999999999998E-002    -7.8383471805265099
   1.2400000000000001E-002    -7.5055353019725057
   1.2500000000000004E-002    -7.1612757495235808
   1.2600000000000000E-002    -6.8056771257129132
   1.2700000000000003E-002    -6.4388616967559535
   1.2799999999999999E-002    -6.0609660089890536
   1.2900000000000002E-002    -5.6721397529040214
   1.3000000000000005E-002    -5.2725471944074549
   1.3100000000000001E-002    -4.8623666844520592
   1.3200000000000003E-002    -4.4417896898010572
   1.3299999999999999E-002    -4.0110217539646271
   1.3400000000000002E-002    -3.5702819608715650
   1.3500000000000005E-002    -3.1198037771872382
   1.3600000000000001E-002    -2.6598341958751632
   1.3700000000000004E-002    -2.1906331358976008
   1.3800000000000000E-002    -1.7124746533352102
   1.3900000000000003E-002    -1.2256460637517730
   1.3999999999999999E-002   -0.73044735373269454
   1.4100000000000001E-002   -0.22719117696430802
   1.4200000000000004E-002    0.28379686820017636
   1.4300000000000000E-002    0.80217802437722163
   1.4400000000000003E-002     1.3276021288841608
   1.4499999999999999E-002     1.8597062661514805
   1.4600000000000002E-002     2.3981170604990059
   1.4700000000000005E-002     2.9424496657927985
   1.4800000000000001E-002     3.4923077725407374
   1.4900000000000004E-002     4.0472838701344749
   1.4999999999999999E-002     4.6069605386197736
   1.5100000000000002E-002     5.1709110753319951
   1.5200000000000005E-002     5.7386988428895584
   1.5300000000000001E-002     6.3098779022618050
   1.5400000000000004E-002     6.8839929921774736
   1.5500000000000000E-002     7.4605806169665403
   1.5600000000000003E-002     8.0391697350414439
   1.5699999999999999E-002     8.6192826324380931
   1.5800000000000002E-002     9.2004338292494126
   1.5900000000000004E-002     9.7821312961640494
   1.6000000000000000E-002     10.363876966808878
   1.6100000000000003E-002     10.945168649315317
   1.6199999999999999E-002     11.525499255127944
   1.6300000000000002E-002     12.104355370105869
   1.6400000000000005E-002     12.681220852412466
   1.6500000000000001E-002     13.255577712346042
   1.6600000000000004E-002     13.826903865139423
   1.6700000000000000E-002     14.394675467141456
   1.6800000000000002E-002     14.958367840079113
   1.6900000000000005E-002     15.517454955492248
   1.7000000000000001E-002     16.071411197931113