  -4.0000000000000001E-002     0.0000000000000000
  -3.9899999999999998E-002     0.0000000000000000
  -3.9800000000000002E-002     0.0000000000000000
  -3.9699999999999999E-002    -1.7233284073636058E-015
  -3.9600000000000003E-002    -1.5246052422660811E-014
  -3.9500000000000000E-002    -7.2830640305728069E-014
  -3.9399999999999998E-002    -2.5072144001887274E-013
  -3.9300000000000002E-002    -6.9761475120203743E-013
  -3.9199999999999999E-002    -1.6661853692243046E-012
  -3.9100000000000003E-002    -3.5417006998260846E-012
  -3.9000000000000000E-002    -6.8596839732394418E-012
  -3.8900000000000004E-002    -1.2303091623695215E-011
  -3.8800000000000001E-002    -2.0668842506246456E-011
  -3.8699999999999998E-002    -3.2793963932573876E-011
  -3.8600000000000002E-002    -4.9433401381895869E-011
  -3.8500000000000000E-002    -7.1084442546046434E-011
  -3.8400000000000004E-002    -9.7757142441033547E-011
  -3.8300000000000001E-002    -1.2869551332071774E-010
  -3.8199999999999998E-002    -1.6206055342003922E-010
  -3.8100000000000002E-002    -1.9459295943068726E-010
  -3.7999999999999999E-002    -2.2128034526624909E-010
  -3.7900000000000003E-002    -2.3505979078674457E-010
  -3.7800000000000000E-002    -2.2659191327209672E-010
  -3.7699999999999997E-002    -1.8414647387775542E-010
  -3.7600000000000001E-002    -9.3640096327250127E-011
  -3.7499999999999999E-002     6.1133967799684763E-011
  -3.7400000000000003E-002     2.9804916594956004E-010
  -3.7300000000000000E-002     6.3593459720142301E-010
  -3.7200000000000004E-002     1.0935927989605725E-009
  -3.7100000000000001E-002     1.6885452215594031E-009
  -3.6999999999999998E-002     2.4355185763045497E-009
  -3.6900000000000002E-002     3.3447074095377024E-009
  -3.6799999999999999E-002     4.4198659645807469E-009
  -3.6700000000000003E-002     5.6563043992177177E-009
  -3.6600000000000001E-002     7.0388833196156967E-009
  -3.6499999999999998E-002     8.5401186700110753E-009
  -3.6400000000000002E-002     1.0118525561338090E-008
  -3.6299999999999999E-002     1.1717336185499482E-008
  -3.6200000000000003E-002     1.3263731677315337E-008
  -3.6100000000000000E-002     1.4668724509452838E-008
  -3.6000000000000004E-002     1.5827823382564963E-008
  -3.5900000000000001E-002     1.6622588324016490E-008
  -3.5799999999999998E-002     1.6923158049019510E-008
  -3.5700000000000003E-002     1.6591794585881904E-008
  -3.5600000000000000E-002     1.5487462009489591E-008
  -3.5500000000000004E-002     1.3471397632989038E-008
  -3.5400000000000001E-002     1.0413578728986536E-008
  -3.5299999999999998E-002     6.1999456604751499E-009
  -3.5200000000000002E-002     7.4018114107903016E-010
  -3.5099999999999999E-002    -6.0242046124331737E-009
  -3.5000000000000003E-002    -1.4111789176424472E-008
  -3.4900000000000000E-002    -2.3493479317721646E-008
  -3.4799999999999998E-002    -3.4085472719163737E-008
  -3.4700000000000002E-002    -4.5743298862733713E-008
  -3.4599999999999999E-002    -5.8257360765558171E-008
  -3.4500000000000003E-002    -7.1350311602550549E-008
  -3.4400000000000000E-002    -8.4676675301733766E-008
  -3.4299999999999997E-002    -9.7824983486549577E-008
  -3.4200000000000001E-002    -1.1032264997085434E-007
  -3.4099999999999998E-002    -1.2164376548721210E-007
  -3.4000000000000002E-002    -1.3121988371932331E-007
  -3.3900000000000000E-002    -1.3845372972361514E-007
  -3.3799999999999997E-002    -1.4273566665086543E-007
  -3.3700000000000001E-002    -1.4346268108586431E-007
  -3.3599999999999998E-002    -1.4005944856773935E-007
  -3.3500000000000002E-002    -1.3200098053472242E-007
  -3.3399999999999999E-002    -1.1883618737488094E-007
  -3.3300000000000003E-002    -1.0021167185469351E-007
  -3.3200000000000000E-002    -7.5895008796140569E-008
  -3.3099999999999997E-002    -4.5796525161607547E-008
  -3.3000000000000002E-002    -9.9887747159249112E-009
  -3.2899999999999999E-002     3.1277096065241985E-008
  -3.2800000000000003E-002     7.7559060869953095E-008
  -3.2700000000000000E-002     1.2821669553701703E-007
  -3.2600000000000004E-002     1.8240915639481710E-007
  -3.2500000000000001E-002     2.3909910341716319E-007
  -3.2399999999999998E-002     2.9706310207327626E-007
  -3.2300000000000002E-002     3.5490859501527151E-007
  -3.2199999999999999E-002     4.1109749535372973E-007
  -3.2100000000000004E-002     4.6397617350705085E-007
  -3.2000000000000001E-002     5.1181141761138937E-007
  -3.1899999999999998E-002     5.5283168566650966E-007
  -3.1800000000000002E-002     5.8527289513459731E-007
  -3.1699999999999999E-002     6.0742752213782168E-007
  -3.1600000000000003E-002     6.1769590725136455E-007
  -3.1500000000000000E-002     6.1463829720620320E-007
  -3.1399999999999997E-002     5.9702633791801187E-007
  -3.1300000000000001E-002     5.6389222373115775E-007
  -3.1199999999999999E-002     5.1457396787445736E-007
  -3.1100000000000003E-002     4.4875567607340122E-007
  -3.1000000000000000E-002     3.6650073388473895E-007
  -3.0900000000000000E-002     2.6827708566591049E-007
  -3.0800000000000001E-002     1.5497336860946075E-007
  -3.0699999999999998E-002     2.7904773994082507E-008
  -3.0600000000000002E-002    -1.1119164967811020E-007
  -3.0499999999999999E-002    -2.6017300986027227E-007
  -3.0400000000000000E-002    -4.1651776083289152E-007
  -3.0300000000000001E-002    -5.7736374495232397E-007
  -3.0200000000000001E-002    -7.3955705582603505E-007
  -3.0100000000000002E-002    -8.9970973441449175E-007
  -2.9999999999999999E-002    -1.0542664767514747E-006
  -2.9899999999999999E-002    -1.1995779919907160E-006
  -2.9800000000000000E-002    -1.3319796245678648E-006
  -2.9700000000000001E-002    -1.4478738112562774E-006
  -2.9600000000000001E-002    -1.5438133598510229E-006
  -2.9499999999999998E-002    -1.6165843738559643E-006
  -2.9400000000000003E-002    -1.6632873505594958E-006
  -2.9300000000000000E-002    -1.6814125254449364E-006
  -2.9200000000000000E-002    -1.6689092499779015E-006
  -2.9100000000000001E-002    -1.6242472467219970E-006
  -2.8999999999999998E-002    -1.5464675153461891E-006
  -2.8900000000000002E-002    -1.4352226817238598E-006
  -2.8799999999999999E-002    -1.2908045978045717E-006
  -2.8700000000000000E-002    -1.1141591178547419E-006
  -2.8600000000000000E-002    -9.0688819333587524E-007
  -2.8500000000000001E-002    -6.7123782959182682E-007
  -2.8400000000000002E-002    -4.1007332470705917E-007
  -2.8299999999999999E-002    -1.2684197309270188E-007
  -2.8200000000000003E-002     1.7447618974373390E-007
  -2.8100000000000000E-002     4.8942827943768195E-007
  -2.8000000000000001E-002     8.1315697590701008E-007
  -2.7900000000000001E-002     1.1404780714049905E-006
  -2.7799999999999998E-002     1.4659636120177326E-006
  -2.7700000000000002E-002     1.7840299333183470E-006
  -2.7600000000000000E-002     2.0890283698626824E-006
  -2.7500000000000000E-002     2.3753377907065572E-006
  -2.7400000000000001E-002     2.6374563745626790E-006
  -2.7299999999999998E-002     2.8700921328198005E-006
  -2.7200000000000002E-002     3.0682506262092745E-006
  -2.7099999999999999E-002     3.2273182409115901E-006
  -2.7000000000000000E-002     3.3431400487653483E-006
  -2.6900000000000000E-002     3.4120922574606420E-006
  -2.6800000000000001E-002     3.4311468739972408E-006
  -2.6700000000000002E-002     3.3979299442448178E-006
  -2.6599999999999999E-002     3.3107719695063872E-006
  -2.6500000000000003E-002     3.1687497611162394E-006
  -2.6400000000000000E-002     2.9717200679172138E-006
  -2.6300000000000000E-002     2.7203452943703179E-006
  -2.6200000000000001E-002     2.4161095320478204E-006
  -2.6099999999999998E-002     2.0613258888318939E-006
  -2.6000000000000002E-002     1.6591350048863931E-006
  -2.5899999999999999E-002     1.2134939292821225E-006
  -2.5800000000000000E-002     7.2915451262388540E-007
  -2.5700000000000001E-002     2.1163274058021183E-007
  -2.5599999999999998E-002    -3.3283366068571545E-007
  -2.5500000000000002E-002    -8.9733740216086491E-007
  -2.5399999999999999E-002    -1.4743663030831347E-006
  -2.5300000000000000E-002    -2.0558795728589627E-006
  -2.5200000000000000E-002    -2.6333952233301550E-006
  -2.5100000000000001E-002    -3.1980890369516385E-006
  -2.5000000000000001E-002    -3.7409096325173468E-006
  -2.4899999999999999E-002    -4.2526980363452227E-006
  -2.4800000000000003E-002    -4.7243233793675454E-006
  -2.4700000000000000E-002    -5.1468275194587073E-006
  -2.4600000000000000E-002    -5.5115752452699094E-006
  -2.4500000000000001E-002    -5.8104143344441070E-006
  -2.4399999999999998E-002    -6.0358370684408519E-006
  -2.4299999999999999E-002    -6.1811436699185902E-006
  -2.4199999999999999E-002    -6.2406049162754132E-006
  -2.4100000000000000E-002    -6.2096189953728616E-006
  -2.4000000000000000E-002    -6.0848582642080366E-006
  -2.3900000000000001E-002    -5.8644047470589709E-006
  -2.3800000000000002E-002    -5.5478672354486485E-006
  -2.3699999999999999E-002    -5.1364775876138812E-006
  -2.3599999999999999E-002    -4.6331631080098082E-006
  -2.3500000000000000E-002    -4.0425888946983344E-006
  -2.3400000000000001E-002    -3.3711679254303893E-006
  -2.3300000000000001E-002    -2.6270375211998020E-006
  -2.3199999999999998E-002    -1.8199982997699004E-006
  -2.3099999999999999E-002    -9.6141534092689097E-007
  -2.3000000000000000E-002    -6.4078964188547710E-008
  -2.2900000000000000E-002     8.5796941411913549E-007
  -2.2800000000000001E-002     1.7896513188808349E-006
  -2.2700000000000001E-002     2.7150981261091358E-006
  -2.2599999999999999E-002     3.6179257040173707E-006
  -2.2499999999999999E-002     4.4815389218928873E-006
  -2.2400000000000000E-002     5.2894529515684405E-006
  -2.2300000000000000E-002     6.0256287405376898E-006
  -2.2200000000000001E-002     6.6748153510626071E-006
  -2.2100000000000002E-002     7.2228897425844690E-006
  -2.1999999999999999E-002     7.6571879657666254E-006
  -2.1899999999999999E-002     7.9668153138598668E-006
  -2.1800000000000000E-002     8.1429319223076076E-006
  -2.1700000000000001E-002     8.1790048483921303E-006
  -2.1600000000000001E-002     8.0710152605571607E-006
  -2.1499999999999998E-002     7.8176182867199890E-006
  -2.1399999999999999E-002     7.4202476461278409E-006
  -2.1299999999999999E-002     6.8831626995018568E-006
  -2.1200000000000000E-002     6.2134313646617118E-006
  -2.1100000000000001E-002     5.4208489606982732E-006
  -2.1000000000000001E-002     4.5177941314683552E-006
  -2.0899999999999998E-002     3.5190219267053424E-006
  -2.0799999999999999E-002     2.4413957321775167E-006
  -2.0700000000000000E-002     1.3035674308770394E-006
  -2.0600000000000000E-002     1.2560888059574637E-007
  -2.0500000000000001E-002    -1.0713995860755202E-006
  -2.0400000000000001E-002    -2.2658068324307186E-006
  -2.0299999999999999E-002    -3.4358540126120915E-006
  -2.0199999999999999E-002    -4.5601465385941316E-006
  -2.0100000000000000E-002    -5.6181214736657814E-006
  -2.0000000000000000E-002    -6.5905051901867312E-006
  -1.9900000000000001E-002    -7.4597446649110307E-006
  -1.9799999999999998E-002    -8.2104042550379099E-006
  -1.9699999999999999E-002    -8.8295158858616339E-006
  -1.9599999999999999E-002    -9.3068722406015999E-006
  -1.9500000000000000E-002    -9.6352598055274844E-006
  -1.9400000000000001E-002    -9.8106185873509176E-006
  -1.9300000000000001E-002    -9.8321264037196108E-006
  -1.9199999999999998E-002    -9.7022115845633461E-006
  -1.9099999999999999E-002    -9.4264822323033524E-006
  -1.9000000000000000E-002    -9.0135739659224738E-006
  -1.8900000000000000E-002    -8.4749313131776223E-006
  -1.8800000000000001E-002    -7.8245180039746177E-006
  -1.8700000000000001E-002    -7.0784618060542811E-006
  -1.8599999999999998E-002    -6.2546441912145705E-006
  -1.8499999999999999E-002    -5.3722524351275654E-006
  -1.8400000000000000E-002    -4.4512902809319738E-006
  -1.8300000000000000E-002    -3.5120737329878511E-006
  -1.8200000000000001E-002    -2.5747176972643008E-006
  -1.8100000000000002E-002    -1.6586224517330417E-006
  -1.7999999999999999E-002    -7.8197548552945509E-007
  -1.7899999999999999E-002     3.8713649093648819E-008
  -1.7800000000000000E-002     7.8903766822070400E-007
  -1.7700000000000000E-002     1.4570719400702981E-006
  -1.7600000000000001E-002     2.0336907947670450E-006
  -1.7499999999999998E-002     2.5128260578759980E-006
  -1.7399999999999999E-002     2.8916491311046560E-006
  -1.7299999999999999E-002     3.1706753207512363E-006
  -1.7200000000000000E-002     3.3537962653392582E-006
  -1.7100000000000001E-002     3.4482353567488959E-006
  -1.7000000000000001E-002     3.4644255413733751E-006
  -1.6899999999999998E-002     3.4158240991692887E-006
  -1.6799999999999999E-002     3.3186567961946249E-006
  -1.6700000000000000E-002     3.1916067394195185E-006
  -1.6600000000000000E-002     3.0554562916041053E-006
  -1.6500000000000001E-002     2.9326835719381132E-006
  -1.6400000000000001E-002     2.8470383471636827E-006
  -1.6299999999999999E-002     2.8231006607462246E-006
  -1.6199999999999999E-002     2.8858220293116757E-006
  -1.6100000000000000E-002     3.0600772180964337E-006
  -1.6000000000000000E-002     3.3702382879908846E-006
  -1.5900000000000001E-002     3.8397635273904437E-006
  -1.5799999999999998E-002     4.4908203933882088E-006
  -1.5699999999999999E-002     5.3439520070583733E-006
  -1.5599999999999999E-002     6.4177914820267349E-006
  -1.5500000000000000E-002     7.7288399736523107E-006
  -1.5400000000000000E-002     9.2912929206020092E-006
  -1.5300000000000001E-002     1.1116920668594354E-005
  -1.5199999999999998E-002     1.3215018410643305E-005
  -1.5099999999999999E-002     1.5592431726881813E-005
  -1.4999999999999999E-002     1.8253608763080286E-005
  -1.4900000000000000E-002     2.1200741030820507E-005
  -1.4800000000000001E-002     2.4433944617491827E-005
  -1.4700000000000001E-002     2.7951476431714898E-005
  -1.4599999999999998E-002     3.1749996164397523E-005
  -1.4499999999999999E-002     3.5824881365734059E-005
  -1.4400000000000000E-002     4.0170557259708284E-005
  -1.4300000000000000E-002     4.4780837708433276E-005
  -1.4200000000000001E-002     4.9649276696800345E-005
  -1.4099999999999998E-002     5.4769559853410136E-005
  -1.3999999999999999E-002     6.0135850379851422E-005
  -1.3899999999999999E-002     6.5743150799629318E-005
  -1.3800000000000000E-002     7.1587651130448757E-005
  -1.3700000000000000E-002     7.7667073512639891E-005
  -1.3600000000000001E-002     8.3980943803411881E-005
  -1.3499999999999998E-002     9.0530882752703579E-005
  -1.3399999999999999E-002     9.7320864928502487E-005
  -1.3299999999999999E-002     1.0435742699256537E-004
  -1.3200000000000000E-002     1.1164982530181887E-004
  -1.3100000000000001E-002     1.1921022733914216E-004
  -1.3000000000000001E-002     1.2705382479055697E-004
  -1.2899999999999998E-002     1.3519890414391531E-004
  -1.2799999999999999E-002     1.4366693288393281E-004
  -1.2699999999999999E-002     1.5248257954387796E-004
  -1.2600000000000000E-002     1.6167369611452316E-004
  -1.2500000000000001E-002     1.7127133467637702E-004
  -1.2399999999999998E-002     1.8130975425643091E-004
  -1.2299999999999998E-002     1.9182626833838550E-004
  -1.2199999999999999E-002     2.0286127073939096E-004
  -1.2100000000000000E-002     2.1445812966855438E-004
  -1.2000000000000000E-002     2.2666309159942861E-004
  -1.1900000000000001E-002     2.3952520307852576E-004
  -1.1799999999999998E-002     2.5309622610075115E-004
  -1.1699999999999999E-002     2.6743059453006302E-004
  -1.1599999999999999E-002     2.8258527556581004E-004
  -1.1500000000000000E-002     2.9861971321542771E-004
  -1.1400000000000000E-002     3.1559575185483642E-004
  -1.1300000000000001E-002     3.3357755920188970E-004
  -1.1199999999999998E-002     3.5263155407267430E-004
  -1.1099999999999999E-002     3.7282642919714173E-004
  -1.0999999999999999E-002     3.9423303614394690E-004
  -1.0900000000000000E-002     4.1692438358758882E-004
  -1.0800000000000001E-002     4.4097568156287539E-004
  -1.0699999999999998E-002     4.6646417019214877E-004
  -1.0599999999999998E-002     4.9346924839758447E-004
  -1.0499999999999999E-002     5.2207246237993821E-004
  -1.0400000000000000E-002     5.5235747389087062E-004
  -1.0300000000000000E-002     5.8441022866785987E-004
  -1.0200000000000001E-002     6.1831893840328615E-004
  -1.0099999999999998E-002     6.5417394754569043E-004
  -9.9999999999999985E-003     6.9206796181656019E-004
  -9.8999999999999991E-003     7.3209603879443880E-004
  -9.7999999999999997E-003     7.7435570253658317E-004
  -9.7000000000000003E-003     8.1894699220543877E-004
  -9.6000000000000009E-003     8.6597247080135256E-004
  -9.4999999999999980E-003     9.1553735162179344E-004
  -9.3999999999999986E-003     9.6774973697662790E-004
  -9.2999999999999992E-003     1.0227205898967631E-003
  -9.1999999999999998E-003     1.0805640116744318E-003
  -9.1000000000000004E-003     1.1413972806361469E-003
  -9.0000000000000011E-003     1.2053407719567243E-003
  -8.8999999999999982E-003     1.2725182647951427E-003
  -8.7999999999999988E-003     1.3430572466232101E-003
  -8.6999999999999994E-003     1.4170891995258857E-003
  -8.5999999999999965E-003     1.4947497849658060E-003
  -8.5000000000000006E-003     1.5761789607270033E-003
  -8.3999999999999977E-003     1.6615211967968644E-003
  -8.3000000000000018E-003     1.7509260631005216E-003
  -8.1999999999999990E-003     1.8445483088053464E-003
  -8.0999999999999961E-003     1.9425486913010985E-003
  -8.0000000000000002E-003     2.0450935064165506E-003
  -7.8999999999999973E-003     2.1523557822253625E-003
  -7.8000000000000014E-003     2.2645153550196378E-003
  -7.6999999999999985E-003     2.3817593653857015E-003
  -7.6000000000000026E-003     2.5042825954990217E-003
  -7.4999999999999997E-003     2.6322884065871650E-003
  -7.3999999999999969E-003     2.7659885921245174E-003
  -7.3000000000000009E-003     2.9056037093389223E-003
  -7.1999999999999981E-003     3.0513648167553413E-003
  -7.1000000000000021E-003     3.2035132664774806E-003
  -6.9999999999999993E-003     3.3623006360133266E-003
  -6.8999999999999964E-003     3.5279892634224753E-003
  -6.8000000000000005E-003     3.7008536019492045E-003
  -6.6999999999999976E-003     3.8811800432349743E-003
  -6.6000000000000017E-003     4.0692660513844394E-003
  -6.4999999999999988E-003     4.2654215766710609E-003
  -6.3999999999999960E-003     4.4699697857109519E-003
  -6.3000000000000000E-003     4.6832457067863247E-003
  -6.1999999999999972E-003     4.9055967547153309E-003
  -6.1000000000000013E-003     5.1373826873292155E-003
  -5.9999999999999984E-003     5.3789758983165212E-003
  -5.9000000000000025E-003     5.6307617054126170E-003
  -5.7999999999999996E-003     5.8931361454600852E-003
  -5.6999999999999967E-003     6.1665073431551032E-003
  -5.6000000000000008E-003     6.4512947199935246E-003
  -5.4999999999999979E-003     6.7479269929210627E-003
  -5.4000000000000020E-003     7.0568438875620934E-003
  -5.2999999999999992E-003     7.3784946429024043E-003
  -5.1999999999999963E-003     7.7133372223603218E-003
  -5.1000000000000004E-003     8.0618383893214032E-003
  -4.9999999999999975E-003     8.4244729523705597E-003
  -4.9000000000000016E-003     8.8017234715827702E-003
  -4.7999999999999987E-003     9.1940780118852528E-003
  -4.6999999999999958E-003     9.6020317857951395E-003
  -4.5999999999999999E-003     1.0026086363018702E-002
  -4.4999999999999971E-003     1.0466748266808108E-002
  -4.4000000000000011E-003     1.0924531439837216E-002
  -4.2999999999999983E-003     1.1399954936582220E-002
  -4.2000000000000023E-003     1.1893541516583681E-002
  -4.0999999999999995E-003     1.2405820370613073E-002
  -3.9999999999999966E-003     1.2937326107822038E-002
  -3.9000000000000007E-003     1.3488599791851227E-002
  -3.7999999999999978E-003     1.4060189657200059E-002
  -3.7000000000000019E-003     1.4652648983834719E-002
  -3.5999999999999990E-003     1.5266542100614448E-002
  -3.4999999999999962E-003     1.5902437883246689E-002
  -3.4000000000000002E-003     1.6560914768080866E-002
  -3.2999999999999974E-003     1.7242560532974599E-002
  -3.2000000000000015E-003     1.7947974097360365E-002
  -3.0999999999999986E-003     1.8677764521045151E-002
  -2.9999999999999957E-003     1.9432553607774149E-002
  -2.8999999999999998E-003     2.0212975018198027E-002
  -2.7999999999999969E-003     2.1019672652814122E-002
  -2.7000000000000010E-003     2.1853305465838496E-002
  -2.5999999999999981E-003     2.2714546397323433E-002
  -2.5000000000000022E-003     2.3604081533395622E-002
  -2.3999999999999994E-003     2.4522609361312061E-002
  -2.2999999999999965E-003     2.5470840848502041E-002
  -2.2000000000000006E-003     2.6449501659589439E-002
  -2.0999999999999977E-003     2.7459332168993267E-002
  -2.0000000000000018E-003     2.8501085453503300E-002
  -1.8999999999999989E-003     2.9575520398157834E-002
  -1.7999999999999960E-003     3.0683409708666148E-002
  -1.7000000000000001E-003     3.1825535282478695E-002
  -1.5999999999999973E-003     3.3002687348710702E-002
  -1.5000000000000013E-003     3.4215661144133595E-002
  -1.3999999999999985E-003     3.5465259900626704E-002
  -1.2999999999999956E-003     3.6752285455385163E-002
  -1.1999999999999997E-003     3.8077538831961549E-002
  -1.0999999999999968E-003     3.9441826718772263E-002
  -1.0000000000000009E-003     4.0845952634902198E-002
  -8.9999999999999802E-004     4.2290713012562729E-002
  -8.0000000000000210E-004     4.3776899816350842E-002
  -6.9999999999999923E-004     4.5305293547770041E-002
  -5.9999999999999637E-004     4.6876666617971949E-002
  -5.0000000000000044E-004     4.8491781254131026E-002
  -3.9999999999999758E-004     5.0151385458925210E-002
  -3.0000000000000165E-004     5.1856209638583659E-002
  -1.9999999999999879E-004     5.3606966100224793E-002
  -9.9999999999995925E-005     5.5404349549733112E-002
   0.0000000000000000          5.7249036027817363E-002
   1.0000000000000286E-004     5.9141680470916919E-002
   1.9999999999999879E-004     6.1082907600158817E-002
   3.0000000000000165E-004     6.3073324382977761E-002
   4.0000000000000452E-004     6.5113521893051932E-002
   5.0000000000000044E-004     6.7204055271873939E-002
   6.0000000000000331E-004     6.9345449116169036E-002
   6.9999999999999923E-004     7.1538210084165443E-002
   8.0000000000000210E-004     7.3782820628023965E-002
   8.9999999999999802E-004     7.6079732789564855E-002
   1.0000000000000009E-003     7.8429369154975434E-002
   1.1000000000000038E-003     8.0832127266809356E-002
   1.1999999999999997E-003     8.3288373002150584E-002
   1.3000000000000025E-003     8.5798439660432449E-002
   1.3999999999999985E-003     8.8362634345107244E-002
   1.5000000000000013E-003     9.0981233683798929E-002
   1.6000000000000042E-003     9.3654481220475566E-002
   1.7000000000000001E-003     9.6382586528511005E-002
   1.8000000000000030E-003     9.9165719602538199E-002
   1.8999999999999989E-003    0.10200402462980110
   2.0000000000000018E-003    0.10489760545276941
   2.1000000000000046E-003    0.10784653064862090
   2.2000000000000006E-003    0.11085082479994968
   2.3000000000000034E-003    0.11391046391308357
   2.3999999999999994E-003    0.11702539242478457
   2.5000000000000022E-003    0.12019550070562868
   2.5999999999999981E-003    0.12342063352673149
   2.7000000000000010E-003    0.12670057488121728
   2.8000000000000039E-003    0.13003506323581671
   2.8999999999999998E-003    0.13342379506335073
   3.0000000000000027E-003    0.13686638685324271
   3.0999999999999986E-003    0.14036239194457872
   3.2000000000000015E-003    0.14391130614569658
   3.3000000000000043E-003    0.14751255045293044
   3.4000000000000002E-003    0.15116546613092677
   3.5000000000000031E-003    0.15486932610286389
   3.5999999999999990E-003    0.15862331992834439
   3.7000000000000019E-003    0.16242657390994808
   3.7999999999999978E-003    0.16627811526417979
   3.9000000000000007E-003    0.17017686116916700
   4.0000000000000036E-003    0.17412164917727119
   4.0999999999999995E-003    0.17811123429864026
   4.2000000000000023E-003    0.18214428207436070
   4.2999999999999983E-003    0.18621932910268862
   4.4000000000000011E-003    0.19033481561665996
   4.5000000000000040E-003    0.19448910109002990
   4.5999999999999999E-003    0.19868044924592076
   4.7000000000000028E-003    0.20290699039903756
   4.7999999999999987E-003    0.20716675140409602
   4.9000000000000016E-003    0.21145765259744287
   5.0000000000000044E-003    0.21577753671198086
   5.1000000000000004E-003    0.22012412985475938
   5.2000000000000032E-003    0.22449502715616132
   5.2999999999999992E-003    0.22888771781621625
   5.4000000000000020E-003    0.23329960722045179
   5.4999999999999979E-003    0.23772800849216502
   5.6000000000000008E-003    0.24217010419546220
   5.7000000000000037E-003    0.24662298382054476
   5.7999999999999996E-003    0.25108360601051100
   5.9000000000000025E-003    0.25554882850377325
   5.9999999999999984E-003    0.26001544209579897
   6.1000000000000013E-003    0.26448013002022713
   6.2000000000000041E-003    0.26893942754087091
   6.3000000000000000E-003    0.27338982301247938
   6.4000000000000029E-003    0.27782769136642804
   6.4999999999999988E-003    0.28224929383948250
   6.6000000000000017E-003    0.28665084002818714
   6.7000000000000046E-003    0.29102843328484379
   6.8000000000000005E-003    0.29537807106825453
   6.9000000000000034E-003    0.29969566735612468
   6.9999999999999993E-003    0.30397704237592738
   7.1000000000000021E-003    0.30821790891912532
   7.1999999999999981E-003    0.31241388439559054
   7.3000000000000009E-003    0.31656056504322599
   7.4000000000000038E-003    0.32065347425661916
   7.4999999999999997E-003    0.32468800986506524
   7.6000000000000026E-003    0.32865947092696557
   7.6999999999999985E-003    0.33256309721580007
   7.8000000000000014E-003    0.33639402307276567
   7.9000000000000042E-003    0.34014733525744340
   8.0000000000000002E-003    0.34381807468135223
   8.1000000000000030E-003    0.34740118729438829
   8.1999999999999990E-003    0.35089156331405585
   8.3000000000000018E-003    0.35428400838936286
   8.4000000000000047E-003    0.35757329041359842
   8.5000000000000006E-003    0.36075409707902450
   8.6000000000000035E-003    0.36382105813998777
   8.6999999999999994E-003    0.36676880876612827
   8.8000000000000023E-003    0.36959188205433879
   8.8999999999999982E-003    0.37228478251147856
   9.0000000000000011E-003    0.37484201689442487
   9.1000000000000039E-003    0.37725803798533364
   9.1999999999999998E-003    0.37952730471301588
   9.3000000000000027E-003    0.38164423110771151
   9.3999999999999986E-003    0.38360322043422324
   9.5000000000000015E-003    0.38539867378364234
   9.6000000000000044E-003    0.38702499241314964
   9.7000000000000003E-003    0.38847658143661423
   9.8000000000000032E-003    0.38974787984148596
   9.8999999999999991E-003    0.39083335050092927
   1.0000000000000002E-002    0.39172744288837225
   1.0100000000000005E-002    0.39242468549124010
   1.0200000000000001E-002    0.39291963351932996
   1.0300000000000004E-002    0.39320682943491980
   1.0400000000000000E-002    0.39328092484163402
   1.0500000000000002E-002    0.39313662980466602
   1.0599999999999998E-002    0.39276869955602889
   1.0700000000000001E-002    0.39217195544644284
   1.0800000000000004E-002    0.39134133335148680
   1.0900000000000000E-002    0.39027184814902932
   1.1000000000000003E-002    0.38895853440918832
   1.1099999999999999E-002    0.38739661883416138
   1.1200000000000002E-002    0.38558145517858422
   1.1300000000000004E-002    0.38350847135393251
   1.1400000000000000E-002    0.38117326622960390
   1.1500000000000003E-002    0.37857158099504484
   1.1599999999999999E-002    0.37569924854790204
   1.1700000000000002E-002    0.37255229789864430
   1.1800000000000005E-002    0.36912690133170223
   1.1900000000000001E-002    0.36541943820858758
   1.2000000000000004E-002    0.36142651497593004
   1.2100000000000000E-002    0.35714483167489941
   1.2200000000000003E-002    0.35257128238048591
   1.2299999999999998E-002    0.34770300355845929
   1.2400000000000001E-002    0.34253733743479242
   1.2500000000000004E-002    0.33707186942798967
   1.2600000000000000E-002    0.33130443766770179
   1.2700000000000003E-002    0.32523309616633650
   1.2799999999999999E-002    0.31885613176617311
   1.2900000000000002E-002    0.31217205632531797
   1.3000000000000005E-002    0.30517972589827230
   1.3100000000000001E-002    0.29787827312757281
   1.3200000000000003E-002    0.29026700582832576
   1.3299999999999999E-002    0.28234553037089244
   1.3400000000000002E-002    0.27411378081145638
   1.3500000000000005E-002    0.26557187696986795
   1.3600000000000001E-002    0.25672028063269814
   1.3700000000000004E-002    0.24755976023596704
   1.3800000000000000E-002    0.23809137964333299
   1.3900000000000003E-002    0.22831647730792046
   1.3999999999999999E-002    0.21823661292888413
   1.4100000000000001E-002    0.20785368045418540
   1.4200000000000004E-002    0.19716988356229628
   1.4300000000000000E-002    0.18618771172999610
   1.4400000000000003E-002    0.17490994257011011
   1.4499999999999999E-002    0.16333961962276999
   1.4600000000000002E-002    0.15148007630888952
   1.4700000000000005E-002    0.13933494906465471
   1.4800000000000001E-002    0.12690816024097482
   1.4900000000000004E-002    0.11420392720681610
   1.4999999999999999E-002    0.10122674247862043
   1.5100000000000002E-002     8.7981401945557550E-002
   1.5200000000000005E-002     7.4472963722702762E-002
   1.5300000000000001E-002     6.0706764467308619E-002
   1.5400000000000004E-002     4.6688484909673915E-002
   1.5500000000000000E-002     3.2424066388217002E-002
   1.5600000000000003E-002     1.7919636926497270E-002