  -4.0000000000000001E-002     0.0000000000000000
  -3.9899999999999998E-002    -3.7085023940619521E-009
  -3.9800000000000002E-002    -1.0022369600903858E-008
  -3.9699999999999999E-002    -1.4992284746995210E-008
  -3.9600000000000003E-002    -2.6315056800285674E-008
  -3.9500000000000000E-002    -1.5180001255998832E-008
  -3.9399999999999998E-002     7.2308722565139760E-008
  -3.9300000000000002E-002     6.7692702998556342E-008
  -3.9199999999999999E-002     1.4093347999732941E-007
  -3.9100000000000003E-002    -8.9886057708099543E-008
  -3.9000000000000000E-002     7.8443829210073091E-009
  -3.8900000000000004E-002     8.2404348233922065E-008
  -3.8800000000000001E-002    -5.1639979403717007E-008
  -3.8699999999999998E-002     2.4839349066496652E-007
  -3.8600000000000002E-002    -3.0786620186518121E-007
  -3.8500000000000000E-002     9.2748670965647761E-008
  -3.8400000000000004E-002     2.0095285435672849E-007
  -3.8300000000000001E-002     1.4270135295646469E-007
  -3.8199999999999998E-002     2.9561218184426252E-007
  -3.8100000000000002E-002     5.1738902584474999E-007
  -3.7999999999999999E-002     1.0425052465734552E-007
  -3.7900000000000003E-002    -7.5115778486178897E-008
  -3.7800000000000000E-002    -9.3847614124342726E-009
  -3.7699999999999997E-002    -3.9004689256216807E-007
  -3.7600000000000001E-002     6.3978666275943397E-007
  -3.7499999999999999E-002     4.7777319878150593E-008
  -3.7400000000000003E-002     3.9098901538636710E-007
  -3.7300000000000000E-002     1.8060626416627201E-007
  -3.7200000000000004E-002     3.2178323294829170E-007
  -3.7100000000000001E-002    -1.0059653732241713E-006
  -3.6999999999999998E-002    -1.0084407904287218E-006
  -3.6900000000000002E-002     3.3178139347000979E-007
  -3.6799999999999999E-002    -1.3346030982575030E-006
  -3.6700000000000003E-002    -1.5689138308516704E-006
  -3.6600000000000001E-002    -3.1458236549042340E-007
  -3.6499999999999998E-002    -4.1103712078438548E-007
  -3.6400000000000002E-002     6.1028157460896182E-007
  -3.6299999999999999E-002     1.0678603530323016E-006
  -3.6200000000000003E-002    -1.1292539738860796E-006
  -3.6100000000000000E-002     1.4916612371962401E-006
  -3.6000000000000004E-002     1.6388499943786883E-006
  -3.5900000000000001E-002    -2.1041350919404067E-006
  -3.5799999999999998E-002    -3.3807750696723815E-006
  -3.5700000000000003E-002    -1.6771764421719126E-006
  -3.5600000000000000E-002    -2.6017448817583499E-006
  -3.5500000000000004E-002     2.6769591841002693E-006
  -3.5400000000000001E-002    -7.5494273232834530E-007
  -3.5299999999999998E-002     1.0510852916922886E-006
  -3.5200000000000002E-002    -2.9298664117050066E-007
  -3.5099999999999999E-002    -6.6505577933639870E-007
  -3.5000000000000003E-002    -1.7947862716027885E-006
  -3.4900000000000000E-002    -1.2385733043629443E-006
  -3.4799999999999998E-002    -2.4012813355511753E-006
  -3.4700000000000002E-002     5.0255152928002644E-007
  -3.4599999999999999E-002    -1.3884794043406146E-006
  -3.4500000000000003E-002     4.3668460421031341E-006
  -3.4400000000000000E-002     2.4178359581128461E-006
  -3.4299999999999997E-002     9.3124544946476817E-006
  -3.4200000000000001E-002     1.9480542050587246E-006
  -3.4099999999999998E-002    -3.2752768674981780E-006
  -3.4000000000000002E-002     4.8435327926199534E-007
  -3.3900000000000000E-002    -6.3601496549381409E-006
  -3.3799999999999997E-002    -6.6139105001639109E-006
  -3.3700000000000001E-002    -1.5610783066222211E-006
  -3.3599999999999998E-002    -4.4384169086697511E-006
  -3.3500000000000002E-002    -1.7342656519758748E-006
  -3.3399999999999999E-002     2.8076038915969548E-007
  -3.3300000000000003E-002     3.9229321373568382E-006
  -3.3200000000000000E-002     1.1938202987948898E-005
  -3.3099999999999997E-002     2.5637484213802963E-005
  -3.3000000000000002E-002     5.5867672017484438E-006
  -3.2899999999999999E-002     4.7320972953457385E-006
  -3.2800000000000003E-002     1.4439225196838379E-005
  -3.2700000000000000E-002     1.2057830645062495E-006
  -3.2600000000000004E-002    -4.3707473196263891E-006
  -3.2500000000000001E-002     4.4908420022693463E-006
  -3.2399999999999998E-002     9.6677113106125034E-006
  -3.2300000000000002E-002     5.1405218073341530E-006
  -3.2199999999999999E-002    -1.4383401776285609E-006
  -3.2100000000000004E-002    -2.0118945030844770E-005
  -3.2000000000000001E-002     2.4287076030304888E-006
  -3.1899999999999998E-002     1.6465620547023718E-006
  -3.1800000000000002E-002    -2.0410187062225305E-005
  -3.1699999999999999E-002    -5.4324923439708073E-006
  -3.1600000000000003E-002    -1.0549907528911717E-005
  -3.1500000000000000E-002    -2.7899979613721371E-005
  -3.1399999999999997E-002    -1.8538310541771352E-005
  -3.1300000000000001E-002    -2.4196966478484683E-005
  -3.1199999999999999E-002    -4.5170099838287570E-007
  -3.1100000000000003E-002     1.4013222653375124E-006
  -3.1000000000000000E-002    -1.1779545275203418E-005
  -3.0900000000000000E-002     1.9067820176132955E-005
  -3.0800000000000001E-002     1.2222655641380697E-005
  -3.0699999999999998E-002     1.7911688701133244E-005
  -3.0600000000000002E-002    -1.5443178199348040E-005
  -3.0499999999999999E-002    -1.9690771750902059E-006
  -3.0400000000000000E-002     3.7117679312359542E-005
  -3.0300000000000001E-002    -1.7642441889620386E-005
  -3.0200000000000001E-002     9.2001064331270754E-006
  -3.0100000000000002E-002    -4.8521455937589053E-006
  -2.9999999999999999E-002    -1.4211544112185948E-005
  -2.9899999999999999E-002    -4.8920196604740340E-006
  -2.9800000000000000E-002    -1.6374191545764916E-005
  -2.9700000000000001E-002    -1.4761813872610219E-005
  -2.9600000000000001E-002    -6.0473907069535926E-005
  -2.9499999999999998E-002    -1.4558385373675264E-005
  -2.9400000000000003E-002    -7.2930793976411223E-005
  -2.9300000000000000E-002    -1.8145177818951197E-005
  -2.9200000000000000E-002     4.0015966078499332E-006
  -2.9100000000000001E-002    -4.7921002988005057E-005
  -2.8999999999999998E-002    -2.1171816115383990E-005
  -2.8900000000000002E-002     6.2676532252226025E-005
  -2.8799999999999999E-002     4.6983070205897093E-005
  -2.8700000000000000E-002     5.3221072448650375E-005
  -2.8600000000000000E-002     8.4711398812942207E-005
  -2.8500000000000001E-002     2.8387525162543170E-005
  -2.8400000000000002E-002     9.4467657618224621E-005
  -2.8299999999999999E-002    -3.2314223062712699E-005
  -2.8200000000000003E-002    -5.5927837820490822E-005
  -2.8100000000000000E-002     5.9396581491455436E-005
  -2.8000000000000001E-002     7.5844582170248032E-005
  -2.7900000000000001E-002     5.2496361604426056E-005
  -2.7799999999999998E-002     4.0278730011777952E-005
  -2.7700000000000002E-002    -4.8126028559636325E-005
  -2.7600000000000000E-002    -6.5663548411976080E-006
  -2.7500000000000000E-002     1.5895726392045617E-004
  -2.7400000000000001E-002     2.5005107090692036E-005
  -2.7299999999999998E-002    -5.8112706028623506E-005
  -2.7200000000000002E-002    -9.8696371424011886E-005
  -2.7099999999999999E-002    -8.4145845903549343E-005
  -2.7000000000000000E-002    -2.0341009076219052E-005
  -2.6900000000000000E-002     2.2041903866920620E-004
  -2.6800000000000001E-002     8.0251433246303350E-005
  -2.6700000000000002E-002     7.8857025073375553E-005
  -2.6599999999999999E-002    -1.3668446626979858E-005
  -2.6500000000000003E-002     9.3794347776565701E-005
  -2.6400000000000000E-002     1.4705373905599117E-004
  -2.6300000000000000E-002    -1.6620934184174985E-004
  -2.6200000000000001E-002    -1.1332782014505938E-004
  -2.6099999999999998E-002     1.3279568520374596E-004
  -2.6000000000000002E-002    -4.5251773553900421E-004
  -2.5899999999999999E-002    -1.4812606968916953E-004
  -2.5800000000000000E-002     8.6237763753160834E-005
  -2.5700000000000001E-002    -4.1147440788336098E-004
  -2.5599999999999998E-002    -2.2335750691127032E-004
  -2.5500000000000002E-002     2.9038057618890889E-005
  -2.5399999999999999E-002    -9.0645058662630618E-005
  -2.5300000000000000E-002     3.3263894147239625E-004
  -2.5200000000000000E-002    -1.7920084064826369E-004
  -2.5100000000000001E-002     2.2261012054514140E-004
  -2.5000000000000001E-002     8.7589229224249721E-005
  -2.4899999999999999E-002     5.9241976123303175E-004
  -2.4800000000000003E-002    -1.8472802184987813E-004
  -2.4700000000000000E-002     1.9665129366330802E-004
  -2.4600000000000000E-002    -2.3960416729096323E-004
  -2.4500000000000001E-002    -6.7801738623529673E-005
  -2.4399999999999998E-002    -3.1801333534531295E-005
  -2.4299999999999999E-002     4.2903792927972972E-004
  -2.4199999999999999E-002     5.0936773186549544E-004
  -2.4100000000000000E-002     1.0807414219016209E-004
  -2.4000000000000000E-002     1.4262738113757223E-004
  -2.3900000000000001E-002    -1.5894332318566740E-004
  -2.3800000000000002E-002    -8.4368506213650107E-004
  -2.3699999999999999E-002     2.4417269742116332E-004
  -2.3599999999999999E-002     4.0713066118769348E-004
  -2.3500000000000000E-002    -4.6501925680786371E-004
  -2.3400000000000001E-002    -1.0651950724422932E-003
  -2.3300000000000001E-002     1.1626663763308898E-004
  -2.3199999999999998E-002     9.1323518063290976E-006
  -2.3099999999999999E-002    -6.0716403822880238E-005
  -2.3000000000000000E-002    -2.4308887077495456E-004
  -2.2900000000000000E-002     3.2988903694786131E-004
  -2.2800000000000001E-002    -5.4173782700672746E-004
  -2.2700000000000001E-002    -4.3175244354642928E-004
  -2.2599999999999999E-002     9.0986752184107900E-004
  -2.2499999999999999E-002    -1.1402274249121547E-003
  -2.2400000000000000E-002     9.2357437824830413E-004
  -2.2300000000000000E-002     2.4677798501215875E-004
  -2.2200000000000001E-002     1.5664276725146919E-004
  -2.2100000000000002E-002    -4.0262829861603677E-004
  -2.1999999999999999E-002     4.2551886872388422E-004
  -2.1899999999999999E-002    -3.5788293462246656E-004
  -2.1800000000000000E-002    -8.1476144259795547E-004
  -2.1700000000000001E-002    -9.8882673773914576E-004
  -2.1600000000000001E-002    -1.2515988200902939E-003
  -2.1499999999999998E-002     4.6253891196101904E-004
  -2.1399999999999999E-002     3.1383469467982650E-004
  -2.1299999999999999E-002     4.9580290215089917E-004
  -2.1200000000000000E-002     9.1589317889884114E-004
  -2.1100000000000001E-002    -4.6100388863123953E-004
  -2.1000000000000001E-002     2.2777995036449283E-004
  -2.0899999999999998E-002     9.6653464424889535E-005
  -2.0799999999999999E-002    -7.0962349127512425E-005
  -2.0700000000000000E-002    -1.4024602714926004E-003
  -2.0600000000000000E-002    -3.4341067657805979E-004
  -2.0500000000000001E-002    -1.3352393580134958E-004
  -2.0400000000000001E-002     1.4827575068920851E-003
  -2.0299999999999999E-002     4.4317520223557949E-004
  -2.0199999999999999E-002    -1.1343726655468345E-003
  -2.0100000000000000E-002    -7.4268173193559051E-004
  -2.0000000000000000E-002    -6.2418694142252207E-004
  -1.9900000000000001E-002    -1.0555903427302837E-003
  -1.9799999999999998E-002     4.0051765972748399E-004
  -1.9699999999999999E-002    -4.5068282634019852E-004
  -1.9599999999999999E-002    -1.2739653466269374E-003
  -1.9500000000000000E-002     1.1363357771188021E-003
  -1.9400000000000001E-002    -5.6584470439702272E-004
  -1.9300000000000001E-002    -1.6076131723821163E-003
  -1.9199999999999998E-002    -2.3320247419178486E-003
  -1.9099999999999999E-002     8.3907047519460320E-004
  -1.9000000000000000E-002     1.1947072343900800E-003
  -1.8900000000000000E-002     4.3449789518490434E-004
  -1.8800000000000001E-002     3.0720664653927088E-003
  -1.8700000000000001E-002     6.1878412961959839E-003
  -1.8599999999999998E-002     2.2055630106478930E-003
  -1.8499999999999999E-002     6.6606556065380573E-003
  -1.8400000000000000E-002     6.0142409056425095E-003
  -1.8300000000000000E-002    -4.8267087549902499E-004
  -1.8200000000000001E-002    -1.1007814900949597E-003
  -1.8100000000000002E-002     2.8764912858605385E-003
  -1.7999999999999999E-002     1.2509898515418172E-003
  -1.7899999999999999E-002    -2.7236051391810179E-004
  -1.7800000000000000E-002     2.6167270261794329E-003
  -1.7700000000000000E-002    -3.6279068444855511E-004
  -1.7600000000000001E-002    -3.3444955479353666E-003
  -1.7499999999999998E-002    -4.5083225704729557E-003
  -1.7399999999999999E-002    -5.9589510783553123E-003
  -1.7299999999999999E-002    -3.7483829073607922E-003
  -1.7200000000000000E-002     8.0706062726676464E-004
  -1.7100000000000001E-002     8.1340398173779249E-004
  -1.7000000000000001E-002    -5.1146512851119041E-004
  -1.6899999999999998E-002     2.5266041047871113E-003
  -1.6799999999999999E-002    -4.0282653644680977E-003
  -1.6700000000000000E-002    -3.9876676164567471E-003
  -1.6600000000000000E-002    -4.2375377379357815E-003
  -1.6500000000000001E-002    -4.9693128094077110E-003
  -1.6400000000000001E-002     6.4768554875627160E-004
  -1.6299999999999999E-002     1.5395219088532031E-004
  -1.6199999999999999E-002    -1.1244082124903798E-003
  -1.6100000000000000E-002    -1.8401656998321414E-003
  -1.6000000000000000E-002     1.2811429332941771E-003
  -1.5900000000000001E-002    -3.8593707140535116E-003
  -1.5799999999999998E-002     3.0203899950720370E-004
  -1.5699999999999999E-002     5.2156229503452778E-003
  -1.5599999999999999E-002     4.2451960034668446E-003
  -1.5500000000000000E-002     6.4377528615295887E-003
  -1.5400000000000000E-002    -1.9440478354226798E-004
  -1.5300000000000001E-002    -1.9750131759792566E-003
  -1.5199999999999998E-002     7.8280726447701454E-003
  -1.5099999999999999E-002    -6.4634215959813446E-005
  -1.4999999999999999E-002     1.9540153443813324E-003
  -1.4900000000000000E-002    -4.4058789499104023E-003
  -1.4800000000000001E-002     2.2378729190677404E-003
  -1.4700000000000001E-002     1.2461530277505517E-003
  -1.4599999999999998E-002     2.4748360738158226E-003
  -1.4499999999999999E-002    -8.8115397375077009E-004
  -1.4400000000000000E-002    -3.8159799296408892E-003
  -1.4300000000000000E-002    -4.3799099512398243E-003
  -1.4200000000000001E-002     7.5610796920955181E-003
  -1.4099999999999998E-002    -6.7578111775219440E-003
  -1.3999999999999999E-002     2.3642536252737045E-003
  -1.3899999999999999E-002     9.8854396492242813E-003
  -1.3800000000000000E-002     1.0735381394624710E-002
  -1.3700000000000000E-002     5.5908784270286560E-003
  -1.3600000000000001E-002     7.9524172469973564E-003
  -1.3499999999999998E-002     1.1374076828360558E-002
  -1.3399999999999999E-002    -5.6574326008558273E-003
  -1.3299999999999999E-002     2.2639117669314146E-003
  -1.3200000000000000E-002    -1.2067810632288456E-002
  -1.3100000000000001E-002    -8.9303785935044289E-003
  -1.3000000000000001E-002     1.0910006240010262E-002
  -1.2899999999999998E-002     7.6357340440154076E-003
  -1.2799999999999999E-002    -1.3363206759095192E-002
  -1.2699999999999999E-002    -1.1159379966557026E-002
  -1.2600000000000000E-002    -1.6788957640528679E-002
  -1.2500000000000001E-002    -1.0160341858863831E-002
  -1.2399999999999998E-002    -3.8652447983622551E-003
  -1.2299999999999998E-002    -7.5082327239215374E-003
  -1.2199999999999999E-002    -3.1012266408652067E-003
  -1.2100000000000000E-002     2.1036898251622915E-003
  -1.2000000000000000E-002    -6.3357653561979532E-004
  -1.1900000000000001E-002     1.0805610567331314E-002
  -1.1799999999999998E-002    -6.1479906435124576E-005
  -1.1699999999999999E-002     4.7488538548350334E-003
  -1.1599999999999999E-002     8.7376367300748825E-003
  -1.1500000000000000E-002     1.4043190516531467E-002
  -1.1400000000000000E-002     2.7710648719221354E-003
  -1.1300000000000001E-002     5.3404099307954311E-003
  -1.1199999999999998E-002     4.1590477339923382E-003
  -1.1099999999999999E-002     7.1270898915827274E-003
  -1.0999999999999999E-002     3.0332626774907112E-003
  -1.0900000000000000E-002    -4.3656793422996998E-003
  -1.0800000000000001E-002     3.6061564460396767E-003
  -1.0699999999999998E-002     5.4325875826179981E-003
  -1.0599999999999998E-002     1.5723301330581307E-003
  -1.0499999999999999E-002    -1.5192863065749407E-003
  -1.0400000000000000E-002    -9.0941004455089569E-003
  -1.0300000000000000E-002    -1.0248900391161442E-002
  -1.0200000000000001E-002    -1.3436557725071907E-002
  -1.0099999999999998E-002    -9.7000710666179657E-003
  -9.9999999999999985E-003    -7.5933700427412987E-003
  -9.8999999999999991E-003    -1.2747759930789471E-002
  -9.7999999999999997E-003    -8.8976733386516571E-003
  -9.7000000000000003E-003    -1.4306412078440189E-002
  -9.6000000000000009E-003    -5.6491792201995850E-003
  -9.4999999999999980E-003    -1.2507203966379166E-002
  -9.3999999999999986E-003    -1.4264879748225212E-002
  -9.2999999999999992E-003    -4.5216814614832401E-003
  -9.1999999999999998E-003    -4.2434125207364559E-003
  -9.1000000000000004E-003    -5.6508942507207394E-003
  -9.0000000000000011E-003    -6.7277364432811737E-003
  -8.8999999999999982E-003    -5.3759827278554440E-003
  -8.7999999999999988E-003    -4.6134633012115955E-003
  -8.6999999999999994E-003    -1.4738269150257111E-002
  -8.5999999999999965E-003    -6.7077144049108028E-003
  -8.5000000000000006E-003    -7.3589729145169258E-003
  -8.3999999999999977E-003    -1.8443722510710359E-003
  -8.3000000000000018E-003     1.4910903992131352E-003
  -8.1999999999999990E-003     2.8774479869753122E-003
  -8.0999999999999961E-003     3.6601612810045481E-003
  -8.0000000000000002E-003     8.1869559362530708E-003
  -7.8999999999999973E-003     1.2563610449433327E-002
  -7.8000000000000014E-003     2.0502043887972832E-002
  -7.6999999999999985E-003     1.7452159896492958E-002
  -7.6000000000000026E-003     1.4936701394617558E-002
  -7.4999999999999997E-003     2.1484127268195152E-002
  -7.3999999999999969E-003     1.3145286589860916E-002
  -7.3000000000000009E-003     2.0026439800858498E-002
  -7.1999999999999981E-003     2.0750865340232849E-002
  -7.1000000000000021E-003     2.0500997081398964E-002
  -6.9999999999999993E-003     1.2263017706573009E-002
  -6.8999999999999964E-003     7.8701106831431389E-003
  -6.8000000000000005E-003     6.2776100821793079E-003
  -6.6999999999999976E-003     4.2334045283496380E-003
  -6.6000000000000017E-003    -3.2253228127956390E-003
  -6.4999999999999988E-003    -2.3602817673236132E-003
  -6.3999999999999960E-003    -5.0837807357311249E-003
  -6.3000000000000000E-003     9.7219599410891533E-006
  -6.1999999999999972E-003     3.2345280051231384E-003
  -6.1000000000000013E-003     2.0414923783391714E-003
  -5.9999999999999984E-003     1.0952213779091835E-002
  -5.9000000000000025E-003     1.5239827334880829E-002
  -5.7999999999999996E-003     2.1577568724751472E-002
  -5.6999999999999967E-003     1.3590744696557522E-002
  -5.6000000000000008E-003     6.9207060150802135E-003
  -5.4999999999999979E-003     4.8424801789224148E-003
  -5.4000000000000020E-003    -2.3283076006919146E-003
  -5.2999999999999992E-003    -8.6745144799351692E-003
  -5.1999999999999963E-003     8.3521445048972964E-004
  -5.1000000000000004E-003     5.8607645332813263E-003
  -4.9999999999999975E-003     7.1944179944694042E-003
  -4.9000000000000016E-003     2.4915072135627270E-003
  -4.7999999999999987E-003     2.9431092552840710E-003
  -4.6999999999999958E-003    -1.1166621698066592E-003
  -4.5999999999999999E-003    -2.6029727887362242E-003
  -4.4999999999999971E-003    -1.1617458425462246E-002
  -4.4000000000000011E-003    -2.6088472455739975E-002
  -4.2999999999999983E-003    -1.8466098234057426E-002
  -4.2000000000000023E-003    -1.8631136044859886E-002
  -4.0999999999999995E-003    -1.7738962545990944E-002
  -3.9999999999999966E-003    -4.2971607297658920E-002
  -3.9000000000000007E-003    -4.1927494108676910E-002
  -3.7999999999999978E-003    -3.9681628346443176E-002
  -3.7000000000000019E-003    -3.5422034561634064E-002
  -3.5999999999999990E-003    -3.5732619464397430E-002
  -3.4999999999999962E-003    -3.5856489092111588E-002
  -3.4000000000000002E-003    -3.5586100071668625E-002
  -3.2999999999999974E-003    -3.7041474133729935E-002
  -3.2000000000000015E-003    -2.5556081905961037E-002
  -3.0999999999999986E-003    -1.0490254499018192E-002
  -2.9999999999999957E-003    -8.5754152387380600E-003
  -2.8999999999999998E-003    -2.3118479177355766E-002
  -2.7999999999999969E-003    -8.2489773631095886E-003
  -2.7000000000000010E-003    -1.8174657598137856E-002
  -2.5999999999999981E-003     1.3999687507748604E-003
  -2.5000000000000022E-003     1.1155226267874241E-002
  -2.3999999999999994E-003     2.4066101759672165E-002
  -2.2999999999999965E-003     2.8370298445224762E-002
  -2.2000000000000006E-003     3.2323013991117477E-002
  -2.0999999999999977E-003     3.0936600640416145E-002
  -2.0000000000000018E-003     3.8014575839042664E-002
  -1.8999999999999989E-003     5.1202055066823959E-002
  -1.7999999999999960E-003     4.4116795063018799E-002
  -1.7000000000000001E-003     2.9072497040033340E-002
  -1.5999999999999973E-003     3.3631946891546249E-002
  -1.5000000000000013E-003     3.2296478748321533E-002
  -1.3999999999999985E-003     4.1213691234588623E-002
  -1.2999999999999956E-003     6.1905290931463242E-002
  -1.1999999999999997E-003     2.2785248234868050E-002
  -1.0999999999999968E-003     3.8380105048418045E-002
  -1.0000000000000009E-003     5.4464362561702728E-002
  -8.9999999999999802E-004     1.4587319456040859E-002
  -8.0000000000000210E-004     2.9738578945398331E-002
  -6.9999999999999923E-004     9.9253514781594276E-003
  -5.9999999999999637E-004    -2.1979841403663158E-003
  -5.0000000000000044E-004    -1.0275930166244507E-002
  -3.9999999999999758E-004    -1.4906468801200390E-002
  -3.0000000000000165E-004    -2.5080440565943718E-002
  -1.9999999999999879E-004    -2.4613199755549431E-002
  -9.9999999999995925E-005     4.9092043191194534E-003
   0.0000000000000000         -1.0876125656068325E-002
   1.0000000000000286E-004    -3.2016023993492126E-002
   1.9999999999999879E-004    -1.4729104004800320E-002
   3.0000000000000165E-004    -1.0817025788128376E-002
   4.0000000000000452E-004    -5.2839093841612339E-003
   5.0000000000000044E-004    -3.7072733044624329E-002
   6.0000000000000331E-004    -2.7507090941071510E-002
   6.9999999999999923E-004    -3.6890085786581039E-002
   8.0000000000000210E-004    -1.6320429742336273E-002
   8.9999999999999802E-004    -1.7052743583917618E-002
   1.0000000000000009E-003    -2.3264678195118904E-002
   1.1000000000000038E-003    -6.8901600316166878E-003
   1.1999999999999997E-003     4.0999450720846653E-003
   1.3000000000000025E-003    -7.2437268681824207E-003
   1.3999999999999985E-003     1.0103420354425907E-002
   1.5000000000000013E-003     1.9997399300336838E-002
   1.6000000000000042E-003     1.1137264780700207E-002
   1.7000000000000001E-003     1.0751445370260626E-004
   1.8000000000000030E-003     1.9108125939965248E-002
   1.8999999999999989E-003     2.5866560637950897E-002
   2.0000000000000018E-003     4.7857090830802917E-002
   2.1000000000000046E-003     1.8973372643813491E-003
   2.2000000000000006E-003     2.2041944786906242E-002
   2.3000000000000034E-003     1.6406914219260216E-002
   2.3999999999999994E-003     4.8543270677328110E-003
   2.5000000000000022E-003    -1.5090085566043854E-002
   2.5999999999999981E-003    -2.5259897112846375E-002
   2.7000000000000010E-003    -1.9404597580432892E-002
   2.8000000000000039E-003    -3.8911063224077225E-002
   2.8999999999999998E-003    -4.5367151498794556E-002
   3.0000000000000027E-003    -6.6821947693824768E-002
   3.0999999999999986E-003    -6.0416776686906815E-002
   3.2000000000000015E-003    -6.3149876892566681E-002
   3.3000000000000043E-003    -6.0846436768770218E-002
   3.4000000000000002E-003    -6.9559104740619659E-002
   3.5000000000000031E-003    -3.3182997256517410E-002
   3.5999999999999990E-003    -3.3211529254913330E-002
   3.7000000000000019E-003    -1.6808662563562393E-002
   3.7999999999999978E-003     1.5214429004117846E-003
   3.9000000000000007E-003     7.9063056036829948E-003
   4.0000000000000036E-003     2.8885651379823685E-002
   4.0999999999999995E-003     4.4712420552968979E-002
   4.2000000000000023E-003     6.7581690847873688E-002
   4.2999999999999983E-003     6.9489024579524994E-002
   4.4000000000000011E-003     8.6463131010532379E-002
   4.5000000000000040E-003     7.7107153832912445E-002
   4.5999999999999999E-003     9.9075280129909515E-002
   4.7000000000000028E-003    0.10082779079675674
   4.7999999999999987E-003     9.1451138257980347E-002
   4.9000000000000016E-003     8.4499575197696686E-002
   5.0000000000000044E-003     7.3351234197616577E-002
   5.1000000000000004E-003     6.3480392098426819E-002
   5.2000000000000032E-003     2.2639513015747070E-002
   5.2999999999999992E-003     1.3438061811029911E-002
   5.4000000000000020E-003     2.9792173299938440E-003
   5.4999999999999979E-003    -1.9723474979400635E-002
   5.6000000000000008E-003    -3.6698758602142334E-002
   5.7000000000000037E-003    -6.4342655241489410E-002
   5.7999999999999996E-003    -6.7541427910327911E-002
   5.9000000000000025E-003    -9.0805053710937500E-002
   5.9999999999999984E-003    -8.0967344343662262E-002
   6.1000000000000013E-003    -8.4486462175846100E-002
   6.2000000000000041E-003    -9.3476459383964539E-002
   6.3000000000000000E-003    -9.3867227435112000E-002
   6.4000000000000029E-003    -7.8582830727100372E-002
   6.4999999999999988E-003    -5.7280007749795914E-002
   6.6000000000000017E-003    -4.0112886577844620E-002
   6.7000000000000046E-003    -3.9767500013113022E-002
   6.8000000000000005E-003    -1.2127189897000790E-002
   6.9000000000000034E-003     2.7864139527082443E-002
   6.9999999999999993E-003     3.4990612417459488E-002
   7.1000000000000021E-003     5.0077922642230988E-002
   7.1999999999999981E-003     6.2444336712360382E-002
   7.3000000000000009E-003     6.4122453331947327E-002
   7.4000000000000038E-003     7.3280371725559235E-002
   7.4999999999999997E-003     7.2980627417564392E-002
   7.6000000000000026E-003     6.7068465054035187E-002
   7.6999999999999985E-003     6.1916548758745193E-002
   7.8000000000000014E-003     4.3932542204856873E-002
   7.9000000000000042E-003     2.0279962569475174E-002
   8.0000000000000002E-003    -1.0134725831449032E-002
   8.1000000000000030E-003    -2.9389986768364906E-002
   8.1999999999999990E-003    -4.4472362846136093E-002
   8.3000000000000018E-003    -7.4353203177452087E-002
   8.4000000000000047E-003    -8.1054300069808960E-002
   8.5000000000000006E-003    -8.4431178867816925E-002
   8.6000000000000035E-003    -8.4221899509429932E-002
   8.6999999999999994E-003    -8.5475154221057892E-002
   8.8000000000000023E-003    -9.4381250441074371E-002
   8.8999999999999982E-003   -0.10272255539894104
   9.0000000000000011E-003    -8.3480499684810638E-002
   9.1000000000000039E-003    -7.9893544316291809E-002
   9.1999999999999998E-003    -6.9335103034973145E-002
   9.3000000000000027E-003    -5.2135035395622253E-002
   9.3999999999999986E-003    -3.8866631686687469E-002
   9.5000000000000015E-003    -7.6947715133428574E-003
   9.6000000000000044E-003     1.6317248344421387E-002
   9.7000000000000003E-003     3.1663667410612106E-002
   9.8000000000000032E-003     4.3922908604145050E-002
   9.8999999999999991E-003     5.2522718906402588E-002
   1.0000000000000002E-002     7.4017755687236786E-002
   1.0100000000000005E-002     9.0983144938945770E-002
   1.0200000000000001E-002    0.10026585310697556
   1.0300000000000004E-002    0.11482232064008713
   1.0400000000000000E-002    0.11592882126569748
   1.0500000000000002E-002    0.12113988399505615
   1.0599999999999998E-002    0.10906194895505905
   1.0700000000000001E-002     8.9195810258388519E-002
   1.0800000000000004E-002     7.8532032668590546E-002
   1.0900000000000000E-002     7.3901586234569550E-002
   1.1000000000000003E-002     6.7273415625095367E-002
   1.1099999999999999E-002     5.9599537402391434E-002
   1.1200000000000002E-002     4.8820469528436661E-002
   1.1300000000000004E-002     3.7391956895589828E-002
   1.1400000000000000E-002     1.7212929204106331E-002
   1.1500000000000003E-002     2.4188300594687462E-003
   1.1599999999999999E-002    -1.9559297710657120E-002
   1.1700000000000002E-002    -3.2258916646242142E-002
   1.1800000000000005E-002    -4.4160883873701096E-002
   1.1900000000000001E-002    -5.0858043134212494E-002
   1.2000000000000004E-002    -6.4404726028442383E-002
   1.2100000000000000E-002    -7.5989700853824615E-002
   1.2200000000000003E-002    -7.3012098670005798E-002
   1.2299999999999998E-002    -6.5513089299201965E-002
   1.2400000000000001E-002    -5.2083667367696762E-002
   1.2500000000000004E-002    -4.4342800974845886E-002
   1.2600000000000000E-002    -2.9867682605981827E-002
   1.2700000000000003E-002    -1.2187543325126171E-002
   1.2799999999999999E-002    -1.3457590714097023E-002
   1.2900000000000002E-002     3.9683207869529724E-003
   1.3000000000000005E-002     1.7427578568458557E-002
   1.3100000000000001E-002     2.1180164068937302E-002
   1.3200000000000003E-002     4.0690258145332336E-002
   1.3299999999999999E-002     4.1680388152599335E-002
   1.3400000000000002E-002     4.1618634015321732E-002
   1.3500000000000005E-002     3.4132018685340881E-002
   1.3600000000000001E-002     3.2390560954809189E-002
   1.3700000000000004E-002     2.8260257095098495E-002
   1.3800000000000000E-002     1.8563830526545644E-003
   1.3900000000000003E-002     3.2077524811029434E-003
   1.3999999999999999E-002    -1.6713006421923637E-002
   1.4100000000000001E-002    -2.9043199494481087E-002
   1.4200000000000004E-002    -4.9959231168031693E-002
   1.4300000000000000E-002    -7.3264107108116150E-002
   1.4400000000000003E-002    -5.5163063108921051E-002
   1.4499999999999999E-002    -8.0071486532688141E-002