  -4.0000000000000001E-002     0.0000000000000000
  -3.9899999999999998E-002     0.0000000000000000
  -3.9800000000000002E-002     0.0000000000000000
  -3.9699999999999999E-002     0.0000000000000000
  -3.9600000000000003E-002     0.0000000000000000
  -3.9500000000000000E-002     0.0000000000000000
  -3.9399999999999998E-002     1.2041077655727703E-025
  -3.9300000000000002E-002     1.7790054097413668E-024
  -3.9199999999999999E-002     1.3862674717698612E-023
  -3.9100000000000003E-002     7.5876282064833008E-023
  -3.9000000000000000E-002     3.2761583289526250E-022
  -3.8900000000000004E-002     1.1879895408335429E-021
  -3.8800000000000001E-002     3.7610612830484038E-021
  -3.8699999999999998E-002     1.0671687574048567E-020
  -3.8600000000000002E-002     2.7650448558402103E-020
  -3.8500000000000000E-002     6.6337410419612616E-020
  -3.8400000000000004E-002     1.4894850796356817E-019
  -3.8300000000000001E-002     3.1562909837778324E-019
  -3.8199999999999998E-002     6.3547540914817812E-019
  -3.8100000000000002E-002     1.2222916384490175E-018
  -3.7999999999999999E-002     2.2561128558867569E-018
  -3.7900000000000003E-002     4.0112857483922946E-018
  -3.7800000000000000E-002     6.8913957294872918E-018
  -3.7699999999999997E-002     1.1470468419419844E-017
  -3.7600000000000001E-002     1.8538607187679610E-017
  -3.7499999999999999E-002     2.9148494009973354E-017
  -3.7400000000000003E-002     4.4656994523197733E-017
  -3.7300000000000000E-002     6.6753468826791792E-017
  -3.7200000000000004E-002     9.7463464937294805E-017
  -3.7100000000000001E-002     1.3911333881640219E-016
  -3.6999999999999998E-002     1.9423840841003652E-016
  -3.6900000000000002E-002     2.6541475938748056E-016
  -3.6799999999999999E-002     3.5499317793265707E-016
  -3.6700000000000003E-002     4.6471341111262361E-016
  -3.6600000000000001E-002     5.9517874901974228E-016
  -3.6499999999999998E-002     7.4517530082080175E-016
  -3.6400000000000002E-002     9.1082728494283001E-016
  -3.6299999999999999E-002     1.0845904500813748E-015
  -3.6200000000000003E-002     1.2540999094603322E-015
  -3.6100000000000000E-002     1.4009087672692463E-015
  -3.6000000000000004E-002     1.4991728251071925E-015
  -3.5900000000000001E-002     1.5143646662055179E-015
  -3.5799999999999998E-002     1.4021272353385640E-015
  -3.5700000000000003E-002     1.1074057125500358E-015
  -3.5600000000000000E-002     5.6402285577015950E-016
  -3.5500000000000004E-002    -3.0510715389960102E-016
  -3.5400000000000001E-002    -1.5869189206172418E-015
  -3.5299999999999998E-002    -3.3760642246862155E-015
  -3.5200000000000002E-002    -5.7714847783563479E-015
  -3.5099999999999999E-002    -8.8714841574084030E-015
  -3.5000000000000003E-002    -1.2767116754011997E-014
  -3.4900000000000000E-002    -1.7533770260835166E-014
  -3.4799999999999998E-002    -2.3220900375633358E-014
  -3.4700000000000002E-002    -2.9839935950424473E-014
  -3.4599999999999999E-002    -3.7350577023736008E-014
  -3.4500000000000003E-002    -4.5645732287937018E-014
  -3.4400000000000000E-002    -5.4535625758014070E-014
  -3.4299999999999997E-002    -6.3731717807393416E-014
  -3.4200000000000001E-002    -7.2831293302761942E-014
  -3.4099999999999998E-002    -8.1303726119239749E-014
  -3.4000000000000002E-002    -8.8479710067404246E-014
  -3.3900000000000000E-002    -9.3544776905050041E-014
  -3.3799999999999997E-002    -9.5538660147321507E-014
  -3.3700000000000001E-002    -9.3362088381115183E-014
  -3.3599999999999998E-002    -8.5792617070687499E-014
  -3.3500000000000002E-002    -7.1511073175494761E-014
  -3.3399999999999999E-002    -4.9140021077359154E-014
  -3.3300000000000003E-002    -1.7295381239622474E-014
  -3.3200000000000000E-002     2.5348020891746736E-014
  -3.3099999999999997E-002     7.9976622084140226E-014
  -3.3000000000000002E-002     1.4754438615045160E-013
  -3.2899999999999999E-002     2.2866620342529055E-013
  -3.2800000000000003E-002     3.2350033397688013E-013
  -3.2700000000000000E-002     4.3162252020552170E-013
  -3.2600000000000004E-002     5.5189596241776903E-013
  -3.2500000000000001E-002     6.8234160718815167E-013
  -3.2399999999999998E-002     8.2001517157801643E-013
  -3.2300000000000002E-002     9.6089700875161527E-013
  -3.2199999999999999E-002     1.0998035323670810E-012
  -3.2100000000000004E-002     1.2303282794223053E-012
  -3.2000000000000001E-002     1.3448213799925991E-012
  -3.1899999999999998E-002     1.4344172453978973E-012
  -3.1800000000000002E-002     1.4891198118853833E-012
  -3.1699999999999999E-002     1.4979535212810248E-012
  -3.1600000000000003E-002     1.4491877688516652E-012
  -3.1500000000000000E-002     1.3306420682371349E-012
  -3.1399999999999997E-002     1.1300750098922567E-012
  -3.1300000000000001E-002     8.3565958723077357E-013
  -3.1199999999999999E-002     4.3654327336871173E-013
  -3.1100000000000003E-002    -7.6511673924052696E-014
  -3.1000000000000000E-002    -7.1041711369980091E-013
  -3.0900000000000000E-002    -1.4689903383597601E-012
  -3.0800000000000001E-002    -2.3521464110269284E-012
  -3.0699999999999998E-002    -3.3550738118549836E-012
  -3.0600000000000002E-002    -4.4674224601074243E-012
  -3.0499999999999999E-002    -5.6725360692298895E-012
  -3.0400000000000000E-002    -6.9467644841165433E-012
  -3.0300000000000001E-002    -8.2589034110755035E-012
  -3.0200000000000001E-002    -9.5697944768109447E-012
  -3.0100000000000002E-002    -1.0832140546662248E-011
  -2.9999999999999999E-002    -1.1990577961294939E-011
  -2.9899999999999999E-002    -1.2982050539640128E-011
  -2.9800000000000000E-002    -1.3736527386572165E-011
  -2.9700000000000001E-002    -1.4178102192124978E-011
  -2.9600000000000001E-002    -1.4226499104870973E-011
  -2.9499999999999998E-002    -1.3799008778401170E-011
  -2.9400000000000003E-002    -1.2812870031359669E-011
  -2.9300000000000000E-002    -1.1188076596940844E-011
  -2.9200000000000000E-002    -8.8506008453309208E-012
  -2.9100000000000001E-002    -5.7359914781734313E-012
  -2.8999999999999998E-002    -1.7932842479950453E-012
  -2.8900000000000002E-002     3.0108397700221454E-012
  -2.8799999999999999E-002     8.6877761565382829E-012
  -2.8700000000000000E-002     1.5222657683189990E-011
  -2.8600000000000000E-002     2.2570175654984625E-011
  -2.8500000000000001E-002     3.0650649479810843E-011
  -2.8400000000000002E-002     3.9346536569052300E-011
  -2.8299999999999999E-002     4.8499596668208196E-011
  -2.8200000000000003E-002     5.7908861083988939E-011
  -2.8100000000000000E-002     6.7329630418973877E-011
  -2.8000000000000001E-002     7.6473667712158407E-011
  -2.7900000000000001E-002     8.5010821289342920E-011
  -2.7799999999999998E-002     9.2572191005196350E-011
  -2.7700000000000002E-002     9.8754993244296137E-011
  -2.7600000000000000E-002     1.0312928331968568E-010
  -2.7500000000000000E-002     1.0524654891671534E-010
  -2.7400000000000001E-002     1.0465018299633988E-010
  -2.7299999999999998E-002     1.0088789212756583E-010
  -2.7200000000000002E-002     9.3525852509754727E-011
  -2.7099999999999999E-002     8.2164526456524256E-011
  -2.7000000000000000E-002     6.6455789217083511E-011
  -2.6900000000000000E-002     4.6121169922915331E-011
  -2.6800000000000001E-002     2.0970816577057492E-011
  -2.6700000000000002E-002    -9.0773834066370559E-012
  -2.6599999999999999E-002    -4.3979001846867871E-011
  -2.6500000000000003E-002    -8.3545197478965645E-011
  -2.6400000000000000E-002    -1.2742616052726131E-010
  -2.6300000000000000E-002    -1.7509718024450631E-010
  -2.6200000000000001E-002    -2.2584744748746956E-010
  -2.6099999999999998E-002    -2.7877257508307825E-010
  -2.6000000000000002E-002    -3.3277155068759260E-010
  -2.5899999999999999E-002    -3.8654867261261971E-010
  -2.5800000000000000E-002    -4.3862154065695937E-010
  -2.5700000000000001E-002    -4.8733476030774316E-010
  -2.5599999999999998E-002    -5.3088077300974965E-010
  -2.5500000000000002E-002    -5.6732734149035290E-010
  -2.5399999999999999E-002    -5.9465239658604751E-010
  -2.5300000000000000E-002    -6.1078587962394008E-010
  -2.5200000000000000E-002    -6.1365834778140949E-010
  -2.5100000000000001E-002    -6.0125596525275007E-010
  -2.5000000000000001E-002    -5.7168118895164180E-010
  -2.4899999999999999E-002    -5.2321815659824294E-010
  -2.4800000000000003E-002    -4.5440193525590635E-010
  -2.4700000000000000E-002    -3.6408933923681286E-010
  -2.4600000000000000E-002    -2.5153074045165431E-010
  -2.4500000000000001E-002    -1.1644063453754989E-010
  -2.4399999999999998E-002     4.0935288036947350E-011
  -2.4299999999999999E-002     2.1975857920181306E-010
  -2.4199999999999999E-002     4.1854383392374321E-010
  -2.4100000000000000E-002     6.3511457350063019E-010
  -2.4000000000000000E-002     8.6657171312967652E-010
  -2.3900000000000001E-002     1.1092760384094188E-009
  -2.3800000000000002E-002     1.3588473580813719E-009
  -2.3699999999999999E-002     1.6101825360012216E-009
  -2.3599999999999999E-002     1.8574929977574709E-009
  -2.3500000000000000E-002     2.0943635738596522E-009
  -2.3400000000000001E-002     2.3138343722676436E-009
  -2.3300000000000001E-002     2.5085045265388777E-009
  -2.3199999999999998E-002     2.6706585805131376E-009
  -2.3099999999999999E-002     2.7924149838193486E-009
  -2.3000000000000000E-002     2.8658947942810248E-009
  -2.2900000000000000E-002     2.8834090585986928E-009
  -2.2800000000000001E-002     2.8376626355999187E-009
  -2.2700000000000001E-002     2.7219706327886570E-009
  -2.2599999999999999E-002     2.5304824118166680E-009
  -2.2499999999999999E-002     2.2584127497692988E-009
  -2.2400000000000000E-002     1.9022703557219321E-009
  -2.2300000000000000E-002     1.4600813910691830E-009
  -2.2200000000000001E-002     9.3160001947308187E-010
  -2.2100000000000002E-002     3.1850244896320235E-010
  -2.1999999999999999E-002    -3.7544382653356026E-010
  -2.1899999999999999E-002    -1.1442412501969444E-009
  -2.1800000000000000E-002    -1.9795598051908202E-009
  -2.1700000000000001E-002    -2.8706782891460327E-009
  -2.1600000000000001E-002    -3.8044721688043495E-009
  -2.1499999999999998E-002    -4.7654552327531456E-009
  -2.1399999999999999E-002    -5.7358779513893177E-009
  -2.1299999999999999E-002    -6.6958845962419146E-009
  -2.1200000000000000E-002    -7.6237354697394562E-009
  -2.1100000000000001E-002    -8.4960905938419559E-009
  -2.1000000000000001E-002    -9.2883540256077372E-009
  -2.0899999999999998E-002    -9.9750833608073902E-009
  -2.0799999999999999E-002    -1.0530453540753915E-008
  -2.0700000000000000E-002    -1.0928772683066859E-008
  -2.0600000000000000E-002    -1.1145046481377387E-008
  -2.0500000000000001E-002    -1.1155577881090278E-008
  -2.0400000000000001E-002    -1.0938597803820365E-008
  -2.0299999999999999E-002    -1.0474911802885799E-008
  -2.0199999999999999E-002    -9.7485486268863430E-009
  -2.0100000000000000E-002    -8.7474077238791804E-009
  -2.0000000000000000E-002    -7.4638771472603708E-009
  -1.9900000000000001E-002    -5.8954168510495554E-009
  -1.9799999999999998E-002    -4.0450881437414141E-009
  -1.9699999999999999E-002    -1.9220138960798108E-009
  -1.9599999999999999E-002     4.5824569530859265E-010
  -1.9500000000000000E-002     3.0734161450311988E-009
  -1.9400000000000001E-002     5.8943497492333239E-009
  -1.9300000000000001E-002     8.8849893021162172E-009
  -1.9199999999999998E-002     1.2002470263317978E-008
  -1.9099999999999999E-002     1.5197376160393472E-008
  -1.9000000000000000E-002     1.8414143578351176E-008
  -1.8900000000000000E-002     2.1591630425506505E-008
  -1.8800000000000001E-002     2.4663845684805884E-008
  -1.8700000000000001E-002     2.7560833140064304E-008
  -1.8599999999999998E-002     3.0209728236665052E-008
  -1.8499999999999999E-002     3.2535941858245379E-008
  -1.8400000000000000E-002     3.4464491033221881E-008
  -1.8300000000000000E-002     3.5921451282069538E-008
  -1.8200000000000001E-002     3.6835502501569792E-008
  -1.8100000000000002E-002     3.7139557244535237E-008
  -1.7999999999999999E-002     3.6772438975324657E-008
  -1.7899999999999999E-002     3.5680588979450456E-008
  -1.7800000000000000E-002     3.3819752712509254E-008
  -1.7700000000000000E-002     3.1156628416233293E-008
  -1.7600000000000001E-002     2.7670440559729533E-008
  -1.7499999999999998E-002     2.3354386645968219E-008
  -1.7399999999999999E-002     1.8216932152924918E-008
  -1.7299999999999999E-002     1.2282912420241874E-008
  -1.7200000000000000E-002     5.5944121207426302E-009
  -1.7100000000000001E-002    -1.7886422634455061E-009
  -1.7000000000000001E-002    -9.7881654087034069E-009
  -1.6899999999999998E-002    -1.8307931557924835E-008
  -1.6799999999999999E-002    -2.7233959205183188E-008
  -1.6700000000000000E-002    -3.6435244151307249E-008
  -1.6600000000000000E-002    -4.5764892244573887E-008
  -1.6500000000000001E-002    -5.5061645974717754E-008
  -1.6400000000000001E-002    -6.4151806721052111E-008
  -1.6299999999999999E-002    -7.2851542005087573E-008
  -1.6199999999999999E-002    -8.0969551245507049E-008
  -1.6100000000000000E-002    -8.8310111701029806E-008
  -1.6000000000000000E-002    -9.4676402117396341E-008
  -1.5900000000000001E-002    -9.9874121826015982E-008
  -1.5799999999999998E-002    -1.0371530831194034E-007
  -1.5699999999999999E-002    -1.0602236484901609E-007
  -1.5599999999999999E-002    -1.0663215106064468E-007
  -1.5500000000000000E-002    -1.0540008794998589E-007
  -1.5400000000000000E-002    -1.0220427541433842E-007
  -1.5300000000000001E-002    -9.6949392773275882E-008
  -1.5199999999999998E-002    -8.9570471917183543E-008
  -1.5099999999999999E-002    -8.0036309851352443E-008
  -1.4999999999999999E-002    -6.8352473634344030E-008
  -1.4900000000000000E-002    -5.4563903315856340E-008
  -1.4800000000000001E-002    -3.8756881342830603E-008
  -1.4700000000000001E-002    -2.1060396257042800E-008
  -1.4599999999999998E-002    -1.6468263839654007E-009
  -1.4499999999999999E-002     1.9268164728075968E-008
  -1.4400000000000000E-002     4.1426592863992486E-008
  -1.4300000000000000E-002     6.4529873433943395E-008
  -1.4200000000000001E-002     8.8241488907581350E-008
  -1.4099999999999998E-002     1.1219051058859128E-007
  -1.3999999999999999E-002     1.3597599452084726E-007
  -1.3899999999999999E-002     1.5917222868773665E-007
  -1.3800000000000000E-002     1.8133477515500735E-007
  -1.3700000000000000E-002     2.0200724129203686E-007
  -1.3600000000000001E-002     2.2072872348367473E-007
  -1.3499999999999998E-002     2.3704180298167220E-007
  -1.3399999999999999E-002     2.5050099101428031E-007
  -1.3299999999999999E-002     2.6068144117952785E-007
  -1.3200000000000000E-002     2.6718792994196004E-007
  -1.3100000000000001E-002     2.6966372399774933E-007
  -1.3000000000000001E-002     2.6779939190004346E-007
  -1.2899999999999998E-002     2.6134125259206494E-007
  -1.2799999999999999E-002     2.5009936001771257E-007
  -1.2699999999999999E-002     2.3395468524262359E-007
  -1.2600000000000000E-002     2.1286561668963575E-007
  -1.2500000000000001E-002     1.8687337530122735E-007
  -1.2399999999999998E-002     1.5610623447277312E-007
  -1.2299999999999998E-002     1.2078246960231307E-007
  -1.2199999999999999E-002     8.1211785987425681E-008
  -1.2100000000000000E-002     3.7795301742982396E-008
  -1.2000000000000000E-002    -8.9761635234557961E-009
  -1.1900000000000001E-002    -5.8525418841509191E-008
  -1.1799999999999998E-002    -1.1019406806019071E-007
  -1.1699999999999999E-002    -1.6324928189494512E-007
  -1.1599999999999999E-002    -2.1689226830569681E-007
  -1.1500000000000000E-002    -2.7026841625179761E-007
  -1.1400000000000000E-002    -3.2247892064881698E-007
  -1.1300000000000001E-002    -3.7259378177188083E-007
  -1.1199999999999998E-002    -4.1966606170023229E-007
  -1.1099999999999999E-002    -4.6274713834918735E-007
  -1.0999999999999999E-002    -5.0090283548827718E-007
  -1.0900000000000000E-002    -5.3323005561393266E-007
  -1.0800000000000001E-002    -5.5887380169953815E-007
  -1.0699999999999998E-002    -5.7704408077850583E-007
  -1.0599999999999998E-002    -5.8703272855058347E-007
  -1.0499999999999999E-002    -5.8822948580473239E-007
  -1.0400000000000000E-002    -5.8013726598839601E-007
  -1.0300000000000000E-002    -5.6238623468040298E-007
  -1.0200000000000001E-002    -5.3474646972782910E-007
  -1.0099999999999998E-002    -4.9713855311632818E-007
  -9.9999999999999985E-003    -4.4964240374143767E-007
  -9.8999999999999991E-003    -3.9250382267657026E-007
  -9.7999999999999997E-003    -3.2613833392667964E-007
  -9.7000000000000003E-003    -2.5113247879154720E-007
  -9.6000000000000009E-003    -1.6824237240253304E-007
  -9.4999999999999980E-003    -7.8389159414071655E-008
  -9.3999999999999986E-003     1.7348431095986574E-008
  -9.2999999999999992E-003     1.1774441273815741E-007
  -9.1999999999999998E-003     2.2143895707642432E-007
  -9.1000000000000004E-003     3.2695441250904861E-007
  -9.0000000000000011E-003     4.3271408425665549E-007
  -8.8999999999999982E-003     5.3706362772914935E-007
  -8.7999999999999988E-003     6.3829440063432498E-007
  -8.6999999999999994E-003     7.3466880154774142E-007
  -8.5999999999999965E-003     8.2444724409424952E-007
  -8.5000000000000006E-003     9.0591625058820324E-007
  -8.3999999999999977E-003     9.7741726191355658E-007
  -8.3000000000000018E-003     1.0373757750070614E-006
  -8.1999999999999990E-003     1.0843303277185560E-006
  -8.0999999999999961E-003     1.1169607668952497E-006
  -8.0000000000000002E-003     1.1341153543173672E-006
  -7.8999999999999973E-003     1.1348364620533479E-006
  -7.8000000000000014E-003     1.1183836936771656E-006
  -7.6999999999999985E-003     1.0842549451125525E-006
  -7.6000000000000026E-003     1.0322039629917174E-006
  -7.4999999999999997E-003     9.6225454897631152E-007
  -7.3999999999999969E-003     8.7471119200587948E-007
  -7.3000000000000009E-003     7.7016532080143551E-007
  -7.1999999999999981E-003     6.4949747699663425E-007
  -7.1000000000000021E-003     5.1387457120395224E-007
  -6.9999999999999993E-003     3.6474246367648801E-007
  -6.8999999999999964E-003     2.0381418115621336E-007
  -6.8000000000000005E-003     3.3052876834698134E-008
  -6.6999999999999976E-003    -1.4534936026602099E-007
  -6.6000000000000017E-003    -3.2899747040405343E-007
  -6.4999999999999988E-003    -5.1532332562523777E-007
  -6.3999999999999960E-003    -7.0161959739693322E-007
  -6.3000000000000000E-003    -8.8507712219542471E-007
  -6.1999999999999972E-003    -1.0628250960779294E-006
  -6.1000000000000013E-003    -1.2319735330024567E-006
  -5.9999999999999984E-003    -1.3896577032050205E-006
  -5.9000000000000025E-003    -1.5330837560382598E-006
  -5.7999999999999996E-003    -1.6595742427976559E-006
  -5.6999999999999967E-003    -1.7666140214919363E-006
  -5.6000000000000008E-003    -1.8518950570714881E-006
  -5.4999999999999979E-003    -1.9133588843073676E-006
  -5.4000000000000020E-003    -1.9492369340944211E-006
  -5.2999999999999992E-003    -1.9580876294361519E-006
  -5.1999999999999963E-003    -1.9388295875447424E-006
  -5.1000000000000004E-003    -1.8907697935620290E-006
  -4.9999999999999975E-003    -1.8136275767286711E-006
  -4.9000000000000016E-003    -1.7075517409652561E-006
  -4.7999999999999987E-003    -1.5731322952944195E-006
  -4.6999999999999958E-003    -1.4114051855942120E-006
  -4.5999999999999999E-003    -1.2238507455252585E-006
  -4.4999999999999971E-003    -1.0123851373481005E-006
  -4.4000000000000011E-003    -7.7934424690473589E-007
  -4.2999999999999983E-003    -5.2746100649872795E-007
  -4.2000000000000023E-003    -2.5983636842857732E-007
  -4.0999999999999995E-003     2.0096927064297634E-008
  -3.9999999999999966E-003     3.0861653611702337E-007
  -3.9000000000000007E-003     6.0175812351393928E-007
  -3.7999999999999978E-003     8.9536813202104173E-007
  -3.7000000000000019E-003     1.1851610127404022E-006
  -3.5999999999999990E-003     1.4667798133904356E-006
  -3.4999999999999962E-003     1.7358596883382089E-006
  -3.4000000000000002E-003     1.9880930775949045E-006
  -3.2999999999999974E-003     2.2192959510399583E-006
  -3.2000000000000015E-003     2.4254738250551081E-006
  -3.0999999999999986E-003     2.6028865748504447E-006
  -2.9999999999999957E-003     2.7481110807104268E-006
  -2.8999999999999998E-003     2.8581009812611316E-006
  -2.7999999999999969E-003     2.9302415391825245E-006
  -2.7000000000000010E-003     2.9624006600499687E-006
  -2.5999999999999981E-003     2.9529725889212504E-006
  -2.5000000000000022E-003     2.9009155772152884E-006
  -2.3999999999999994E-003     2.8057815929455370E-006
  -2.2999999999999965E-003     2.6677378835189010E-006
  -2.2000000000000006E-003     2.4875807283488434E-006
  -2.0999999999999977E-003     2.2667385174971237E-006
  -2.0000000000000018E-003     2.0072663093876793E-006
  -1.8999999999999989E-003     1.7118313230875176E-006
  -1.7999999999999960E-003     1.3836876577471538E-006
  -1.7000000000000001E-003     1.0266427346270338E-006
  -1.5999999999999973E-003     6.4501363288336269E-007
  -1.5000000000000013E-003     2.4357551508129536E-007
  -1.3999999999999985E-003    -1.7249817095617438E-007
  -1.2999999999999956E-003    -5.9770403665380815E-007
  -1.1999999999999997E-003    -1.0262819525255592E-006
  -1.0999999999999968E-003    -1.4522949161054804E-006
  -1.0000000000000009E-003    -1.8697137729697592E-006
  -8.9999999999999802E-004    -2.2725045693281387E-006
  -8.0000000000000210E-004    -2.6547186074981376E-006
  -6.9999999999999923E-004    -3.0105829787172314E-006
  -5.9999999999999637E-004    -3.3345909585803987E-006
  -5.0000000000000044E-004    -3.6215901320097438E-006
  -3.9999999999999758E-004    -3.8668672750497024E-006
  -3.0000000000000165E-004    -4.0662286488531814E-006
  -1.9999999999999879E-004    -4.2160741050480485E-006
  -9.9999999999995925E-005    -4.3134633905406025E-006
   0.0000000000000000         -4.3561744065765436E-006
   1.0000000000000286E-004    -4.3427506241482288E-006
   1.9999999999999879E-004    -4.2725390696880147E-006
   3.0000000000000165E-004    -4.1457152228258532E-006
   4.0000000000000452E-004    -3.9632962656786074E-006
   5.0000000000000044E-004    -3.7271406382277143E-006
   6.0000000000000331E-004    -3.4399343886154911E-006
   6.9999999999999923E-004    -3.1051642586856030E-006
   8.0000000000000210E-004    -2.7270777873935265E-006
   8.9999999999999802E-004    -2.3106288307209421E-006
   1.0000000000000009E-003    -1.8614115197566347E-006
   1.1000000000000038E-003    -1.3855825519381676E-006
   1.1999999999999997E-003    -8.8977211051149544E-007
   1.3000000000000025E-003    -3.8098536434749176E-007
   1.3999999999999985E-003     1.3350394324614511E-007
   1.5000000000000013E-003     6.4626627204331494E-007
   1.6000000000000042E-003     1.1498338740059612E-006
   1.7000000000000001E-003     1.6368212699769489E-006
   1.8000000000000030E-003     2.1000455281116756E-006
   1.8999999999999989E-003     2.5326453615398812E-006
   2.0000000000000018E-003     2.9281961178497345E-006
   2.1000000000000046E-003     3.2808188676651580E-006
   2.2000000000000006E-003     3.5852809975120477E-006
   2.3000000000000034E-003     3.8370857645234406E-006
   2.3999999999999994E-003     4.0325495360324406E-006
   2.5000000000000022E-003     4.1688652819683177E-006
   2.5999999999999981E-003     4.2441491933010023E-006
   2.7000000000000010E-003     4.2574692416796567E-006
   2.8000000000000039E-003     4.2088562525993323E-006
   2.8999999999999998E-003     4.0992952247466133E-006
   3.0000000000000027E-003     3.9306965043625906E-006
   3.0999999999999986E-003     3.7058466967580404E-006
   3.2000000000000015E-003     3.4283403317270996E-006
   3.3000000000000043E-003     3.1024920552117269E-006
   3.4000000000000002E-003     2.7332314915435490E-006
   3.5000000000000031E-003     2.3259819736011583E-006
   3.5999999999999990E-003     1.8865232187688393E-006
   3.7000000000000019E-003     1.4208430803416313E-006
   3.7999999999999978E-003     9.3497970738708995E-007
   3.9000000000000007E-003     4.3485602978716711E-007
   4.0000000000000036E-003    -7.3889910258163651E-008
   4.0999999999999995E-003    -5.8607433330874600E-007
   4.2000000000000023E-003    -1.0971352944459315E-006
   4.2999999999999983E-003    -1.6032947478705043E-006
   4.4000000000000011E-003    -2.1017097070435535E-006
   4.5000000000000040E-003    -2.5906116942007558E-006
   4.5999999999999999E-003    -3.0694307954485075E-006
   4.7000000000000028E-003    -3.5389012774445385E-006
   4.7999999999999987E-003    -4.0011468403617654E-006
   4.9000000000000016E-003    -4.4597413321656240E-006
   5.0000000000000044E-003    -4.9197445926307402E-006
   5.1000000000000004E-003    -5.3877154564592471E-006
   5.2000000000000032E-003    -5.8716936773173797E-006
   5.2999999999999992E-003    -6.3811574182106227E-006
   5.4000000000000020E-003    -6.9269559932496713E-006
   5.4999999999999979E-003    -7.5212126454497763E-006
   5.6000000000000008E-003    -8.1772060528477052E-006
   5.7000000000000037E-003    -8.9092310940014235E-006
   5.7999999999999996E-003    -9.7324394763200131E-006
   5.9000000000000025E-003    -1.0662662917155171E-005
   5.9999999999999984E-003    -1.1716222279640977E-005
   6.1000000000000013E-003    -1.2909733417754959E-005
   6.2000000000000041E-003    -1.4259901806372928E-005
   6.3000000000000000E-003    -1.5783323819135739E-005
   6.4000000000000029E-003    -1.7496287950225530E-005
   6.4999999999999988E-003    -1.9414580668696314E-005
   6.6000000000000017E-003    -2.1553313112623579E-005
   6.7000000000000046E-003    -2.3926759802634371E-005
   6.8000000000000005E-003    -2.6548221785684487E-005
   6.9000000000000034E-003    -2.9429906500227566E-005
   6.9999999999999993E-003    -3.2582844232108186E-005
   7.1000000000000021E-003    -3.6016835628753654E-005
   7.1999999999999981E-003    -3.9740419588341321E-005
   7.3000000000000009E-003    -4.3760884561309550E-005
   7.4000000000000038E-003    -4.8084322801761269E-005
   7.4999999999999997E-003    -5.2715697693331947E-005
   7.6000000000000026E-003    -5.7658959553277136E-005
   7.6999999999999985E-003    -6.2917197540177217E-005
   7.8000000000000014E-003    -6.8492810882227434E-005
   7.9000000000000042E-003    -7.4387719068042175E-005
   8.0000000000000002E-003    -8.0603593816800338E-005
   8.1000000000000030E-003    -8.7142113755662754E-005
   8.1999999999999990E-003    -9.4005242301810484E-005
   8.3000000000000018E-003    -1.0119550011860596E-004
   8.4000000000000047E-003    -1.0871628574486872E-004
   8.5000000000000006E-003    -1.1657216014287096E-004
   8.6000000000000035E-003    -1.2476914389532285E-004
   8.6999999999999994E-003    -1.3331502785905697E-004
   8.8000000000000023E-003    -1.4221965397414747E-004
   8.8999999999999982E-003    -1.5149520080224178E-004
   9.0000000000000011E-003    -1.6115644567908752E-004
   9.1000000000000039E-003    -1.7122097579867610E-004
   9.1999999999999998E-003    -1.8170942194974408E-004
   9.3000000000000027E-003    -1.9264565760981136E-004
   9.3999999999999986E-003    -2.0405694566193413E-004
   9.5000000000000015E-003    -2.1597406056510110E-004
   9.6000000000000044E-003    -2.2843141439281918E-004
   9.7000000000000003E-003    -2.4146711174806228E-004
   9.8000000000000032E-003    -2.5512299424141591E-004
   9.8999999999999991E-003    -2.6944466794968133E-004
   1.0000000000000002E-002    -2.8448147308793694E-004
   1.0100000000000005E-002    -3.0028645937791714E-004
   1.0200000000000001E-002    -3.1691633323016898E-004
   1.0300000000000004E-002    -3.3443135142154193E-004
   1.0400000000000000E-002    -3.5289529866561393E-004
   1.0500000000000002E-002    -3.7237536823808487E-004
   1.0599999999999998E-002    -3.9294202853599146E-004
   1.0700000000000001E-002    -4.1466891206250103E-004
   1.0800000000000004E-002    -4.3763272007220908E-004
   1.0900000000000000E-002    -4.6191315822758955E-004
   1.1000000000000003E-002    -4.8759280072881508E-004
   1.1099999999999999E-002    -5.1475705135744804E-004
   1.1200000000000002E-002    -5.4349407340961557E-004
   1.1300000000000004E-002    -5.7389468489037264E-004
   1.1400000000000000E-002    -6.0605238706240984E-004
   1.1500000000000003E-002    -6.4006335002049996E-004
   1.1599999999999999E-002    -6.7602643641124800E-004
   1.1700000000000002E-002    -7.1404324283137733E-004
   1.1800000000000005E-002    -7.5421817893970709E-004
   1.1900000000000001E-002    -7.9665856178717516E-004
   1.2000000000000004E-002    -8.4147475457701365E-004
   1.2100000000000000E-002    -8.8878025370017441E-004
   1.2200000000000003E-002    -9.3869178828681892E-004
   1.2299999999999998E-002    -9.9132967648657162E-004
   1.2400000000000001E-002    -1.0468179948811660E-003
   1.2500000000000004E-002    -1.1052847099099867E-003
   1.2600000000000000E-002    -1.1668619597047778E-003
   1.2700000000000003E-002    -1.2316863818767694E-003
   1.2799999999999999E-002    -1.2998993333379206E-003
   1.2900000000000002E-002    -1.3716469211533860E-003
   1.3000000000000005E-002    -1.4470805893814149E-003
   1.3100000000000001E-002    -1.5263575238829816E-003
   1.3200000000000003E-002    -1.6096406488067736E-003
   1.3299999999999999E-002    -1.6970990203980295E-003
   1.3400000000000002E-002    -1.7889080228211873E-003
   1.3500000000000005E-002    -1.8852499097754558E-003
   1.3600000000000001E-002    -1.9863140894716596E-003
   1.3700000000000004E-002    -2.0922972673112976E-003
   1.3800000000000000E-002    -2.2034038816994934E-003
   1.3900000000000003E-002    -2.3198463160964047E-003
   1.3999999999999999E-002    -2.4418456281671292E-003
   1.4100000000000001E-002    -2.5696309895352851E-003
   1.4200000000000004E-002    -2.7034408775170084E-003
   1.4300000000000000E-002    -2.8435235373285165E-003
   1.4400000000000003E-002    -2.9901365867756819E-003
   1.4499999999999999E-002    -3.1435477273414384E-003