  -4.0000000000000001E-002     0.0000000000000000
  -3.9899999999999998E-002    -1.8033537685369083E-007
  -3.9800000000000002E-002    -5.4746209343647934E-007
  -3.9699999999999999E-002    -1.1026463653251994E-006
  -3.9600000000000003E-002    -1.8420320202494622E-006
  -3.9500000000000000E-002    -2.7569046778808115E-006
  -3.9399999999999998E-002    -3.8341436265909579E-006
  -3.9300000000000002E-002    -5.0568401093187276E-006
  -3.9199999999999999E-002    -6.4050618675537407E-006
  -3.9100000000000003E-002    -7.8567309174104594E-006
  -3.9000000000000000E-002    -9.3885810201754794E-006
  -3.8900000000000004E-002    -1.0977162673952989E-005
  -3.8800000000000001E-002    -1.2599840374605265E-005
  -3.8699999999999998E-002    -1.4235772141546477E-005
  -3.8600000000000002E-002    -1.5866800822550431E-005
  -3.8500000000000000E-002    -1.7478252630098723E-005
  -3.8400000000000004E-002    -1.9059585611103103E-005
  -3.8300000000000001E-002    -2.0604893506970257E-005
  -3.8199999999999998E-002    -2.2113219529273920E-005
  -3.8100000000000002E-002    -2.3588683689013124E-005
  -3.7999999999999999E-002    -2.5040428226930089E-005
  -3.7900000000000003E-002    -2.6482357498025522E-005
  -3.7800000000000000E-002    -2.7932719603995793E-005
  -3.7699999999999997E-002    -2.9413520678645000E-005
  -3.7600000000000001E-002    -3.0949817301006988E-005
  -3.7499999999999999E-002    -3.2568899769103155E-005
  -3.7400000000000003E-002    -3.4299409890081733E-005
  -3.7300000000000000E-002    -3.6170433304505423E-005
  -3.7200000000000004E-002    -3.8210586353670806E-005
  -3.7100000000000001E-002    -4.0447172068525106E-005
  -3.6999999999999998E-002    -4.2905387090286240E-005
  -3.6900000000000002E-002    -4.5607655920321122E-005
  -3.6799999999999999E-002    -4.8573103413218632E-005
  -3.6700000000000003E-002    -5.1817176426993683E-005
  -3.6600000000000001E-002    -5.5351454648189247E-005
  -3.6499999999999998E-002    -5.9183639677939937E-005
  -3.6400000000000002E-002    -6.3317711465060711E-005
  -3.6299999999999999E-002    -6.7754292103927583E-005
  -3.6200000000000003E-002    -7.2491151513531804E-005
  -3.6100000000000000E-002    -7.7523836807813495E-005
  -3.6000000000000004E-002    -8.2846469013020396E-005
  -3.5900000000000001E-002    -8.8452572526875883E-005
  -3.5799999999999998E-002    -9.4335991889238358E-005
  -3.5700000000000003E-002    -1.0049180127680302E-004
  -3.5600000000000000E-002    -1.0691721399780363E-004
  -3.5500000000000004E-002    -1.1361243377905339E-004
  -3.5400000000000001E-002    -1.2058138963766396E-004
  -3.5299999999999998E-002    -1.2783239071723074E-004
  -3.5200000000000002E-002    -1.3537865015678108E-004
  -3.5099999999999999E-002    -1.4323859068099409E-004
  -3.5000000000000003E-002    -1.5143601922318339E-004
  -3.4900000000000000E-002    -1.6000015602912754E-004
  -3.4799999999999998E-002    -1.6896543093025684E-004
  -3.4700000000000002E-002    -1.7837117775343359E-004
  -3.4599999999999999E-002    -1.8826109590008855E-004
  -3.4500000000000003E-002    -1.9868272647727281E-004
  -3.4400000000000000E-002    -2.0968665194232017E-004
  -3.4299999999999997E-002    -2.2132578305900097E-004
  -3.4200000000000001E-002    -2.3365455854218453E-004
  -3.4099999999999998E-002    -2.4672810104675591E-004
  -3.4000000000000002E-002    -2.6060146046802402E-004
  -3.3900000000000000E-002    -2.7532898820936680E-004
  -3.3799999999999997E-002    -2.9096356593072414E-004
  -3.3700000000000001E-002    -3.0755632906220853E-004
  -3.3599999999999998E-002    -3.2515620114281774E-004
  -3.3500000000000002E-002    -3.4380971919745207E-004
  -3.3399999999999999E-002    -3.6356115015223622E-004
  -3.3300000000000003E-002    -3.8445249083451927E-004
  -3.3200000000000000E-002    -4.0652396273799241E-004
  -3.3099999999999997E-002    -4.2981436126865447E-004
  -3.3000000000000002E-002    -4.5436178334057331E-004
  -3.2899999999999999E-002    -4.8020426766015589E-004
  -3.2800000000000003E-002    -5.0738063873723149E-004
  -3.2700000000000000E-002    -5.3593143820762634E-004
  -3.2600000000000004E-002    -5.6589976884424686E-004
  -3.2500000000000001E-002    -5.9733219677582383E-004
  -3.2399999999999998E-002    -6.3027947908267379E-004
  -3.2300000000000002E-002    -6.6479743691161275E-004
  -3.2199999999999999E-002    -7.0094771217554808E-004
  -3.2100000000000004E-002    -7.3879817500710487E-004
  -3.2000000000000001E-002    -7.7842333121225238E-004
  -3.1899999999999998E-002    -8.1990461330860853E-004
  -3.1800000000000002E-002    -8.6333049694076180E-004
  -3.1699999999999999E-002    -9.0879638446494937E-004
  -3.1600000000000003E-002    -9.5640448853373528E-004
  -3.1500000000000000E-002    -1.0062635410577059E-003
  -3.1399999999999997E-002    -1.0584881529211998E-003
  -3.1300000000000001E-002    -1.1131984647363424E-003
  -3.1199999999999999E-002    -1.1705195065587759E-003
  -3.1100000000000003E-002    -1.2305807322263718E-003
  -3.1000000000000000E-002    -1.2935149716213346E-003
  -3.0900000000000000E-002    -1.3594583142548800E-003
  -3.0800000000000001E-002    -1.4285492943599820E-003
  -3.0699999999999998E-002    -1.5009285416454077E-003
  -3.0600000000000002E-002    -1.5767386648803949E-003
  -3.0499999999999999E-002    -1.6561234369874001E-003
  -3.0400000000000000E-002    -1.7392283771187067E-003
  -3.0300000000000001E-002    -1.8262004014104605E-003
  -3.0200000000000001E-002    -1.9171882886439562E-003
  -3.0100000000000002E-002    -2.0123429130762815E-003
  -2.9999999999999999E-002    -2.1118179429322481E-003
  -2.9899999999999999E-002    -2.2157698404043913E-003
  -2.9800000000000000E-002    -2.3243592586368322E-003
  -2.9700000000000001E-002    -2.4377517402172089E-003
  -2.9600000000000001E-002    -2.5561179500073195E-003
  -2.9499999999999998E-002    -2.6796348392963409E-003
  -2.9400000000000003E-002    -2.8084865771234035E-003
  -2.9300000000000000E-002    -2.9428652487695217E-003
  -2.9200000000000000E-002    -3.0829710885882378E-003
  -2.9100000000000001E-002    -3.2290136441588402E-003
  -2.8999999999999998E-002    -3.3812120091170073E-003
  -2.8900000000000002E-002    -3.5397950559854507E-003
  -2.8799999999999999E-002    -3.7050016690045595E-003
  -2.8700000000000000E-002    -3.8770805113017559E-003
  -2.8600000000000000E-002    -4.0562907233834267E-003
  -2.8500000000000001E-002    -4.2429007589817047E-003
  -2.8400000000000002E-002    -4.4371886178851128E-003
  -2.8299999999999999E-002    -4.6394411474466324E-003
  -2.8200000000000003E-002    -4.8499540425837040E-003
  -2.8100000000000000E-002    -5.0690304487943649E-003
  -2.8000000000000001E-002    -5.2969814278185368E-003
  -2.7900000000000001E-002    -5.5341240949928761E-003
  -2.7799999999999998E-002    -5.7807820849120617E-003
  -2.7700000000000002E-002    -6.0372850857675076E-003
  -2.7600000000000000E-002    -6.3039674423635006E-003
  -2.7500000000000000E-002    -6.5811695531010628E-003
  -2.7400000000000001E-002    -6.8692369386553764E-003
  -2.7299999999999998E-002    -7.1685183793306351E-003
  -2.7200000000000002E-002    -7.4793687090277672E-003
  -2.7099999999999999E-002    -7.8021483495831490E-003
  -2.7000000000000000E-002    -8.1372214481234550E-003
  -2.6900000000000000E-002    -8.4849605336785316E-003
  -2.6800000000000001E-002    -8.8457418605685234E-003
  -2.6700000000000002E-002    -9.2199509963393211E-003
  -2.6599999999999999E-002    -9.6079800277948380E-003
  -2.6500000000000003E-002    -1.0010228492319584E-002
  -2.6400000000000000E-002    -1.0427107103168964E-002
  -2.6300000000000000E-002    -1.0859033092856407E-002
  -2.6200000000000001E-002    -1.1306433938443661E-002
  -2.6099999999999998E-002    -1.1769750155508518E-002
  -2.6000000000000002E-002    -1.2249429710209370E-002
  -2.5899999999999999E-002    -1.2745931744575500E-002
  -2.5800000000000000E-002    -1.3259726576507092E-002
  -2.5700000000000001E-002    -1.3791293837130070E-002
  -2.5599999999999998E-002    -1.4341125264763832E-002
  -2.5500000000000002E-002    -1.4909720979630947E-002
  -2.5399999999999999E-002    -1.5497591346502304E-002
  -2.5300000000000000E-002    -1.6105253249406815E-002
  -2.5200000000000000E-002    -1.6733232885599136E-002
  -2.5100000000000001E-002    -1.7382062971591949E-002
  -2.5000000000000001E-002    -1.8052279949188232E-002
  -2.4899999999999999E-002    -1.8744427710771561E-002
  -2.4800000000000003E-002    -1.9459055736660957E-002
  -2.4700000000000000E-002    -2.0196713507175446E-002
  -2.4600000000000000E-002    -2.0957956090569496E-002
  -2.4500000000000001E-002    -2.1743336692452431E-002
  -2.4399999999999998E-002    -2.2553412243723869E-002
  -2.4299999999999999E-002    -2.3388737812638283E-002
  -2.4199999999999999E-002    -2.4249872192740440E-002
  -2.4100000000000000E-002    -2.5137370452284813E-002
  -2.4000000000000000E-002    -2.6051791384816170E-002
  -2.3900000000000001E-002    -2.6993688195943832E-002
  -2.3800000000000002E-002    -2.7963617816567421E-002
  -2.3699999999999999E-002    -2.8962135314941406E-002
  -2.3599999999999999E-002    -2.9989793896675110E-002
  -2.3500000000000000E-002    -3.1047150492668152E-002
  -2.3400000000000001E-002    -3.2134756445884705E-002
  -2.3300000000000001E-002    -3.3253170549869537E-002
  -2.3199999999999998E-002    -3.4402944147586823E-002
  -2.3099999999999999E-002    -3.5584628582000732E-002
  -2.3000000000000000E-002    -3.6798782646656036E-002
  -2.2900000000000000E-002    -3.8045953959226608E-002
  -2.2800000000000001E-002    -3.9326690137386322E-002
  -2.2700000000000001E-002    -4.0641542524099350E-002
  -2.2599999999999999E-002    -4.1991055011749268E-002
  -2.2499999999999999E-002    -4.3375771492719650E-002
  -2.2400000000000000E-002    -4.4796220958232880E-002
  -2.2300000000000000E-002    -4.6252932399511337E-002
  -2.2200000000000001E-002    -4.7746427357196808E-002
  -2.2100000000000002E-002    -4.9277212470769882E-002
  -2.1999999999999999E-002    -5.0845786929130554E-002
  -2.1899999999999999E-002    -5.2452635020017624E-002
  -2.1800000000000000E-002    -5.4098222404718399E-002
  -2.1700000000000001E-002    -5.5783003568649292E-002
  -2.1600000000000001E-002    -5.7507414370775223E-002
  -2.1499999999999998E-002    -5.9271860867738724E-002
  -2.1399999999999999E-002    -6.1076741665601730E-002
  -2.1299999999999999E-002    -6.2922425568103790E-002
  -2.1200000000000000E-002    -6.4809247851371765E-002
  -2.1100000000000001E-002    -6.6737540066242218E-002
  -2.1000000000000001E-002    -6.8707592785358429E-002
  -2.0899999999999998E-002    -7.0719666779041290E-002
  -2.0799999999999999E-002    -7.2774007916450500E-002
  -2.0700000000000000E-002    -7.4870817363262177E-002
  -2.0600000000000000E-002    -7.7010281383991241E-002
  -2.0500000000000001E-002    -7.9192548990249634E-002
  -2.0400000000000001E-002    -8.1417739391326904E-002
  -2.0299999999999999E-002    -8.3685941994190216E-002
  -2.0199999999999999E-002    -8.5997208952903748E-002
  -2.0100000000000000E-002    -8.8351570069789886E-002
  -2.0000000000000000E-002    -9.0749017894268036E-002
  -1.9900000000000001E-002    -9.3189507722854614E-002
  -1.9799999999999998E-002    -9.5672957599163055E-002
  -1.9699999999999999E-002    -9.8199263215065002E-002
  -1.9599999999999999E-002   -0.10076826065778732
  -1.9500000000000000E-002   -0.10337977111339569
  -1.9400000000000001E-002   -0.10603355616331100
  -1.9300000000000001E-002   -0.10872934758663177
  -1.9199999999999998E-002   -0.11146683245897293
  -1.9099999999999999E-002   -0.11424563825130463
  -1.9000000000000000E-002   -0.11706535518169403
  -1.8900000000000000E-002   -0.11992552876472473
  -1.8800000000000001E-002   -0.12282563745975494
  -1.8700000000000001E-002   -0.12576511502265930
  -1.8599999999999998E-002   -0.12874335050582886
  -1.8499999999999999E-002   -0.13175964355468750
  -1.8400000000000000E-002   -0.13481327891349792
  -1.8300000000000000E-002   -0.13790345191955566
  -1.8200000000000001E-002   -0.14102928340435028
  -1.8100000000000002E-002   -0.14418986439704895
  -1.7999999999999999E-002   -0.14738418161869049
  -1.7899999999999999E-002   -0.15061119198799133
  -1.7800000000000000E-002   -0.15386976301670074
  -1.7700000000000000E-002   -0.15715871751308441
  -1.7600000000000001E-002   -0.16047680377960205
  -1.7499999999999998E-002   -0.16382269561290741
  -1.7399999999999999E-002   -0.16719499230384827
  -1.7299999999999999E-002   -0.17059224843978882
  -1.7200000000000000E-002   -0.17401294410228729
  -1.7100000000000001E-002   -0.17745548486709595
  -1.7000000000000001E-002   -0.18091820180416107
  -1.6899999999999998E-002   -0.18439939618110657
  -1.6799999999999999E-002   -0.18789725005626678
  -1.6700000000000000E-002   -0.19140993058681488
  -1.6600000000000000E-002   -0.19493551552295685
  -1.6500000000000001E-002   -0.19847199320793152
  -1.6400000000000001E-002   -0.20201732218265533
  -1.6299999999999999E-002   -0.20556938648223877
  -1.6199999999999999E-002   -0.20912598073482513
  -1.6100000000000000E-002   -0.21268486976623535
  -1.6000000000000000E-002   -0.21624371409416199
  -1.5900000000000001E-002   -0.21980011463165283
  -1.5799999999999998E-002   -0.22335162758827209
  -1.5699999999999999E-002   -0.22689570486545563
  -1.5599999999999999E-002   -0.23042975366115570
  -1.5500000000000000E-002   -0.23395110666751862
  -1.5400000000000000E-002   -0.23745703697204590
  -1.5300000000000001E-002   -0.24094472825527191
  -1.5199999999999998E-002   -0.24441133439540863
  -1.5099999999999999E-002   -0.24785389006137848
  -1.4999999999999999E-002   -0.25126940011978149
  -1.4900000000000000E-002   -0.25465482473373413
  -1.4800000000000001E-002   -0.25800698995590210
  -1.4700000000000001E-002   -0.26132273674011230
  -1.4599999999999998E-002   -0.26459878683090210
  -1.4499999999999999E-002   -0.26783186197280884
  -1.4400000000000000E-002   -0.27101856470108032
  -1.4300000000000000E-002   -0.27415549755096436
  -1.4200000000000001E-002   -0.27723920345306396
  -1.4099999999999998E-002   -0.28026619553565979
  -1.3999999999999999E-002   -0.28323292732238770
  -1.3899999999999999E-002   -0.28613579273223877
  -1.3800000000000000E-002   -0.28897115588188171
  -1.3700000000000000E-002   -0.29173538088798523
  -1.3600000000000001E-002   -0.29442480206489563
  -1.3499999999999998E-002   -0.29703566431999207
  -1.3399999999999999E-002   -0.29956427216529846
  -1.3299999999999999E-002   -0.30200687050819397
  -1.3200000000000000E-002   -0.30435970425605774
  -1.3100000000000001E-002   -0.30661895871162415
  -1.3000000000000001E-002   -0.30878084897994995
  -1.2899999999999998E-002   -0.31084159016609192
  -1.2799999999999999E-002   -0.31279736757278442
  -1.2699999999999999E-002   -0.31464439630508423
  -1.2600000000000000E-002   -0.31637889146804810
  -1.2500000000000001E-002   -0.31799700856208801
  -1.2399999999999998E-002   -0.31949499249458313
  -1.2299999999999998E-002   -0.32086905837059021
  -1.2199999999999999E-002   -0.32211545109748840
  -1.2100000000000000E-002   -0.32323044538497925
  -1.2000000000000000E-002   -0.32421031594276428
  -1.1900000000000001E-002   -0.32505136728286743
  -1.1799999999999998E-002   -0.32574996352195740
  -1.1699999999999999E-002   -0.32630249857902527
  -1.1599999999999999E-002   -0.32670536637306213
  -1.1500000000000000E-002   -0.32695508003234863
  -1.1400000000000000E-002   -0.32704815268516541
  -1.1300000000000001E-002   -0.32698115706443787
  -1.1199999999999998E-002   -0.32675072550773621
  -1.1099999999999999E-002   -0.32635360956192017
  -1.0999999999999999E-002   -0.32578656077384949
  -1.0900000000000000E-002   -0.32504647970199585
  -1.0800000000000001E-002   -0.32413029670715332
  -1.0699999999999998E-002   -0.32303506135940552
  -1.0599999999999998E-002   -0.32175788283348083
  -1.0499999999999999E-002   -0.32029601931571960
  -1.0400000000000000E-002   -0.31864681839942932
  -1.0300000000000000E-002   -0.31680771708488464
  -1.0200000000000001E-002   -0.31477630138397217
  -1.0099999999999998E-002   -0.31255027651786804
  -9.9999999999999985E-003   -0.31012740731239319
  -9.8999999999999991E-003   -0.30750563740730286
  -9.7999999999999997E-003   -0.30468305945396423
  -9.7000000000000003E-003   -0.30165788531303406
  -9.6000000000000009E-003   -0.29842844605445862
  -9.4999999999999980E-003   -0.29499325156211853
  -9.3999999999999986E-003   -0.29135093092918396
  -9.2999999999999992E-003   -0.28750029206275940
  -9.1999999999999998E-003   -0.28344026207923889
  -9.1000000000000004E-003   -0.27916994690895081
  -9.0000000000000011E-003   -0.27468857169151306
  -8.8999999999999982E-003   -0.26999559998512268
  -8.7999999999999988E-003   -0.26509061455726624
  -8.6999999999999994E-003   -0.25997334718704224
  -8.5999999999999965E-003   -0.25464373826980591
  -8.5000000000000006E-003   -0.24910189211368561
  -8.3999999999999977E-003   -0.24334809184074402
  -8.3000000000000018E-003   -0.23738281428813934
  -8.1999999999999990E-003   -0.23120670020580292
  -8.0999999999999961E-003   -0.22482058405876160
  -8.0000000000000002E-003   -0.21822549402713776
  -7.8999999999999973E-003   -0.21142265200614929
  -7.8000000000000014E-003   -0.20441348850727081
  -7.6999999999999985E-003   -0.19719959795475006
  -7.6000000000000026E-003   -0.18978279829025269
  -7.4999999999999997E-003   -0.18216510117053986
  -7.3999999999999969E-003   -0.17434871196746826
  -7.3000000000000009E-003   -0.16633604466915131
  -7.1999999999999981E-003   -0.15812972187995911
  -7.1000000000000021E-003   -0.14973254501819611
  -6.9999999999999993E-003   -0.14114755392074585
  -6.8999999999999964E-003   -0.13237795233726501
  -6.8000000000000005E-003   -0.12342716753482819
  -6.6999999999999976E-003   -0.11429882794618607
  -6.6000000000000017E-003   -0.10499674081802368
  -6.4999999999999988E-003    -9.5524929463863373E-002
  -6.3999999999999960E-003    -8.5887596011161804E-002
  -6.3000000000000000E-003    -7.6089136302471161E-002
  -6.1999999999999972E-003    -6.6134147346019745E-002
  -6.1000000000000013E-003    -5.6027393788099289E-002
  -5.9999999999999984E-003    -4.5773833990097046E-002
  -5.9000000000000025E-003    -3.5378597676753998E-002
  -5.7999999999999996E-003    -2.4846997112035751E-002
  -5.6999999999999967E-003    -1.4184514991939068E-002
  -5.6000000000000008E-003    -3.3968011848628521E-003
  -5.4999999999999979E-003     7.5103295966982841E-003
  -5.4000000000000020E-003     1.8530903384089470E-002
  -5.2999999999999992E-003     2.9658783227205276E-002
  -5.1999999999999963E-003     4.0887687355279922E-002
  -5.1000000000000004E-003     5.2211184054613113E-002
  -4.9999999999999975E-003     6.3622690737247467E-002
  -4.9000000000000016E-003     7.5115501880645752E-002
  -4.7999999999999987E-003     8.6682759225368500E-002
  -4.6999999999999958E-003     9.8317481577396393E-002
  -4.5999999999999999E-003    0.11001256853342056
  -4.4999999999999971E-003    0.12176080793142319
  -4.4000000000000011E-003    0.13355486094951630
  -4.2999999999999983E-003    0.14538729190826416
  -4.2000000000000023E-003    0.15725056827068329
  -4.0999999999999995E-003    0.16913704574108124
  -3.9999999999999966E-003    0.18103902041912079
  -3.9000000000000007E-003    0.19294868409633636
  -3.7999999999999978E-003    0.20485816895961761
  -3.7000000000000019E-003    0.21675956249237061
  -3.5999999999999990E-003    0.22864487767219543
  -3.4999999999999962E-003    0.24050608277320862
  -3.4000000000000002E-003    0.25233510136604309
  -3.2999999999999974E-003    0.26412382721900940
  -3.2000000000000015E-003    0.27586415410041809
  -3.0999999999999986E-003    0.28754794597625732
  -2.9999999999999957E-003    0.29916706681251526
  -2.8999999999999998E-003    0.31071335077285767
  -2.7999999999999969E-003    0.32217872142791748
  -2.7000000000000010E-003    0.33355504274368286
  -2.5999999999999981E-003    0.34483423829078674
  -2.5000000000000022E-003    0.35600829124450684
  -2.3999999999999994E-003    0.36706921458244324
  -2.2999999999999965E-003    0.37800905108451843
  -2.2000000000000006E-003    0.38881990313529968
  -2.0999999999999977E-003    0.39949402213096619
  -2.0000000000000018E-003    0.41002362966537476
  -1.8999999999999989E-003    0.42040112614631653
  -1.7999999999999960E-003    0.43061894178390503
  -1.7000000000000001E-003    0.44066962599754333
  -1.5999999999999973E-003    0.45054584741592407
  -1.5000000000000013E-003    0.46024039387702942
  -1.3999999999999985E-003    0.46974614262580872
  -1.2999999999999956E-003    0.47905611991882324
  -1.1999999999999997E-003    0.48816350102424622
  -1.0999999999999968E-003    0.49706158041954041
  -1.0000000000000009E-003    0.50574380159378052
  -8.9999999999999802E-004    0.51420384645462036
  -8.0000000000000210E-004    0.52243548631668091
  -6.9999999999999923E-004    0.53043264150619507
  -5.9999999999999637E-004    0.53818947076797485
  -5.0000000000000044E-004    0.54570025205612183
  -3.9999999999999758E-004    0.55295956134796143
  -3.0000000000000165E-004    0.55996209383010864
  -1.9999999999999879E-004    0.56670272350311279
  -9.9999999999995925E-005    0.57317668199539185
   0.0000000000000000         0.57937932014465332
   1.0000000000000286E-004    0.58530616760253906
   1.9999999999999879E-004    0.59095299243927002
   3.0000000000000165E-004    0.59631586074829102
   4.0000000000000452E-004    0.60139107704162598
   5.0000000000000044E-004    0.60617506504058838
   6.0000000000000331E-004    0.61066466569900513
   6.9999999999999923E-004    0.61485683917999268
   8.0000000000000210E-004    0.61874890327453613
   8.9999999999999802E-004    0.62233829498291016
   1.0000000000000009E-003    0.62562280893325806
   1.1000000000000038E-003    0.62860047817230225
   1.1999999999999997E-003    0.63126951456069946
   1.3000000000000025E-003    0.63362854719161987
   1.3999999999999985E-003    0.63567632436752319
   1.5000000000000013E-003    0.63741189241409302
   1.6000000000000042E-003    0.63883453607559204
   1.7000000000000001E-003    0.63994395732879639
   1.8000000000000030E-003    0.64073991775512695
   1.8999999999999989E-003    0.64122247695922852
   2.0000000000000018E-003    0.64139205217361450
   2.1000000000000046E-003    0.64124917984008789
   2.2000000000000006E-003    0.64079487323760986
   2.3000000000000034E-003    0.64003014564514160
   2.3999999999999994E-003    0.63895642757415771
   2.5000000000000022E-003    0.63757532835006714
   2.5999999999999981E-003    0.63588869571685791
   2.7000000000000010E-003    0.63389873504638672
   2.8000000000000039E-003    0.63160783052444458
   2.8999999999999998E-003    0.62901854515075684
   3.0000000000000027E-003    0.62613379955291748
   3.0999999999999986E-003    0.62295669317245483
   3.2000000000000015E-003    0.61949050426483154
   3.3000000000000043E-003    0.61573886871337891
   3.4000000000000002E-003    0.61170554161071777
   3.5000000000000031E-003    0.60739451646804810
   3.5999999999999990E-003    0.60281002521514893
   3.7000000000000019E-003    0.59795647859573364
   3.7999999999999978E-003    0.59283852577209473
   3.9000000000000007E-003    0.58746105432510376
   4.0000000000000036E-003    0.58182907104492188
   4.0999999999999995E-003    0.57594782114028931
   4.2000000000000023E-003    0.56982260942459106
   4.2999999999999983E-003    0.56345909833908081
   4.4000000000000011E-003    0.55686300992965698
   4.5000000000000040E-003    0.55004018545150757
   4.5999999999999999E-003    0.54299670457839966
   4.7000000000000028E-003    0.53573876619338989
   4.7999999999999987E-003    0.52827262878417969
   4.9000000000000016E-003    0.52060478925704956
   5.0000000000000044E-003    0.51274186372756958
   5.1000000000000004E-003    0.50469046831130981
   5.2000000000000032E-003    0.49645745754241943
   5.2999999999999992E-003    0.48804968595504761
   5.4000000000000020E-003    0.47947412729263306
   5.4999999999999979E-003    0.47073787450790405
   5.6000000000000008E-003    0.46184808015823364
   5.7000000000000037E-003    0.45281192660331726
   5.7999999999999996E-003    0.44363665580749512
   5.9000000000000025E-003    0.43432962894439697
   5.9999999999999984E-003    0.42489820718765259
   6.1000000000000013E-003    0.41534978151321411
   6.2000000000000041E-003    0.40569180250167847
   6.3000000000000000E-003    0.39593175053596497
   6.4000000000000029E-003    0.38607710599899292
   6.4999999999999988E-003    0.37613531947135925
   6.6000000000000017E-003    0.36611390113830566
   6.7000000000000046E-003    0.35602036118507385
   6.8000000000000005E-003    0.34586215019226074
   6.9000000000000034E-003    0.33564671874046326
   6.9999999999999993E-003    0.32538148760795593
   7.1000000000000021E-003    0.31507387757301331
   7.1999999999999981E-003    0.30473119020462036
   7.3000000000000009E-003    0.29436072707176208
   7.4000000000000038E-003    0.28396975994110107
   7.4999999999999997E-003    0.27356544137001038
   7.6000000000000026E-003    0.26315486431121826
   7.6999999999999985E-003    0.25274506211280823
   7.8000000000000014E-003    0.24234297871589661
   7.9000000000000042E-003    0.23195546865463257
   8.0000000000000002E-003    0.22158926725387573
   8.1000000000000030E-003    0.21125102043151855
   8.1999999999999990E-003    0.20094725489616394
   8.3000000000000018E-003    0.19068442285060883
   8.4000000000000047E-003    0.18046879768371582
   8.5000000000000006E-003    0.17030657827854156
   8.6000000000000035E-003    0.16020381450653076
   8.6999999999999994E-003    0.15016640722751617
   8.8000000000000023E-003    0.14020013809204102
   8.8999999999999982E-003    0.13031063973903656
   9.0000000000000011E-003    0.12050341814756393
   9.1000000000000039E-003    0.11078382283449173
   9.1999999999999998E-003    0.10115703940391541
   9.3000000000000027E-003     9.1628111898899078E-002
   9.3999999999999986E-003     8.2201927900314331E-002
   9.5000000000000015E-003     7.2883211076259613E-002
   9.6000000000000044E-003     6.3676536083221436E-002
   9.7000000000000003E-003     5.4586302489042282E-002
   9.8000000000000032E-003     4.5616757124662399E-002
   9.8999999999999991E-003     3.6771975457668304E-002
   1.0000000000000002E-002     2.8055865317583084E-002
   1.0100000000000005E-002     1.9472165033221245E-002
   1.0200000000000001E-002     1.1024441570043564E-002
   1.0300000000000004E-002     2.7160902973264456E-003
   1.0400000000000000E-002    -5.4496675729751587E-003
   1.0500000000000002E-002    -1.3469784520566463E-002
   1.0599999999999998E-002    -2.1341389045119286E-002
   1.0700000000000001E-002    -2.9061786830425262E-002
   1.0800000000000004E-002    -3.6628458648920059E-002
   1.0900000000000000E-002    -4.4039059430360794E-002
   1.1000000000000003E-002    -5.1291421055793762E-002
   1.1099999999999999E-002    -5.8383550494909286E-002
   1.1200000000000002E-002    -6.5313629806041718E-002
   1.1300000000000004E-002    -7.2080023586750031E-002
   1.1400000000000000E-002    -7.8681260347366333E-002
   1.1500000000000003E-002    -8.5116036236286163E-002
   1.1599999999999999E-002    -9.1383233666419983E-002
   1.1700000000000002E-002    -9.7481884062290192E-002
   1.1800000000000005E-002   -0.10341119766235352
   1.1900000000000001E-002   -0.10917053371667862
   1.2000000000000004E-002   -0.11475941538810730
   1.2100000000000000E-002   -0.12017753720283508
   1.2200000000000003E-002   -0.12542474269866943
   1.2299999999999998E-002   -0.13050100207328796
   1.2400000000000001E-002   -0.13540646433830261
   1.2500000000000004E-002   -0.14014141261577606
   1.2600000000000000E-002   -0.14470627903938293
   1.2700000000000003E-002   -0.14910158514976501
   1.2799999999999999E-002   -0.15332806110382080
   1.2900000000000002E-002   -0.15738651156425476
   1.3000000000000005E-002   -0.16127789020538330
   1.3100000000000001E-002   -0.16500326991081238
   1.3200000000000003E-002   -0.16856384277343750
   1.3299999999999999E-002   -0.17196092009544373
   1.3400000000000002E-002   -0.17519593238830566
   1.3500000000000005E-002   -0.17827038466930389
   1.3600000000000001E-002   -0.18118593096733093
   1.3700000000000004E-002   -0.18394431471824646
   1.3800000000000000E-002   -0.18654736876487732
   1.3900000000000003E-002   -0.18899703025817871
   1.3999999999999999E-002   -0.19129531085491180
   1.4100000000000001E-002   -0.19344432651996613
   1.4200000000000004E-002   -0.19544626772403717
   1.4300000000000000E-002   -0.19730342924594879
   1.4400000000000003E-002   -0.19901813566684723
   1.4499999999999999E-002   -0.20059283077716827
   1.4600000000000002E-002   -0.20202997326850891
   1.4700000000000005E-002   -0.20333214104175568
   1.4800000000000001E-002   -0.20450192689895630
   1.4900000000000004E-002   -0.20554201304912567
   1.4999999999999999E-002   -0.20645511150360107
   1.5100000000000002E-002   -0.20724397897720337
   1.5200000000000005E-002   -0.20791143178939819
   1.5300000000000001E-002   -0.20846028625965118
   1.5400000000000004E-002   -0.20889341831207275
   1.5500000000000000E-002   -0.20921371877193451
   1.5600000000000003E-002   -0.20942412316799164
   1.5699999999999999E-002   -0.20952758193016052
   1.5800000000000002E-002   -0.20952703058719635
   1.5900000000000004E-002   -0.20942546427249908
   1.6000000000000000E-002   -0.20922584831714630
   1.6100000000000003E-002   -0.20893117785453796
   1.6199999999999999E-002   -0.20854443311691284
   1.6300000000000002E-002   -0.20806860923767090
   1.6400000000000005E-002   -0.20750667154788971
   1.6500000000000001E-002   -0.20686158537864685
   1.6600000000000004E-002   -0.20613633096218109
   1.6700000000000000E-002   -0.20533385872840881
   1.6800000000000002E-002   -0.20445708930492401
   1.6900000000000005E-002   -0.20350894331932068
   1.7000000000000001E-002   -0.20249231159687042
   1.7100000000000004E-002   -0.20141008496284485
   1.7200000000000000E-002   -0.20026509463787079
   1.7300000000000003E-002   -0.19906017184257507
   1.7399999999999999E-002   -0.19779811799526215