  -4.0000000000000001E-002     0.0000000000000000
  -3.9899999999999998E-002     0.0000000000000000
  -3.9800000000000002E-002     0.0000000000000000
  -3.9699999999999999E-002    -9.3507494145534141E-017
  -3.9600000000000003E-002     5.6803141173616652E-016
  -3.9500000000000000E-002     1.0505886228857832E-015
  -3.9399999999999998E-002    -2.3999579535201538E-015
  -3.9300000000000002E-002     1.3286582104037005E-015
  -3.9199999999999999E-002     1.8019214795945114E-014
  -3.9100000000000003E-002     4.2505028088803826E-014
  -3.9000000000000000E-002     8.4506857620566395E-014
  -3.8900000000000004E-002    -3.1511598885813896E-013
  -3.8800000000000001E-002     3.9837298499052765E-013
  -3.8699999999999998E-002    -1.8028639562142623E-013
  -3.8600000000000002E-002     4.8890817609670290E-013
  -3.8500000000000000E-002    -1.1497991144263087E-013
  -3.8400000000000004E-002     8.9458212430663930E-014
  -3.8300000000000001E-002     4.6286704937642531E-013
  -3.8199999999999998E-002     2.6940507658924917E-013
  -3.8100000000000002E-002    -2.3737755467864718E-013
  -3.7999999999999999E-002     2.8869840003852010E-013
  -3.7900000000000003E-002     1.0296482633523341E-012
  -3.7800000000000000E-002     1.7951176027423965E-013
  -3.7699999999999997E-002    -4.0215855819092372E-012
  -3.7600000000000001E-002    -5.2053630503201553E-013
  -3.7499999999999999E-002    -4.3700685431469211E-012
  -3.7400000000000003E-002     3.1879182453564692E-012
  -3.7300000000000000E-002     5.6199771399090270E-013
  -3.7200000000000004E-002    -4.8069339307621473E-012
  -3.7100000000000001E-002     1.8908091238556413E-012
  -3.6999999999999998E-002    -2.9258143217220089E-012
  -3.6900000000000002E-002    -2.5730227410508677E-012
  -3.6799999999999999E-002    -2.1261271822975436E-012
  -3.6700000000000003E-002     1.8918923719302150E-011
  -3.6600000000000001E-002     4.6010736887147630E-011
  -3.6499999999999998E-002    -1.4402533853041799E-011
  -3.6400000000000002E-002    -2.7027620592978696E-012
  -3.6299999999999999E-002     7.0869313022192681E-012
  -3.6200000000000003E-002    -7.1713156246655529E-012
  -3.6100000000000000E-002    -3.6965527860921554E-011
  -3.6000000000000004E-002    -5.7537374170690825E-011
  -3.5900000000000001E-002    -1.8015800656856484E-011
  -3.5799999999999998E-002    -3.6020256222180080E-011
  -3.5700000000000003E-002    -1.3847463974092644E-011
  -3.5600000000000000E-002    -1.4424236111088007E-011
  -3.5500000000000004E-002    -3.2019567552943329E-011
  -3.5400000000000001E-002     1.0017748783286429E-011
  -3.5299999999999998E-002    -6.8532124419817819E-011
  -3.5200000000000002E-002    -9.0652381434797036E-011
  -3.5099999999999999E-002    -5.4153286022096125E-011
  -3.5000000000000003E-002    -7.9457426749307558E-011
  -3.4900000000000000E-002    -4.5452551444835620E-011
  -3.4799999999999998E-002    -3.4069538856762449E-011
  -3.4700000000000002E-002    -2.1973161137833763E-011
  -3.4599999999999999E-002     1.4326873021275333E-010
  -3.4500000000000003E-002     1.7594160850453733E-010
  -3.4400000000000000E-002     1.8105132670864776E-010
  -3.4299999999999997E-002     1.8151836977953195E-010
  -3.4200000000000001E-002     2.6162128019535658E-010
  -3.4099999999999998E-002     4.0614667184968312E-010
  -3.4000000000000002E-002     2.3680993277430673E-010
  -3.3900000000000000E-002     4.6088124983079126E-010
  -3.3799999999999997E-002     4.0968242687178247E-010
  -3.3700000000000001E-002     4.5280959537485899E-010
  -3.3599999999999998E-002     3.7527295160266760E-010
  -3.3500000000000002E-002     2.7120122814139336E-010
  -3.3399999999999999E-002     1.9524754035771252E-010
  -3.3300000000000003E-002     4.1937142647441306E-010
  -3.3200000000000000E-002    -1.3262865632135412E-011
  -3.3099999999999997E-002     7.0451998401832583E-011
  -3.3000000000000002E-002    -8.3800834327352192E-011
  -3.2899999999999999E-002    -3.3306768454366420E-010
  -3.2800000000000003E-002    -3.4389605052531635E-010
  -3.2700000000000000E-002    -4.8567866395288206E-010
  -3.2600000000000004E-002    -7.2789341221124459E-010
  -3.2500000000000001E-002    -4.5658038461127148E-010
  -3.2399999999999998E-002    -1.3752035066261215E-009
  -3.2300000000000002E-002    -1.0932476035563354E-009
  -3.2199999999999999E-002    -1.0206887557373534E-009
  -3.2100000000000004E-002    -1.0226566260485015E-009
  -3.2000000000000001E-002    -1.2314825825754383E-009
  -3.1899999999999998E-002    -1.2380872993489334E-009
  -3.1800000000000002E-002    -9.6229968438166225E-010
  -3.1699999999999999E-002    -5.7408666709335421E-010
  -3.1600000000000003E-002    -1.9462126354952147E-010
  -3.1500000000000000E-002    -1.6654003176519439E-010
  -3.1399999999999997E-002     3.8084768672064229E-010
  -3.1300000000000001E-002     5.1937742995278313E-010
  -3.1199999999999999E-002     7.4754069601112860E-010
  -3.1100000000000003E-002     1.1458606286041118E-009
  -3.1000000000000000E-002     1.1442810032846751E-009
  -3.0900000000000000E-002     1.5093625238549180E-009
  -3.0800000000000001E-002     1.9791339678221220E-009
  -3.0699999999999998E-002     2.1263693028572561E-009
  -3.0600000000000002E-002     2.4076878268886048E-009
  -3.0499999999999999E-002     2.3707724672306085E-009
  -3.0400000000000000E-002     3.1075291229143431E-009
  -3.0300000000000001E-002     2.7874849095610443E-009
  -3.0200000000000001E-002     3.1340894324216606E-009
  -3.0100000000000002E-002     3.9218979175359436E-009
  -2.9999999999999999E-002     3.5824256894301243E-009
  -2.9899999999999999E-002     2.8396809348407714E-009
  -2.9800000000000000E-002     4.1580281440189992E-009
  -2.9700000000000001E-002     2.7050395257077753E-009
  -2.9600000000000001E-002     3.0233535674994982E-009
  -2.9499999999999998E-002     2.9374020993344629E-009
  -2.9400000000000003E-002     2.1348367518214673E-009
  -2.9300000000000000E-002     2.2165678181806925E-009
  -2.9200000000000000E-002     9.4289398511193667E-010
  -2.9100000000000001E-002    -5.1089538155579817E-010
  -2.8999999999999998E-002     7.5228667739679622E-010
  -2.8900000000000002E-002    -1.1132419430737173E-009
  -2.8799999999999999E-002    -3.4851941332902925E-009
  -2.8700000000000000E-002    -4.6831347688680580E-009
  -2.8600000000000000E-002    -4.8687018860960052E-009
  -2.8500000000000001E-002    -6.6352630057053830E-009
  -2.8400000000000002E-002    -7.5152533085542927E-009
  -2.8299999999999999E-002    -7.3636812203403679E-009
  -2.8200000000000003E-002    -9.7025347756130031E-009
  -2.8100000000000000E-002    -8.4263236388437690E-009
  -2.8000000000000001E-002    -9.5324734772361808E-009
  -2.7900000000000001E-002    -1.0782973625111936E-008
  -2.7799999999999998E-002    -1.1225133711434410E-008
  -2.7700000000000002E-002    -9.4704164510517330E-009
  -2.7600000000000000E-002    -9.3326857353304149E-009
  -2.7500000000000000E-002    -8.7172757901043951E-009
  -2.7400000000000001E-002    -8.3754239099675942E-009
  -2.7299999999999998E-002    -6.1732272627068596E-009
  -2.7200000000000002E-002    -6.0846021554539220E-009
  -2.7099999999999999E-002    -4.0068912632307274E-009
  -2.7000000000000000E-002    -2.4013955268742393E-009
  -2.6900000000000000E-002     1.2350173106412399E-009
  -2.6800000000000001E-002     3.0339157852665721E-009
  -2.6700000000000002E-002     8.4309510484104067E-009
  -2.6599999999999999E-002     8.6541795951688982E-009
  -2.6500000000000003E-002     1.4728585462364663E-008
  -2.6400000000000000E-002     1.8819786617996215E-008
  -2.6300000000000000E-002     2.4598870496106429E-008
  -2.6200000000000001E-002     1.8902312604041072E-008
  -2.6099999999999998E-002     2.7104629651830692E-008
  -2.6000000000000002E-002     2.9479972241119867E-008
  -2.5899999999999999E-002     2.9099851417413447E-008
  -2.5800000000000000E-002     3.2704679853168273E-008
  -2.5700000000000001E-002     4.0886284580210486E-008
  -2.5599999999999998E-002     2.8385233719063763E-008
  -2.5500000000000002E-002     2.6320245538613563E-008
  -2.5399999999999999E-002     2.6478167214349924E-008
  -2.5300000000000000E-002     1.4797641334496348E-008
  -2.5200000000000000E-002     1.5357780824842848E-008
  -2.5100000000000001E-002     1.0526624016904407E-008
  -2.5000000000000001E-002     8.3819005070040475E-009
  -2.4899999999999999E-002    -1.3019413103165789E-008
  -2.4800000000000003E-002    -1.7061529078432613E-008
  -2.4700000000000000E-002    -4.1177759868560315E-008
  -2.4600000000000000E-002    -4.7533852409742394E-008
  -2.4500000000000001E-002    -6.2951151846846187E-008
  -2.4399999999999998E-002    -8.4606320172042615E-008
  -2.4299999999999999E-002    -9.3632685604916333E-008
  -2.4199999999999999E-002    -9.9179160883977602E-008
  -2.4100000000000000E-002    -1.2282973216315440E-007
  -2.4000000000000000E-002    -1.2302091079163802E-007
  -2.3900000000000001E-002    -1.4599410746996000E-007
  -2.3800000000000002E-002    -1.3720138269945892E-007
  -2.3699999999999999E-002    -1.3210605231961381E-007
  -2.3599999999999999E-002    -1.3773333762401307E-007
  -2.3500000000000000E-002    -1.3449974289869715E-007
  -2.3400000000000001E-002    -1.1685081346968218E-007
  -2.3300000000000001E-002    -9.6668124172083481E-008
  -2.3199999999999998E-002    -8.7163492423769640E-008
  -2.3099999999999999E-002    -6.5238374702403235E-008
  -2.3000000000000000E-002    -4.7999119345831787E-008
  -2.2900000000000000E-002    -8.2381843569123703E-009
  -2.2800000000000001E-002     2.5484494514671496E-008
  -2.2700000000000001E-002     7.0987027811497683E-008
  -2.2599999999999999E-002     9.3383903276844649E-008
  -2.2499999999999999E-002     1.1434438818014314E-007
  -2.2400000000000000E-002     1.3539896315251099E-007
  -2.2300000000000000E-002     2.1836527253071836E-007
  -2.2200000000000001E-002     2.1805615801895328E-007
  -2.2100000000000002E-002     2.7171608962817118E-007
  -2.1999999999999999E-002     3.1050063853399479E-007
  -2.1899999999999999E-002     3.3144885946967406E-007
  -2.1800000000000000E-002     3.4632893175512436E-007
  -2.1700000000000001E-002     3.3727852155607252E-007
  -2.1600000000000001E-002     3.6871614383926499E-007
  -2.1499999999999998E-002     3.5477148685458815E-007
  -2.1399999999999999E-002     3.4934643622364092E-007
  -2.1299999999999999E-002     2.7768416543949570E-007
  -2.1200000000000000E-002     2.5749017140697106E-007
  -2.1100000000000001E-002     2.4141684207279468E-007
  -2.1000000000000001E-002     1.9363609737865772E-007
  -2.0899999999999998E-002     1.4467653386418533E-007
  -2.0799999999999999E-002     8.1889474756735581E-008
  -2.0700000000000000E-002     2.3317090480645675E-008
  -2.0600000000000000E-002     3.4142704663508994E-008
  -2.0500000000000001E-002    -1.6699424065791391E-008
  -2.0400000000000001E-002    -1.4620503918649774E-007
  -2.0299999999999999E-002    -1.9069779000346898E-007
  -2.0199999999999999E-002    -2.2109578878826142E-007
  -2.0100000000000000E-002    -2.9347617669372994E-007
  -2.0000000000000000E-002    -3.6299704220255080E-007
  -1.9900000000000001E-002    -3.7868005620111944E-007
  -1.9799999999999998E-002    -4.4951229938305914E-007
  -1.9699999999999999E-002    -5.1291391400809516E-007
  -1.9599999999999999E-002    -4.3575153085839702E-007
  -1.9500000000000000E-002    -4.4600042770071013E-007
  -1.9400000000000001E-002    -4.8505108907193062E-007
  -1.9300000000000001E-002    -4.5577812102237658E-007
  -1.9199999999999998E-002    -6.1179974863989628E-007
  -1.9099999999999999E-002    -5.6475352039342397E-007
  -1.9000000000000000E-002    -6.3834073671387159E-007
  -1.8900000000000000E-002    -5.7338684200658463E-007
  -1.8800000000000001E-002    -6.2994206473376835E-007
  -1.8700000000000001E-002    -5.8190630625176709E-007
  -1.8599999999999998E-002    -4.8619585868436843E-007
  -1.8499999999999999E-002    -5.4003368177291122E-007
  -1.8400000000000000E-002    -3.9548152130919334E-007
  -1.8300000000000000E-002    -3.6092856703362486E-007
  -1.8200000000000001E-002    -4.5277189997250389E-007
  -1.8100000000000002E-002    -5.4860942100276588E-007
  -1.7999999999999999E-002    -4.8389466655862634E-007
  -1.7899999999999999E-002    -4.4310468183539342E-007
  -1.7800000000000000E-002    -3.0206945211830316E-007
  -1.7700000000000000E-002    -3.0578377163692494E-007
  -1.7600000000000001E-002    -2.7879301001121348E-007
  -1.7499999999999998E-002    -3.6691551486001117E-007
  -1.7399999999999999E-002    -3.6301184991316404E-007
  -1.7299999999999999E-002    -2.1473473665878373E-008
  -1.7200000000000000E-002    -2.9257347478051088E-007
  -1.7100000000000001E-002    -6.3183756005003033E-009
  -1.7000000000000001E-002     2.0704328562715091E-007
  -1.6899999999999998E-002     2.6018580001618830E-007
  -1.6799999999999999E-002     4.6378232809729525E-007
  -1.6700000000000000E-002     9.1427637016749941E-007
  -1.6600000000000000E-002     1.0748935892479494E-006
  -1.6500000000000001E-002     1.2506993698480073E-006
  -1.6400000000000001E-002     1.5611751678079600E-006
  -1.6299999999999999E-002     1.9976980638602981E-006
  -1.6199999999999999E-002     2.3198883809527615E-006
  -1.6100000000000000E-002     2.3205357138067484E-006
  -1.6000000000000000E-002     2.4552336981287226E-006
  -1.5900000000000001E-002     2.6907175652013393E-006
  -1.5799999999999998E-002     3.1711072097095894E-006
  -1.5699999999999999E-002     3.0624282771896105E-006
  -1.5599999999999999E-002     3.2453401672682958E-006
  -1.5500000000000000E-002     3.1151737402979052E-006
  -1.5400000000000000E-002     3.2144023407454370E-006
  -1.5300000000000001E-002     2.7193689220439410E-006
  -1.5199999999999998E-002     2.6908999188890448E-006
  -1.5099999999999999E-002     1.9832652924378635E-006
  -1.4999999999999999E-002     1.6095183354991605E-006
  -1.4900000000000000E-002     7.7926642916281708E-007
  -1.4800000000000001E-002     1.4890773059050844E-007
  -1.4700000000000001E-002    -8.9338544739803183E-007
  -1.4599999999999998E-002    -1.4359484339365736E-006
  -1.4499999999999999E-002    -2.1977457436150871E-006
  -1.4400000000000000E-002    -3.0093528948782478E-006
  -1.4300000000000000E-002    -4.2925357774947770E-006
  -1.4200000000000001E-002    -4.9493382903165184E-006
  -1.4099999999999998E-002    -6.0718698478012811E-006
  -1.3999999999999999E-002    -7.4760055213118903E-006
  -1.3899999999999999E-002    -7.5157531682634726E-006
  -1.3800000000000000E-002    -8.5783040049136616E-006
  -1.3700000000000000E-002    -8.4146031440468505E-006
  -1.3600000000000001E-002    -8.9619925347506069E-006
  -1.3499999999999998E-002    -9.6588682936271653E-006
  -1.3399999999999999E-002    -8.9649647634360008E-006
  -1.3299999999999999E-002    -7.9895426097209565E-006
  -1.3200000000000000E-002    -8.0649979281588458E-006
  -1.3100000000000001E-002    -8.0715162766864523E-006
  -1.3000000000000001E-002    -6.8730751081602648E-006
  -1.2899999999999998E-002    -4.8620449888403527E-006
  -1.2799999999999999E-002    -1.8541157942308928E-006
  -1.2699999999999999E-002     6.1892660596640781E-007
  -1.2600000000000000E-002     3.6961187106498983E-006
  -1.2500000000000001E-002     4.8479796532774344E-006
  -1.2399999999999998E-002     7.3318101385666523E-006
  -1.2299999999999998E-002     1.0092999218613841E-005
  -1.2199999999999999E-002     1.1573378287721425E-005
  -1.2100000000000000E-002     1.4032930266694166E-005
  -1.2000000000000000E-002     1.7243997717741877E-005
  -1.1900000000000001E-002     1.8439268387737684E-005
  -1.1799999999999998E-002     1.8394059225101955E-005
  -1.1699999999999999E-002     1.9451652406132780E-005
  -1.1599999999999999E-002     2.1018786355853081E-005
  -1.1500000000000000E-002     2.1765707060694695E-005
  -1.1400000000000000E-002     2.1200166884227656E-005
  -1.1300000000000001E-002     2.0649666112149134E-005
  -1.1199999999999998E-002     1.8294458641321398E-005
  -1.1099999999999999E-002     1.5540446838713251E-005
  -1.0999999999999999E-002     1.1653402907541022E-005
  -1.0900000000000000E-002     6.3853221945464611E-006
  -1.0800000000000001E-002    -1.2960781248239073E-007
  -1.0699999999999998E-002    -5.6698436310398392E-006
  -1.0599999999999998E-002    -1.2165940461272839E-005
  -1.0499999999999999E-002    -2.1203952201176435E-005
  -1.0400000000000000E-002    -2.3101676561054774E-005
  -1.0300000000000000E-002    -3.2979442039504647E-005
  -1.0200000000000001E-002    -4.5362929085968062E-005
  -1.0099999999999998E-002    -5.0036222091875970E-005
  -9.9999999999999985E-003    -5.4089847253635526E-005
  -9.8999999999999991E-003    -5.6816708820406348E-005
  -9.7999999999999997E-003    -5.8133889979217201E-005
  -9.7000000000000003E-003    -6.1334118072409183E-005
  -9.6000000000000009E-003    -5.7430217566434294E-005
  -9.4999999999999980E-003    -5.8230201830156147E-005
  -9.3999999999999986E-003    -5.6721928558545187E-005
  -9.2999999999999992E-003    -4.6642577217426151E-005
  -9.1999999999999998E-003    -4.5218683226266876E-005
  -9.1000000000000004E-003    -4.0667870052857324E-005
  -9.0000000000000011E-003    -3.7594538298435509E-005
  -8.8999999999999982E-003    -2.4428882170468569E-005
  -8.7999999999999988E-003    -1.8858791008824483E-005
  -8.6999999999999994E-003    -9.8677764981403016E-006
  -8.5999999999999965E-003     2.0511627099040197E-006
  -8.5000000000000006E-003     1.0680436389520764E-005
  -8.3999999999999977E-003     2.7203881472814828E-005
  -8.3000000000000018E-003     3.6035304219694808E-005
  -8.1999999999999990E-003     4.1990184399764985E-005
  -8.0999999999999961E-003     5.8525911299511790E-005
  -8.0000000000000002E-003     6.2689854530617595E-005
  -7.8999999999999973E-003     8.2470258348621428E-005
  -7.8000000000000014E-003     8.9333130745217204E-005
  -7.6999999999999985E-003     9.4778915809001774E-005
  -7.6000000000000026E-003     1.0892403224715963E-004
  -7.4999999999999997E-003     1.1782866204157472E-004
  -7.3999999999999969E-003     1.2742695980705321E-004
  -7.3000000000000009E-003     1.3328639033716172E-004
  -7.1999999999999981E-003     1.3192430196795613E-004
  -7.1000000000000021E-003     1.2678418715950102E-004
  -6.9999999999999993E-003     1.2219001655466855E-004
  -6.8999999999999964E-003     1.1851567978737876E-004
  -6.8000000000000005E-003     1.0653735080268234E-004
  -6.6999999999999976E-003     1.1723442730726674E-004
  -6.6000000000000017E-003     1.1150421778438613E-004
  -6.4999999999999988E-003     1.0665469017112628E-004
  -6.3999999999999960E-003     9.2777474492322654E-005
  -6.3000000000000000E-003     7.4455878348089755E-005
  -6.1999999999999972E-003     4.5164739276515320E-005
  -6.1000000000000013E-003     2.8719088732032105E-005
  -5.9999999999999984E-003     9.1497740868362598E-006
  -5.9000000000000025E-003    -2.1045323592261411E-005
  -5.7999999999999996E-003    -7.2914335760287941E-005
  -5.6999999999999967E-003    -7.8962286352179945E-005
  -5.6000000000000008E-003    -1.1091162741649896E-004
  -5.4999999999999979E-003    -1.2735594646073878E-004
  -5.4000000000000020E-003    -1.4534988440573215E-004
  -5.2999999999999992E-003    -1.6570760635659099E-004
  -5.1999999999999963E-003    -2.2932889987714589E-004
  -5.1000000000000004E-003    -2.1990072855260223E-004
  -4.9999999999999975E-003    -2.1622551139444113E-004
  -4.9000000000000016E-003    -2.3553278879262507E-004
  -4.7999999999999987E-003    -2.6726894429884851E-004
  -4.6999999999999958E-003    -2.4571199901401997E-004
  -4.5999999999999999E-003    -2.8966559330001473E-004
  -4.4999999999999971E-003    -3.2380101038143039E-004
  -4.4000000000000011E-003    -3.3304156386293471E-004
  -4.2999999999999983E-003    -3.4332508221268654E-004
  -4.2000000000000023E-003    -3.1016956199891865E-004
  -4.0999999999999995E-003    -2.8653602930717170E-004
  -3.9999999999999966E-003    -2.6886645355261862E-004
  -3.9000000000000007E-003    -2.7707402477972209E-004
  -3.7999999999999978E-003    -2.1994524286128581E-004
  -3.7000000000000019E-003    -1.9252301717642695E-004
  -3.5999999999999990E-003    -1.6877311281859875E-004
  -3.4999999999999962E-003    -1.1281918705208227E-004
  -3.4000000000000002E-003    -8.0324112786911428E-005
  -3.2999999999999974E-003    -4.8386507842224091E-005
  -3.2000000000000015E-003     3.7151832657400519E-005
  -3.0999999999999986E-003     6.6698994487524033E-005
  -2.9999999999999957E-003     1.2988243543077260E-004
  -2.8999999999999998E-003     1.5392432396765798E-004
  -2.7999999999999969E-003     2.3346961825154722E-004
  -2.7000000000000010E-003     1.7930073954630643E-004
  -2.5999999999999981E-003     3.1254056375473738E-004
  -2.5000000000000022E-003     4.9172970466315746E-004
  -2.3999999999999994E-003     4.4051685836166143E-004
  -2.2999999999999965E-003     4.9806101014837623E-004
  -2.2000000000000006E-003     4.7801376786082983E-004
  -2.0999999999999977E-003     4.4175787479616702E-004
  -2.0000000000000018E-003     4.4441741192713380E-004
  -1.8999999999999989E-003     4.5546999899670482E-004
  -1.7999999999999960E-003     4.2095838580280542E-004
  -1.7000000000000001E-003     4.5589040382765234E-004
  -1.5999999999999973E-003     4.9688800936564803E-004
  -1.5000000000000013E-003     5.0561223179101944E-004
  -1.3999999999999985E-003     5.1509961485862732E-004
  -1.2999999999999956E-003     5.0953036407008767E-004
  -1.1999999999999997E-003     5.0435040611773729E-004
  -1.0999999999999968E-003     4.1212141513824463E-004
  -1.0000000000000009E-003     3.7503690691664815E-004
  -8.9999999999999802E-004     3.8203678559511900E-004
  -8.0000000000000210E-004     3.7497043376788497E-004
  -6.9999999999999923E-004     3.3401214750483632E-004
  -5.9999999999999637E-004     1.1932631605304778E-004
  -5.0000000000000044E-004     5.7047218433581293E-005
  -3.9999999999999758E-004     1.4377354818861932E-004
  -3.0000000000000165E-004    -7.8244811447802931E-005
  -1.9999999999999879E-004    -1.9689770124386996E-004
  -9.9999999999995925E-005    -1.3884647341910750E-004
   0.0000000000000000         -3.3718190388754010E-004
   1.0000000000000286E-004    -4.0193236782215536E-004
   1.9999999999999879E-004    -6.1916757840663195E-004
   3.0000000000000165E-004    -5.2194664021953940E-004
   4.0000000000000452E-004    -5.3420604672282934E-004
   5.0000000000000044E-004    -5.8287836145609617E-004
   6.0000000000000331E-004    -6.6551519557833672E-004
   6.9999999999999923E-004    -5.3046981338411570E-004
   8.0000000000000210E-004    -6.7227927502244711E-004
   8.9999999999999802E-004    -5.5869092466309667E-004
   1.0000000000000009E-003    -6.0849689180031419E-004
   1.1000000000000038E-003    -6.0570350615307689E-004
   1.1999999999999997E-003    -6.2436721054837108E-004
   1.3000000000000025E-003    -6.0911470791324973E-004
   1.3999999999999985E-003    -4.3979124166071415E-004
   1.5000000000000013E-003    -4.5814158511348069E-004
   1.6000000000000042E-003    -4.6544388169422746E-004
   1.7000000000000001E-003    -2.0137926912866533E-004
   1.8000000000000030E-003     1.3655918564836611E-006
   1.8999999999999989E-003     4.0595390601083636E-005
   2.0000000000000018E-003     2.6168517069891095E-004
   2.1000000000000046E-003     1.5544499547104351E-005
   2.2000000000000006E-003     1.8016294052358717E-004
   2.3000000000000034E-003     2.0665526972152293E-004
   2.3999999999999994E-003     2.8487821691669524E-004
   2.5000000000000022E-003     4.1367392987012863E-004
   2.5999999999999981E-003     2.8801226289942861E-004
   2.7000000000000010E-003     3.5512589965946972E-004
   2.8000000000000039E-003     6.0214544646441936E-004
   2.8999999999999998E-003     3.4994777524843812E-004
   3.0000000000000027E-003     5.7725841179490089E-004
   3.0999999999999986E-003     7.0369400782510638E-004
   3.2000000000000015E-003     9.9120161030441523E-004
   3.3000000000000043E-003     1.1249816743656993E-003
   3.4000000000000002E-003     8.9402176672592759E-004
   3.5000000000000031E-003     7.6362234540283680E-004
   3.5999999999999990E-003     9.9805230274796486E-004
   3.7000000000000019E-003     7.3440623236820102E-004
   3.7999999999999978E-003     7.2301767067983747E-004
   3.9000000000000007E-003     5.6943943491205573E-004
   4.0000000000000036E-003     6.1861920403316617E-004
   4.0999999999999995E-003     9.6016249153763056E-004
   4.2000000000000023E-003     5.3158571245148778E-004
   4.2999999999999983E-003     3.7403756869025528E-004
   4.4000000000000011E-003     7.5299285526853055E-005
   4.5000000000000040E-003     3.1005530036054552E-004
   4.5999999999999999E-003     3.3787509892135859E-004
   4.7000000000000028E-003    -3.5211065551266074E-005
   4.7999999999999987E-003    -7.7094890002626926E-005
   4.9000000000000016E-003    -4.0169607382267714E-004
   5.0000000000000044E-003    -4.3531935079954565E-004
   5.1000000000000004E-003    -8.4530387539416552E-004
   5.2000000000000032E-003    -1.0745385661721230E-003
   5.2999999999999992E-003    -1.1493895435705781E-003
   5.4000000000000020E-003    -1.1260623577982187E-003
   5.4999999999999979E-003    -1.3355670962482691E-003
   5.6000000000000008E-003    -1.2942459434270859E-003
   5.7000000000000037E-003    -1.6856604488566518E-003
   5.7999999999999996E-003    -1.8214246956631541E-003
   5.9000000000000025E-003    -1.8717476632446051E-003
   5.9999999999999984E-003    -1.8937031272798777E-003
   6.1000000000000013E-003    -2.0611546933650970E-003
   6.2000000000000041E-003    -2.1403911523520947E-003
   6.3000000000000000E-003    -1.6066731186583638E-003
   6.4000000000000029E-003    -1.9702438730746508E-003
   6.4999999999999988E-003    -1.6788749489933252E-003
   6.6000000000000017E-003    -1.3174550840631127E-003
   6.7000000000000046E-003    -1.1226265924051404E-003
   6.8000000000000005E-003    -6.9073418853804469E-004
   6.9000000000000034E-003    -5.7519815163686872E-004
   6.9999999999999993E-003    -2.9890998848713934E-004
   7.1000000000000021E-003    -8.5787592979613692E-005
   7.1999999999999981E-003     6.2669563340023160E-004
   7.3000000000000009E-003     1.1130409548059106E-003
   7.4000000000000038E-003     1.2025571195408702E-003
   7.4999999999999997E-003     1.2847090838477015E-003
   7.6000000000000026E-003     1.5888061607256532E-003
   7.6999999999999985E-003     2.3602296132594347E-003
   7.8000000000000014E-003     2.3553513456135988E-003
   7.9000000000000042E-003     2.7407398447394371E-003
   8.0000000000000002E-003     2.7611891273409128E-003
   8.1000000000000030E-003     2.9525856953114271E-003
   8.1999999999999990E-003     3.1272196210920811E-003
   8.3000000000000018E-003     2.9068402945995331E-003
   8.4000000000000047E-003     3.4524472430348396E-003
   8.5000000000000006E-003     2.9148489702492952E-003
   8.6000000000000035E-003     2.4248468689620495E-003
   8.6999999999999994E-003     2.4200577754527330E-003
   8.8000000000000023E-003     1.7666574567556381E-003
   8.8999999999999982E-003     1.7501683905720711E-003
   9.0000000000000011E-003     1.7107354942709208E-003
   9.1000000000000039E-003     1.5183652285486460E-003
   9.1999999999999998E-003     8.8587222853675485E-004
   9.3000000000000027E-003     8.3157920744270086E-004
   9.3999999999999986E-003     4.1166614391840994E-004
   9.5000000000000015E-003    -3.5598612157627940E-004
   9.6000000000000044E-003    -5.9924967354163527E-004
   9.7000000000000003E-003    -1.1971272761002183E-003
   9.8000000000000032E-003    -1.5348549932241440E-003
   9.8999999999999991E-003    -2.0873821340501308E-003
   1.0000000000000002E-002    -2.1704956889152527E-003
   1.0100000000000005E-002    -3.1279562972486019E-003
   1.0200000000000001E-002    -3.3115402329713106E-003
   1.0300000000000004E-002    -4.0138196200132370E-003
   1.0400000000000000E-002    -4.7716051340103149E-003
   1.0500000000000002E-002    -4.8676589503884315E-003
   1.0599999999999998E-002    -5.1468275487422943E-003
   1.0700000000000001E-002    -5.3577530197799206E-003
   1.0800000000000004E-002    -5.3359428420662880E-003
   1.0900000000000000E-002    -5.6053651496767998E-003
   1.1000000000000003E-002    -5.5747735314071178E-003
   1.1099999999999999E-002    -5.1529370248317719E-003
   1.1200000000000002E-002    -4.8562963493168354E-003
   1.1300000000000004E-002    -4.4444696977734566E-003
   1.1400000000000000E-002    -4.4579473324120045E-003
   1.1500000000000003E-002    -4.0205251425504684E-003
   1.1599999999999999E-002    -3.8709568325430155E-003
   1.1700000000000002E-002    -3.2887009438127279E-003
   1.1800000000000005E-002    -2.7903183363378048E-003
   1.1900000000000001E-002    -2.1767250727862120E-003
   1.2000000000000004E-002    -1.8861565040424466E-003
   1.2100000000000000E-002    -1.4558690600097179E-003
   1.2200000000000003E-002    -8.3083874778822064E-004
   1.2299999999999998E-002    -4.4107495341449976E-004
   1.2400000000000001E-002     3.7141409120522439E-004
   1.2500000000000004E-002     1.0094980243593454E-003
   1.2600000000000000E-002     2.0314939320087433E-003
   1.2700000000000003E-002     2.7336741331964731E-003
   1.2799999999999999E-002     3.4072699490934610E-003
   1.2900000000000002E-002     4.0719723328948021E-003
   1.3000000000000005E-002     4.8883105628192425E-003
   1.3100000000000001E-002     5.6416774168610573E-003
   1.3200000000000003E-002     6.4110034145414829E-003
   1.3299999999999999E-002     7.3038195259869099E-003
   1.3400000000000002E-002     7.3785320855677128E-003
   1.3500000000000005E-002     8.4059797227382660E-003
   1.3600000000000001E-002     8.4238629788160324E-003
   1.3700000000000004E-002     8.9006908237934113E-003
   1.3800000000000000E-002     9.7362361848354340E-003
   1.3900000000000003E-002     9.0229352936148643E-003
   1.3999999999999999E-002     9.1320807114243507E-003
   1.4100000000000001E-002     8.2680145278573036E-003
   1.4200000000000004E-002     8.1332223489880562E-003
   1.4300000000000000E-002     7.7320560812950134E-003
   1.4400000000000003E-002     8.0954469740390778E-003