  -4.0000000000000001E-002     0.0000000000000000
  -3.9899999999999998E-002     0.0000000000000000
  -3.9800000000000002E-002     0.0000000000000000
  -3.9699999999999999E-002     0.0000000000000000
  -3.9600000000000003E-002    -2.2642369749970026E-013
  -3.9500000000000000E-002    -1.9959789029910802E-012
  -3.9399999999999998E-002    -9.7188654693547427E-012
  -3.9300000000000002E-002    -3.4500704376716484E-011
  -3.9199999999999999E-002    -9.9605504400024358E-011
  -3.9100000000000003E-002    -2.4769258866186306E-010
  -3.9000000000000000E-002    -5.4926574399871697E-010
  -3.8900000000000004E-002    -1.1112274433955349E-009
  -3.8800000000000001E-002    -2.0838817338386662E-009
  -3.8699999999999998E-002    -3.6642742173853549E-009
  -3.8600000000000002E-002    -6.0934803869372445E-009
  -3.8500000000000000E-002    -9.6454435549730988E-009
  -3.8400000000000004E-002    -1.4605318732208161E-008
  -3.8300000000000001E-002    -2.1235953440168487E-008
  -3.8199999999999998E-002    -2.9732339257293461E-008
  -3.8100000000000002E-002    -4.0165339498798858E-008
  -3.7999999999999999E-002    -5.2417622242728612E-008
  -3.7900000000000003E-002    -6.6116932373461168E-008
  -3.7800000000000000E-002    -8.0573499872116372E-008
  -3.7699999999999997E-002    -9.4730189914571383E-008
  -3.7600000000000001E-002    -1.0713510789628344E-007
  -3.7499999999999999E-002    -1.1594730153774435E-007
  -3.7400000000000003E-002    -1.1898513463393101E-007
  -3.7300000000000000E-002    -1.1382650200175704E-007
  -3.7200000000000004E-002    -9.7966832868223719E-008
  -3.7100000000000001E-002    -6.9037284333717253E-008
  -3.6999999999999998E-002    -2.5080789001208359E-008
  -3.6900000000000002E-002     3.5121892949518951E-008
  -3.6799999999999999E-002     1.1169125002652436E-007
  -3.6700000000000003E-002     2.0327328797975497E-007
  -3.6600000000000001E-002     3.0667825967611861E-007
  -3.6499999999999998E-002     4.1656525695543678E-007
  -3.6400000000000002E-002     5.2521102134051034E-007
  -3.6299999999999999E-002     6.2240331999419141E-007
  -3.6200000000000003E-002     6.9549764702969696E-007
  -3.6100000000000000E-002     7.2967281994351652E-007
  -3.6000000000000004E-002     7.0841912247487926E-007
  -3.5900000000000001E-002     6.1427255104717915E-007
  -3.5799999999999998E-002     4.2980843772966182E-007
  -3.5700000000000003E-002     1.3887995464756386E-007
  -3.5600000000000000E-002    -2.7192510287932237E-007
  -3.5500000000000004E-002    -8.1165967458218802E-007
  -3.5400000000000001E-002    -1.4832938859399292E-006
  -3.5299999999999998E-002    -2.2819881451141555E-006
  -3.5200000000000002E-002    -3.1934678190737031E-006
  -3.5099999999999999E-002    -4.1926214180421084E-006
  -3.5000000000000003E-002    -5.2424766181502491E-006
  -3.4900000000000000E-002    -6.2936510403233115E-006
  -3.4799999999999998E-002    -7.2844654823711608E-006
  -3.4700000000000002E-002    -8.1417847468401305E-006
  -3.4599999999999999E-002    -8.7827138486318290E-006
  -3.4500000000000003E-002    -9.1172296379227191E-006
  -3.4400000000000000E-002    -9.0517041826387867E-006
  -3.4299999999999997E-002    -8.4933672042097896E-006
  -3.4200000000000001E-002    -7.3556057031964883E-006
  -3.4099999999999998E-002    -5.5639084166614339E-006
  -3.4000000000000002E-002    -3.0623182283306960E-006
  -3.3900000000000000E-002     1.7990655010180490E-007
  -3.3799999999999997E-002     4.1617277020122856E-006
  -3.3700000000000001E-002     8.8442648120690137E-006
  -3.3599999999999998E-002     1.4145534805720672E-005
  -3.3500000000000002E-002     1.9936547687393613E-005
  -3.3399999999999999E-002     2.6039006115752272E-005
  -3.3300000000000003E-002     3.2225165341515094E-005
  -3.3200000000000000E-002     3.8220056012505665E-005
  -3.3099999999999997E-002     4.3706415453925729E-005
  -3.3000000000000002E-002     4.8332465667044744E-005
  -3.2899999999999999E-002     5.1722632633754984E-005
  -3.2800000000000003E-002     5.3491072321776301E-005
  -3.2700000000000000E-002     5.3257826948538423E-005
  -3.2600000000000004E-002     5.0667240429902449E-005
  -3.2500000000000001E-002     4.5408014557324350E-005
  -3.2399999999999998E-002     3.7234272895148024E-005
  -3.2300000000000002E-002     2.5986786567955278E-005
  -3.2199999999999999E-002     1.1613438800850417E-005
  -3.2100000000000004E-002    -5.8122154769080225E-006
  -3.2000000000000001E-002    -2.6075253117596731E-005
  -3.1899999999999998E-002    -4.8807709390530363E-005
  -3.1800000000000002E-002    -7.3481998697388917E-005
  -3.1699999999999999E-002    -9.9410237453412265E-005
  -3.1600000000000003E-002    -1.2575062282849103E-004
  -3.1500000000000000E-002    -1.5152074047364295E-004
  -3.1399999999999997E-002    -1.7561920685693622E-004
  -3.1300000000000001E-002    -1.9685452571138740E-004
  -3.1199999999999999E-002    -2.1398173703346401E-004
  -3.1100000000000003E-002    -2.2574565082322806E-004
  -3.1000000000000000E-002    -2.3093009076546878E-004
  -3.0900000000000000E-002    -2.2841138707008213E-004
  -3.0800000000000001E-002    -2.1721450320910662E-004
  -3.0699999999999998E-002    -1.9657015218399465E-004
  -3.0600000000000002E-002    -1.6596975910943002E-004
  -3.0499999999999999E-002    -1.2521706230472773E-004
  -3.0400000000000000E-002    -7.4472787673585117E-005
  -3.0300000000000001E-002    -1.4290284525486641E-005
  -3.0200000000000001E-002     5.4359919886337593E-005
  -3.0100000000000002E-002     1.3007955567445606E-004
  -2.9999999999999999E-002     2.1104692132212222E-004
  -2.9899999999999999E-002     2.9503845144063234E-004
  -2.9800000000000000E-002     3.7946732481941581E-004
  -2.9700000000000001E-002     4.6144012594595551E-004
  -2.9600000000000001E-002     5.3783069597557187E-004
  -2.9499999999999998E-002     6.0537015087902546E-004
  -2.9400000000000003E-002     6.6075078211724758E-004
  -2.9300000000000000E-002     7.0074119139462709E-004
  -2.9200000000000000E-002     7.2231015656143427E-004
  -2.9100000000000001E-002     7.2275457205250859E-004
  -2.8999999999999998E-002     6.9982517743483186E-004
  -2.8900000000000002E-002     6.5185065614059567E-004
  -2.8799999999999999E-002     5.7784834643825889E-004
  -2.8700000000000000E-002     4.7762118629179895E-004
  -2.8600000000000000E-002     3.5183518775738776E-004
  -2.8500000000000001E-002     2.0207144552841783E-004
  -2.8400000000000002E-002     3.0850744224153459E-005
  -2.8299999999999999E-002    -1.5837360115256160E-004
  -2.8200000000000003E-002    -3.6125580663792789E-004
  -2.8100000000000000E-002    -5.7263334747403860E-004
  -2.8000000000000001E-002    -7.8663520980626345E-004
  -2.7900000000000001E-002    -9.9682458676397800E-004
  -2.7799999999999998E-002    -1.1963706929236650E-003
  -2.7700000000000002E-002    -1.3782463502138853E-003
  -2.7600000000000000E-002    -1.5354480128735304E-003
  -2.7500000000000000E-002    -1.6612265026196837E-003
  -2.7400000000000001E-002    -1.7493291525170207E-003
  -2.7299999999999998E-002    -1.7942364793270826E-003
  -2.7200000000000002E-002    -1.7913931515067816E-003
  -2.7099999999999999E-002    -1.7374168382957578E-003
  -2.7000000000000000E-002    -1.6302845906466246E-003
  -2.6900000000000000E-002    -1.4694798737764359E-003
  -2.6800000000000001E-002    -1.2561022303998470E-003
  -2.6700000000000002E-002    -9.9292490631341934E-004
  -2.6599999999999999E-002    -6.8440323229879141E-004
  -2.6500000000000003E-002    -3.3662453643046319E-004
  -2.6400000000000000E-002     4.2796302295755595E-005
  -2.6300000000000000E-002     4.4487888226285577E-004
  -2.6200000000000001E-002     8.5949175991117954E-004
  -2.6099999999999998E-002     1.2756157666444778E-003
  -2.6000000000000002E-002     1.6816470306366682E-003
  -2.5899999999999999E-002     2.0657337736338377E-003
  -2.5800000000000000E-002     2.4161373730748892E-003
  -2.5700000000000001E-002     2.7215983718633652E-003
  -2.5599999999999998E-002     2.9717101715505123E-003
  -2.5500000000000002E-002     3.1572692096233368E-003
  -2.5399999999999999E-002     3.2706046476960182E-003
  -2.5300000000000000E-002     3.3058656845241785E-003
  -2.5200000000000000E-002     3.2592625357210636E-003
  -2.5100000000000001E-002     3.1292403582483530E-003
  -2.5000000000000001E-002     2.9165896121412516E-003
  -2.4899999999999999E-002     2.6244828477501869E-003
  -2.4800000000000003E-002     2.2584272082895041E-003
  -2.4700000000000000E-002     1.8261470831930637E-003
  -2.4600000000000000E-002     1.3373846886679530E-003
  -2.4500000000000001E-002     8.0363120650872588E-004
  -2.4399999999999998E-002     2.3779399634804577E-004
  -2.4299999999999999E-002    -3.4618808422237635E-004
  -2.4199999999999999E-002    -9.3377276789397001E-004
  -2.4100000000000000E-002    -1.5102652832865715E-003
  -2.4000000000000000E-002    -2.0612825173884630E-003
  -2.3900000000000001E-002    -2.5732098147273064E-003
  -2.3800000000000002E-002    -3.0336356721818447E-003
  -2.3699999999999999E-002    -3.4317462705075741E-003
  -2.3599999999999999E-002    -3.7586677353829145E-003
  -2.3500000000000000E-002    -4.0077390149235725E-003
  -2.3400000000000001E-002    -4.1747074574232101E-003
  -2.3300000000000001E-002    -4.2578321881592274E-003
  -2.3199999999999998E-002    -4.2579052969813347E-003
  -2.3099999999999999E-002    -4.1781645268201828E-003
  -2.3000000000000000E-002    -4.0241223759949207E-003
  -2.2900000000000000E-002    -3.8033074233680964E-003
  -2.2800000000000001E-002    -3.5249229986220598E-003
  -2.2700000000000001E-002    -3.1994443852454424E-003
  -2.2599999999999999E-002    -2.8381603769958019E-003
  -2.2499999999999999E-002    -2.4526866618543863E-003
  -2.2400000000000000E-002    -2.0544617436826229E-003
  -2.2300000000000000E-002    -1.6542540397495031E-003
  -2.2200000000000001E-002    -1.2616899330168962E-003
  -2.2100000000000002E-002    -8.8483747094869614E-004
  -2.1999999999999999E-002    -5.2985176444053650E-004
  -2.1899999999999999E-002    -2.0070614118594676E-004
  -2.1800000000000000E-002     1.0097886843141168E-004
  -2.1700000000000001E-002     3.7599794450215995E-004
  -2.1600000000000001E-002     6.2751246150583029E-004
  -2.1499999999999998E-002     8.6087785894051194E-004
  -2.1399999999999999E-002     1.0833684355020523E-003
  -2.1299999999999999E-002     1.3037835014984012E-003
  -2.1200000000000000E-002     1.5319690573960543E-003
  -2.1100000000000001E-002     1.7782577779144049E-003
  -2.1000000000000001E-002     2.0528549794107676E-003
  -2.0899999999999998E-002     2.3651814553886652E-003
  -2.0799999999999999E-002     2.7232195716351271E-003
  -2.0700000000000000E-002     3.1328753102570772E-003
  -2.0600000000000000E-002     3.5973780322819948E-003
  -2.0500000000000001E-002     4.1167680174112320E-003
  -2.0400000000000001E-002     4.6874722465872765E-003
  -2.0299999999999999E-002     5.3020128980278969E-003
  -2.0199999999999999E-002     5.9488406404852867E-003
  -2.0100000000000000E-002     6.6123479045927525E-003
  -2.0000000000000000E-002     7.2730327956378460E-003
  -1.9900000000000001E-002     7.9078264534473419E-003
  -1.9799999999999998E-002     8.4906108677387238E-003
  -1.9699999999999999E-002     8.9928694069385529E-003
  -1.9599999999999999E-002     9.3845082446932793E-003
  -1.9500000000000000E-002     9.6347751095890999E-003
  -1.9400000000000001E-002     9.7132986411452293E-003
  -1.9300000000000001E-002     9.5911836251616478E-003
  -1.9199999999999998E-002     9.2421360313892365E-003
  -1.9099999999999999E-002     8.6436001583933830E-003
  -1.9000000000000000E-002     7.7778398990631104E-003
  -1.8900000000000000E-002     6.6329422406852245E-003
  -1.8800000000000001E-002     5.2037201821804047E-003
  -1.8700000000000001E-002     3.4924352075904608E-003
  -1.8599999999999998E-002     1.5093657420948148E-003
  -1.8499999999999999E-002    -7.2685646591708064E-004
  -1.8400000000000000E-002    -3.1891125254333019E-003
  -1.8300000000000000E-002    -5.8419327251613140E-003
  -1.8200000000000001E-002    -8.6418753489851952E-003
  -1.8100000000000002E-002    -1.1538126505911350E-002
  -1.7999999999999999E-002    -1.4473390765488148E-002
  -1.7899999999999999E-002    -1.7384955659508705E-002
  -1.7800000000000000E-002    -2.0205983892083168E-002
  -1.7700000000000000E-002    -2.2866982966661453E-002
  -1.7600000000000001E-002    -2.5297375395894051E-002
  -1.7499999999999998E-002    -2.7427209541201591E-002
  -1.7399999999999999E-002    -2.9188886284828186E-002
  -1.7299999999999999E-002    -3.0518895015120506E-002
  -1.7200000000000000E-002    -3.1359564512968063E-002
  -1.7100000000000001E-002    -3.1660623848438263E-002
  -1.7000000000000001E-002    -3.1380750238895416E-002
  -1.6899999999999998E-002    -3.0488837510347366E-002
  -1.6799999999999999E-002    -2.8965190052986145E-002
  -1.6700000000000000E-002    -2.6802318170666695E-002
  -1.6600000000000000E-002    -2.4005619809031487E-002
  -1.6500000000000001E-002    -2.0593713968992233E-002
  -1.6400000000000001E-002    -1.6598502174019814E-002
  -1.6299999999999999E-002    -1.2064899317920208E-002
  -1.6199999999999999E-002    -7.0503735914826393E-003
  -1.6100000000000000E-002    -1.6241358825936913E-003
  -1.6000000000000000E-002     4.1339350864291191E-003
  -1.5900000000000001E-002     1.0134521871805191E-002
  -1.5799999999999998E-002     1.6280386596918106E-002
  -1.5699999999999999E-002     2.2468000650405884E-002
  -1.5599999999999999E-002     2.8589351102709770E-002
  -1.5500000000000000E-002     3.4533780068159103E-002
  -1.5400000000000000E-002     4.0189996361732483E-002
  -1.5300000000000001E-002     4.5447960495948792E-002
  -1.5199999999999998E-002     5.0200898200273514E-002
  -1.5099999999999999E-002     5.4347161203622818E-002
  -1.4999999999999999E-002     5.7792045176029205E-002
  -1.4900000000000000E-002     6.0449488461017609E-002
  -1.4800000000000001E-002     6.2243651598691940E-002
  -1.4700000000000001E-002     6.3110321760177612E-002
  -1.4599999999999998E-002     6.2998086214065552E-002
  -1.4499999999999999E-002     6.1869438737630844E-002
  -1.4400000000000000E-002     5.9701543301343918E-002
  -1.4300000000000000E-002     5.6486871093511581E-002
  -1.4200000000000001E-002     5.2233580499887466E-002
  -1.4099999999999998E-002     4.6965733170509338E-002
  -1.3999999999999999E-002     4.0723152458667755E-002
  -1.3899999999999999E-002     3.3561222255229950E-002
  -1.3800000000000000E-002     2.5550354272127151E-002
  -1.3700000000000000E-002     1.6775332391262054E-002
  -1.3600000000000001E-002     7.3342304676771164E-003
  -1.3499999999999998E-002    -2.6625243481248617E-003
  -1.3399999999999999E-002    -1.3093609362840652E-002
  -1.3299999999999999E-002    -2.3828420788049698E-002
  -1.3200000000000000E-002    -3.4728590399026871E-002
  -1.3100000000000001E-002    -4.5650072395801544E-002
  -1.3000000000000001E-002    -5.6445091962814331E-002
  -1.2899999999999998E-002    -6.6964417695999146E-002
  -1.2799999999999999E-002    -7.7059589326381683E-002
  -1.2699999999999999E-002    -8.6585484445095062E-002
  -1.2600000000000000E-002    -9.5402635633945465E-002
  -1.2500000000000001E-002   -0.10337986797094345
  -1.2399999999999998E-002   -0.11039671301841736
  -1.2299999999999998E-002   -0.11634611338376999
  -1.2199999999999999E-002   -0.12113635241985321
  -1.2100000000000000E-002   -0.12469372153282166
  -1.2000000000000000E-002   -0.12696443498134613
  -1.1900000000000001E-002   -0.12791627645492554
  -1.1799999999999998E-002   -0.12754026055335999
  -1.1699999999999999E-002   -0.12585175037384033
  -1.1599999999999999E-002   -0.12289128452539444
  -1.1500000000000000E-002   -0.11872476339340210
  -1.1400000000000000E-002   -0.11344349384307861
  -1.1300000000000001E-002   -0.10716342180967331
  -1.1199999999999998E-002   -0.10002420842647552
  -1.1099999999999999E-002    -9.2187292873859406E-002
  -1.0999999999999999E-002    -8.3834096789360046E-002
  -1.0900000000000000E-002    -7.5163193047046661E-002
  -1.0800000000000001E-002    -6.6387563943862915E-002
  -1.0699999999999998E-002    -5.7730507105588913E-002
  -1.0599999999999998E-002    -4.9422606825828552E-002
  -1.0499999999999999E-002    -4.1697297245264053E-002
  -1.0400000000000000E-002    -3.4786671400070190E-002
  -1.0300000000000000E-002    -2.8917204588651657E-002
  -1.0200000000000001E-002    -2.4305539205670357E-002
  -1.0099999999999998E-002    -2.1154046058654785E-002
  -9.9999999999999985E-003    -1.9647689536213875E-002
  -9.8999999999999991E-003    -1.9948767498135567E-002
  -9.7999999999999997E-003    -2.2195329889655113E-002
  -9.7000000000000003E-003    -2.6497768238186836E-002
  -9.6000000000000009E-003    -3.2937046140432358E-002
  -9.4999999999999980E-003    -4.1561879217624664E-002
  -9.3999999999999986E-003    -5.2390307188034058E-002
  -9.2999999999999992E-003    -6.5407931804656982E-002
  -9.1999999999999998E-003    -8.0568559467792511E-002
  -9.1000000000000004E-003    -9.7796544432640076E-002
  -9.0000000000000011E-003   -0.11698836833238602
  -8.8999999999999982E-003   -0.13801616430282593
  -8.7999999999999988E-003   -0.16073030233383179
  -8.6999999999999994E-003   -0.18496295809745789
  -8.5999999999999965E-003   -0.21053446829319000
  -8.5000000000000006E-003   -0.23725572228431702
  -8.3999999999999977E-003   -0.26493483781814575
  -8.3000000000000018E-003   -0.29338082671165466
  -8.1999999999999990E-003   -0.32240903377532959
  -8.0999999999999961E-003   -0.35184556245803833
  -8.0000000000000002E-003   -0.38153293728828430
  -7.8999999999999973E-003   -0.41133224964141846
  -7.8000000000000014E-003   -0.44112783670425415
  -7.6999999999999985E-003   -0.47083067893981934
  -7.6000000000000026E-003   -0.50037884712219238
  -7.4999999999999997E-003   -0.52974104881286621
  -7.3999999999999969E-003   -0.55891597270965576
  -7.3000000000000009E-003   -0.58793455362319946
  -7.1999999999999981E-003   -0.61685663461685181
  -7.1000000000000021E-003   -0.64577275514602661
  -6.9999999999999993E-003   -0.67480069398880005
  -6.8999999999999964E-003   -0.70408350229263306
  -6.8000000000000005E-003   -0.73378556966781616
  -6.6999999999999976E-003   -0.76409208774566650
  -6.6000000000000017E-003   -0.79520505666732788
  -6.4999999999999988E-003   -0.82733857631683350
  -6.3999999999999960E-003   -0.86071676015853882
  -6.3000000000000000E-003   -0.89557015895843506
  -6.1999999999999972E-003   -0.93213224411010742
  -6.1000000000000013E-003   -0.97063845396041870
  -5.9999999999999984E-003    -1.0113185644149780
  -5.9000000000000025E-003    -1.0544025897979736
  -5.7999999999999996E-003    -1.1001151800155640
  -5.6999999999999967E-003    -1.1486721038818359
  -5.6000000000000008E-003    -1.2002820968627930
  -5.4999999999999979E-003    -1.2551484107971191
  -5.4000000000000020E-003    -1.3134638071060181
  -5.2999999999999992E-003    -1.3754175901412964
  -5.1999999999999963E-003    -1.4411922693252563
  -5.1000000000000004E-003    -1.5109659433364868
  -4.9999999999999975E-003    -1.5849113464355469
  -4.9000000000000016E-003    -1.6632027626037598
  -4.7999999999999987E-003    -1.7460119724273682
  -4.6999999999999958E-003    -1.8335107564926147
  -4.5999999999999999E-003    -1.9258702993392944
  -4.4999999999999971E-003    -2.0232713222503662
  -4.4000000000000011E-003    -2.1258933544158936
  -4.2999999999999983E-003    -2.2339217662811279
  -4.2000000000000023E-003    -2.3475377559661865
  -4.0999999999999995E-003    -2.4669406414031982
  -3.9999999999999966E-003    -2.5923194885253906
  -3.9000000000000007E-003    -2.7238688468933105
  -3.7999999999999978E-003    -2.8617887496948242
  -3.7000000000000019E-003    -3.0062799453735352
  -3.5999999999999990E-003    -3.1575381755828857
  -3.4999999999999962E-003    -3.3157541751861572
  -3.4000000000000002E-003    -3.4811186790466309
  -3.2999999999999974E-003    -3.6538228988647461
  -3.2000000000000015E-003    -3.8340344429016113
  -3.0999999999999986E-003    -4.0219402313232422
  -2.9999999999999957E-003    -4.2176971435546875
  -2.8999999999999998E-003    -4.4214706420898438
  -2.7999999999999969E-003    -4.6334147453308105
  -2.7000000000000010E-003    -4.8536806106567383
  -2.5999999999999981E-003    -5.0824065208435059
  -2.5000000000000022E-003    -5.3197445869445801
  -2.3999999999999994E-003    -5.5658345222473145
  -2.2999999999999965E-003    -5.8208227157592773
  -2.2000000000000006E-003    -6.0848650932312012
  -2.0999999999999977E-003    -6.3581132888793945
  -2.0000000000000018E-003    -6.6407394409179688
  -1.8999999999999989E-003    -6.9329252243041992
  -1.7999999999999960E-003    -7.2348804473876953
  -1.7000000000000001E-003    -7.5468049049377441
  -1.5999999999999973E-003    -7.8689689636230469
  -1.5000000000000013E-003    -8.2016201019287109
  -1.3999999999999985E-003    -8.5450534820556641
  -1.2999999999999956E-003    -8.8995876312255859
  -1.1999999999999997E-003    -9.2655782699584961
  -1.0999999999999968E-003    -9.6433839797973633
  -1.0000000000000009E-003    -10.033412933349609
  -8.9999999999999802E-004    -10.436092376708984
  -8.0000000000000210E-004    -10.851902008056641
  -6.9999999999999923E-004    -11.281297683715820
  -5.9999999999999637E-004    -11.724779129028320
  -5.0000000000000044E-004    -12.182877540588379
  -3.9999999999999758E-004    -12.656107902526855
  -3.0000000000000165E-004    -13.145039558410645
  -1.9999999999999879E-004    -13.650220870971680
  -9.9999999999995925E-005    -14.172204017639160
   0.0000000000000000         -14.711549758911133
   1.0000000000000286E-004    -15.268832206726074
   1.9999999999999879E-004    -15.844614982604980
   3.0000000000000165E-004    -16.439445495605469
   4.0000000000000452E-004    -17.053848266601562
   5.0000000000000044E-004    -17.688343048095703
   6.0000000000000331E-004    -18.343421936035156
   6.9999999999999923E-004    -19.019590377807617
   8.0000000000000210E-004    -19.717329025268555
   8.9999999999999802E-004    -20.437070846557617
   1.0000000000000009E-003    -21.179180145263672
   1.1000000000000038E-003    -21.944057464599609
   1.1999999999999997E-003    -22.732074737548828
   1.3000000000000025E-003    -23.543556213378906
   1.3999999999999985E-003    -24.378808975219727
   1.5000000000000013E-003    -25.238082885742188
   1.6000000000000042E-003    -26.121578216552734
   1.7000000000000001E-003    -27.029491424560547
   1.8000000000000030E-003    -27.961967468261719
   1.8999999999999989E-003    -28.919113159179688
   2.0000000000000018E-003    -29.901006698608398
   2.1000000000000046E-003    -30.907728195190430
   2.2000000000000006E-003    -31.939210891723633
   2.3000000000000034E-003    -32.995475769042969
   2.3999999999999994E-003    -34.076412200927734
   2.5000000000000022E-003    -35.181880950927734
   2.5999999999999981E-003    -36.311809539794922
   2.7000000000000010E-003    -37.465896606445312
   2.8000000000000039E-003    -38.644001007080078
   2.8999999999999998E-003    -39.845897674560547
   3.0000000000000027E-003    -41.071151733398438
   3.0999999999999986E-003    -42.319610595703125
   3.2000000000000015E-003    -43.590801239013672
   3.3000000000000043E-003    -44.884464263916016
   3.4000000000000002E-003    -46.200145721435547
   3.5000000000000031E-003    -47.537601470947266
   3.5999999999999990E-003    -48.896381378173828
   3.7000000000000019E-003    -50.276100158691406
   3.7999999999999978E-003    -51.676536560058594
   3.9000000000000007E-003    -53.097064971923828
   4.0000000000000036E-003    -54.537414550781250
   4.0999999999999995E-003    -55.997245788574219
   4.2000000000000023E-003    -57.476123809814453
   4.2999999999999983E-003    -58.973773956298828
   4.4000000000000011E-003    -60.489795684814453
   4.5000000000000040E-003    -62.023860931396484
   4.5999999999999999E-003    -63.575531005859375
   4.7000000000000028E-003    -65.144447326660156
   4.7999999999999987E-003    -66.730384826660156
   4.9000000000000016E-003    -68.332748413085938
   5.0000000000000044E-003    -69.951133728027344
   5.1000000000000004E-003    -71.585121154785156
   5.2000000000000032E-003    -73.234184265136719
   5.2999999999999992E-003    -74.897605895996094
   5.4000000000000020E-003    -76.574882507324219
   5.4999999999999979E-003    -78.265037536621094
   5.6000000000000008E-003    -79.967231750488281
   5.7000000000000037E-003    -81.680534362792969
   5.7999999999999996E-003    -83.403930664062500
   5.9000000000000025E-003    -85.136001586914062
   5.9999999999999984E-003    -86.875419616699219
   6.1000000000000013E-003    -88.620689392089844
   6.2000000000000041E-003    -90.370315551757812
   6.3000000000000000E-003    -92.122268676757812
   6.4000000000000029E-003    -93.874839782714844
   6.4999999999999988E-003    -95.626098632812500
   6.6000000000000017E-003    -97.373580932617188
   6.7000000000000046E-003    -99.114906311035156
   6.8000000000000005E-003    -100.84786224365234
   6.9000000000000034E-003    -102.56967163085938
   6.9999999999999993E-003    -104.27777862548828
   7.1000000000000021E-003    -105.96928405761719
   7.1999999999999981E-003    -107.64137268066406
   7.3000000000000009E-003    -109.29120635986328
   7.4000000000000038E-003    -110.91570281982422
   7.4999999999999997E-003    -112.51197052001953
   7.6000000000000026E-003    -114.07643127441406
   7.6999999999999985E-003    -115.60631561279297
   7.8000000000000014E-003    -117.09835052490234
   7.9000000000000042E-003    -118.54972076416016
   8.0000000000000002E-003    -119.95671081542969
   8.1000000000000030E-003    -121.31680297851562
   8.1999999999999990E-003    -122.62574005126953
   8.3000000000000018E-003    -123.88165283203125
   8.4000000000000047E-003    -125.08006286621094
   8.5000000000000006E-003    -126.21852111816406
   8.6000000000000035E-003    -127.29344177246094
   8.6999999999999994E-003    -128.30166625976562
   8.8000000000000023E-003    -129.23997497558594
   8.8999999999999982E-003    -130.10536193847656
   9.0000000000000011E-003    -130.89433288574219
   9.1000000000000039E-003    -131.60317993164062
   9.1999999999999998E-003    -132.22915649414062
   9.3000000000000027E-003    -132.76838684082031
   9.3999999999999986E-003    -133.21748352050781
   9.5000000000000015E-003    -133.57299804687500
   9.6000000000000044E-003    -133.83106994628906
   9.7000000000000003E-003    -133.98785400390625
   9.8000000000000032E-003    -134.04022216796875
   9.8999999999999991E-003    -133.98379516601562
   1.0000000000000002E-002    -133.81478881835938
   1.0100000000000005E-002    -133.52986145019531
   1.0200000000000001E-002    -133.12417602539062
   1.0300000000000004E-002    -132.59478759765625
   1.0400000000000000E-002    -131.93698120117188
   1.0500000000000002E-002    -131.14651489257812
   1.0599999999999998E-002    -130.22012329101562
   1.0700000000000001E-002    -129.15374755859375
   1.0800000000000004E-002    -127.94255065917969
   1.0900000000000000E-002    -126.58299255371094
   1.1000000000000003E-002    -125.07117462158203
   1.1099999999999999E-002    -123.40361785888672
   1.1200000000000002E-002    -121.57681274414062
   1.1300000000000004E-002    -119.58627319335938
   1.1400000000000000E-002    -117.42852783203125
   1.1500000000000003E-002    -115.10047149658203
   1.1599999999999999E-002    -112.59841156005859
   1.1700000000000002E-002    -109.91921234130859
   1.1800000000000005E-002    -107.05993652343750
   1.1900000000000001E-002    -104.01734924316406
   1.2000000000000004E-002    -100.78795623779297
   1.2100000000000000E-002    -97.370239257812500
   1.2200000000000003E-002    -93.760627746582031
   1.2299999999999998E-002    -89.957344055175781
   1.2400000000000001E-002    -85.957870483398438
   1.2500000000000004E-002    -81.760337829589844
   1.2600000000000000E-002    -77.363281250000000
   1.2700000000000003E-002    -72.763793945312500
   1.2799999999999999E-002    -67.961601257324219
   1.2900000000000002E-002    -62.954719543457031
   1.3000000000000005E-002    -57.742763519287109
   1.3100000000000001E-002    -52.323886871337891
   1.3200000000000003E-002    -46.697681427001953
   1.3299999999999999E-002    -40.864841461181641
   1.3400000000000002E-002    -34.823177337646484
   1.3500000000000005E-002    -28.574666976928711
   1.3600000000000001E-002    -22.117616653442383
   1.3700000000000004E-002    -15.454499244689941
   1.3800000000000000E-002    -8.5840167999267578
   1.3900000000000003E-002    -1.5087453126907349
   1.3999999999999999E-002     5.7706470489501953
   1.4100000000000001E-002     13.252289772033691
   1.4200000000000004E-002     20.935070037841797
   1.4300000000000000E-002     28.815431594848633
   1.4400000000000003E-002     36.892284393310547
   1.4499999999999999E-002     45.161842346191406
   1.4600000000000002E-002     53.622287750244141
   1.4700000000000005E-002     62.269367218017578
   1.4800000000000001E-002     71.100364685058594
   1.4900000000000004E-002     80.110717773437500
   1.4999999999999999E-002     89.296836853027344
   1.5100000000000002E-002     98.655632019042969
   1.5200000000000005E-002     108.17902374267578
   1.5300000000000001E-002     117.86478424072266
   1.5400000000000004E-002     127.70545959472656
   1.5500000000000000E-002     137.69638061523438
   1.5600000000000003E-002     147.83341979980469
   1.5699999999999999E-002     158.10804748535156
   1.5800000000000002E-002     168.51461791992188
   1.5900000000000004E-002     179.04450988769531
   1.6000000000000000E-002     189.69302368164062
   1.6100000000000003E-002     200.45170593261719
   1.6199999999999999E-002     211.31246948242188
   1.6300000000000002E-002     222.26704406738281
   1.6400000000000005E-002     233.30615234375000
   1.6500000000000001E-002     244.42083740234375
   1.6600000000000004E-002     255.60263061523438
   1.6700000000000000E-002     266.84161376953125
   1.6800000000000002E-002     278.12664794921875
   1.6900000000000005E-002     289.44885253906250