  -4.0000000000000001E-002     0.0000000000000000
  -3.9899999999999998E-002     0.0000000000000000
  -3.9800000000000002E-002     0.0000000000000000
  -3.9699999999999999E-002     0.0000000000000000
  -3.9600000000000003E-002    -1.3395875691663513E-017
  -3.9500000000000000E-002    -1.1957265007879459E-016
  -3.9399999999999998E-002    -5.9109506009871705E-016
  -3.9300000000000002E-002    -2.1360434512211583E-015
  -3.9199999999999999E-002    -6.2954156793723452E-015
  -3.9100000000000003E-002    -1.6028219807710624E-014
  -3.9000000000000000E-002    -3.6502552825008749E-014
  -3.8900000000000004E-002    -7.6089877671173256E-014
  -3.8800000000000001E-002    -1.4753268864822061E-013
  -3.8699999999999998E-002    -2.6922442140225877E-013
  -3.8600000000000002E-002    -4.6650655343913328E-013
  -3.8500000000000000E-002    -7.7285465353849059E-013
  -3.8400000000000004E-002    -1.2307946545622728E-012
  -3.8300000000000001E-002    -1.8923656044944615E-012
  -3.8199999999999998E-002    -2.8189330210370844E-012
  -3.8100000000000002E-002    -4.0801494127773452E-012
  -3.7999999999999999E-002    -5.7518759720431856E-012
  -3.7900000000000003E-002    -7.9129021043899961E-012
  -3.7800000000000000E-002    -1.0640352314517099E-011
  -3.7699999999999997E-002    -1.4003722660638207E-011
  -3.7600000000000001E-002    -1.8057576267604958E-011
  -3.7499999999999999E-002    -2.2833014992618139E-011
  -3.7400000000000003E-002    -2.8328159262791530E-011
  -3.7300000000000000E-002    -3.4497942696942729E-011
  -3.7200000000000004E-002    -4.1243702897375556E-011
  -3.7100000000000001E-002    -4.8403048930056869E-011
  -3.6999999999999998E-002    -5.5740700249939934E-011
  -3.6900000000000002E-002    -6.2940937184396972E-011
  -3.6799999999999999E-002    -6.9602448804495509E-011
  -3.6700000000000003E-002    -7.5236268604061962E-011
  -3.6600000000000001E-002    -7.9267543917627137E-011
  -3.6499999999999998E-002    -8.1041784394386696E-011
  -3.6400000000000002E-002    -7.9836019739598640E-011
  -3.6299999999999999E-002    -7.4875300404286804E-011
  -3.6200000000000003E-002    -6.5354603673295486E-011
  -3.6100000000000000E-002    -5.0466041068286671E-011
  -3.6000000000000004E-002    -2.9430971548727314E-011
  -3.5900000000000001E-002    -1.5362876986182994E-012
  -3.5799999999999998E-002     3.3826098172484720E-011
  -3.5700000000000003E-002     7.7117937036241813E-011
  -3.5600000000000000E-002     1.2861305076494745E-010
  -3.5500000000000004E-002     1.8835730197785949E-010
  -3.5400000000000001E-002     2.5613225429488296E-010
  -3.5299999999999998E-002     3.3142441568934089E-010
  -3.5200000000000002E-002     4.1340256218269644E-010
  -3.5099999999999999E-002     5.0090487313525500E-010
  -3.5000000000000003E-002     5.9243820960119820E-010
  -3.4900000000000000E-002     6.8619038229300600E-010
  -3.4799999999999998E-002     7.8005790715707235E-010
  -3.4700000000000002E-002     8.7168861018227517E-010
  -3.4599999999999999E-002     9.5853991410876915E-010
  -3.4500000000000003E-002     1.0379520576364598E-009
  -3.4400000000000000E-002     1.1072351924212853E-009
  -3.4299999999999997E-002     1.1637675267905934E-009
  -3.4200000000000001E-002     1.2051029063542273E-009
  -3.4099999999999998E-002     1.2290831685746184E-009
  -3.4000000000000002E-002     1.2339516075599022E-009
  -3.3900000000000000E-002     1.2184627751210542E-009
  -3.3799999999999997E-002     1.1819838441340380E-009
  -3.3700000000000001E-002     1.1245818720695411E-009
  -3.3599999999999998E-002     1.0470914135751741E-009
  -3.3500000000000002E-002     9.5115926246336358E-010
  -3.3399999999999999E-002     8.3925932869988173E-010
  -3.3300000000000003E-002     7.1467587403617472E-010
  -3.3200000000000000E-002     5.8145177561641503E-010
  -3.3099999999999997E-002     4.4430015222474140E-010
  -3.3000000000000002E-002     3.0847954746171524E-010
  -3.2899999999999999E-002     1.7963404375098690E-010
  -3.2800000000000003E-002     6.3601443556215997E-011
  -3.2700000000000000E-002    -3.3805819255050551E-011
  -3.2600000000000004E-002    -1.0704030717345603E-010
  -3.2500000000000001E-002    -1.5107198825248247E-010
  -3.2399999999999998E-002    -1.6164394822659744E-010
  -3.2300000000000002E-002    -1.3552121924664817E-010
  -3.2199999999999999E-002    -7.0721109524107817E-011
  -3.2100000000000004E-002     3.3285894873724686E-011
  -3.2000000000000001E-002     1.7541659791397990E-010
  -3.1899999999999998E-002     3.5286737420925363E-010
  -3.1800000000000002E-002     5.6106824741775085E-010
  -3.1699999999999999E-002     7.9370665595490664E-010
  -3.1600000000000003E-002     1.0428270469375889E-009
  -3.1500000000000000E-002     1.2990097886245167E-009
  -3.1399999999999997E-002     1.5516300466700272E-009
  -3.1300000000000001E-002     1.7891933490332690E-009
  -3.1199999999999999E-002     1.9997430378282388E-009
  -3.1100000000000003E-002     2.1713288944624765E-009
  -3.1000000000000000E-002     2.2925250586780521E-009
  -3.0900000000000000E-002     2.3529795889487559E-009
  -3.0800000000000001E-002     2.3439798990665395E-009
  -3.0699999999999998E-002     2.2590092019214580E-009
  -3.0600000000000002E-002     2.0942747536167872E-009
  -3.0499999999999999E-002     1.8491826958566548E-009
  -3.0400000000000000E-002     1.5267348496550426E-009
  -3.0300000000000001E-002     1.1338275873740145E-009
  -3.0200000000000001E-002     6.8143041209722810E-010
  -3.0100000000000002E-002     1.8462627260351638E-010
  -2.9999999999999999E-002    -3.3749947281336290E-010
  -2.9899999999999999E-002    -8.6213125527478951E-010
  -2.9800000000000000E-002    -1.3631605844111050E-009
  -2.9700000000000001E-002    -1.8117860545174835E-009
  -2.9600000000000001E-002    -2.1772683655996161E-009
  -2.9499999999999998E-002    -2.4278243859754411E-009
  -2.9400000000000003E-002    -2.5316406748743248E-009
  -2.9300000000000000E-002    -2.4579758228782111E-009
  -2.9200000000000000E-002    -2.1783228554284051E-009
  -2.9100000000000001E-002    -1.6675901770568657E-009
  -2.8999999999999998E-002    -9.0526292018111576E-010
  -2.8900000000000002E-002     1.2350173661523911E-010
  -2.8799999999999999E-002     1.4268869419353791E-009
  -2.8700000000000000E-002     3.0055813393659037E-009
  -2.8600000000000000E-002     4.8521373585685978E-009
  -2.8500000000000001E-002     6.9505592392715698E-009
  -2.8400000000000002E-002     9.2761540670949216E-009
  -2.8299999999999999E-002     1.1795662224756143E-008
  -2.8200000000000003E-002     1.4467694597897207E-008
  -2.8100000000000000E-002     1.7243468874994505E-008
  -2.8000000000000001E-002     2.0067847827931473E-008
  -2.7900000000000001E-002     2.2880653816059748E-008
  -2.7799999999999998E-002     2.5618248855607817E-008
  -2.7700000000000002E-002     2.8215316305590932E-008
  -2.7600000000000000E-002     3.0606823742118650E-008
  -2.7500000000000000E-002     3.2730078203258017E-008
  -2.7400000000000001E-002     3.4526848935456655E-008
  -2.7299999999999998E-002     3.5945443954688017E-008
  -2.7200000000000002E-002     3.6942694237040996E-008
  -2.7099999999999999E-002     3.7485769155409798E-008
  -2.7000000000000000E-002     3.7553753884367325E-008
  -2.6900000000000000E-002     3.7138903508093790E-008
  -2.6800000000000001E-002     3.6247545409651138E-008
  -2.6700000000000002E-002     3.4900541123761286E-008
  -2.6599999999999999E-002     3.3133314758515553E-008
  -2.6500000000000003E-002     3.0995398248023776E-008
  -2.6400000000000000E-002     2.8549486330575746E-008
  -2.6300000000000000E-002     2.5870024344953890E-008
  -2.6200000000000001E-002     2.3041351937536092E-008
  -2.6099999999999998E-002     2.0155439983682299E-008
  -2.6000000000000002E-002     1.7309290001321642E-008
  -2.5899999999999999E-002     1.4602067111013639E-008
  -2.5800000000000000E-002     1.2132052695790208E-008
  -2.5700000000000001E-002     9.9935224540104173E-009
  -2.5599999999999998E-002     8.2736466566757372E-009
  -2.5500000000000002E-002     7.0495254078650760E-009
  -2.5399999999999999E-002     6.3854646015215621E-009
  -2.5300000000000000E-002     6.3305996000906362E-009
  -2.5200000000000000E-002     6.9169621141895732E-009
  -2.5100000000000001E-002     8.1580697752769993E-009
  -2.5000000000000001E-002     1.0048109011506767E-008
  -2.4899999999999999E-002     1.2561765849739004E-008
  -2.4800000000000003E-002     1.5654721963187512E-008
  -2.4700000000000000E-002     1.9264833284182714E-008
  -2.4600000000000000E-002     2.3313965868965170E-008
  -2.4500000000000001E-002     2.7710447270123950E-008
  -2.4399999999999998E-002     3.2352069467833644E-008
  -2.4299999999999999E-002     3.7129552765691187E-008
  -2.4199999999999999E-002     4.1930370286991092E-008
  -2.4100000000000000E-002     4.6642789186535083E-008
  -2.4000000000000000E-002     5.1160011338424738E-008
  -2.3900000000000001E-002     5.5384283825787861E-008
  -2.3800000000000002E-002     5.9230767845974697E-008
  -2.3699999999999999E-002     6.2631116293232481E-008
  -2.3599999999999999E-002     6.5536525539755530E-008
  -2.3500000000000000E-002     6.7920211677119369E-008
  -2.3400000000000001E-002     6.9779169109551731E-008
  -2.3300000000000001E-002     7.1135133339339518E-008
  -2.3199999999999998E-002     7.2034708864521235E-008
  -2.3099999999999999E-002     7.2548580476450297E-008
  -2.3000000000000000E-002     7.2769886116930138E-008
  -2.2900000000000000E-002     7.2811715767784335E-008
  -2.2800000000000001E-002     7.2803864270554186E-008
  -2.2700000000000001E-002     7.2888887814315240E-008
  -2.2599999999999999E-002     7.3217599094732577E-008
  -2.2499999999999999E-002     7.3944136147474637E-008
  -2.2400000000000000E-002     7.5220846440515743E-008
  -2.2300000000000000E-002     7.7193035963318835E-008
  -2.2200000000000001E-002     7.9993895951702143E-008
  -2.2100000000000002E-002     8.3739692513518094E-008
  -2.1999999999999999E-002     8.8525482055956672E-008
  -2.1899999999999999E-002     9.4421480412165693E-008
  -2.1800000000000000E-002     1.0147024198658983E-007
  -2.1700000000000001E-002     1.0968474839501141E-007
  -2.1600000000000001E-002     1.1904755581326754E-007
  -2.1499999999999998E-002     1.2951099392921606E-007
  -2.1399999999999999E-002     1.4099846623594203E-007
  -2.1299999999999999E-002     1.5340690140419611E-007
  -2.1200000000000000E-002     1.6661012125496200E-007
  -2.1100000000000001E-002     1.8046320349185407E-007
  -2.1000000000000001E-002     1.9480759760881483E-007
  -2.0899999999999998E-002     2.0947693712969340E-007
  -2.0799999999999999E-002     2.2430319290833722E-007
  -2.0700000000000000E-002     2.3912312485663278E-007
  -2.0600000000000000E-002     2.5378466261827271E-007
  -2.0500000000000001E-002     2.6815317255568516E-007
  -2.0400000000000001E-002     2.8211707103764638E-007
  -2.0299999999999999E-002     2.9559302561210643E-007
  -2.0199999999999999E-002     3.0853007615405659E-007
  -2.0100000000000000E-002     3.2091284651869501E-007
  -2.0000000000000000E-002     3.3276359090450569E-007
  -1.9900000000000001E-002     3.4414293281770370E-007
  -1.9799999999999998E-002     3.5514943874659366E-007
  -1.9699999999999999E-002     3.6591771390703798E-007
  -1.9599999999999999E-002     3.7661544638467603E-007
  -1.9500000000000000E-002     3.8743920072192850E-007
  -1.9400000000000001E-002     3.9860915990175272E-007
  -1.9300000000000001E-002     4.1036318521037174E-007
  -1.9199999999999998E-002     4.2295008029213932E-007
  -1.9099999999999999E-002     4.3662265625243890E-007
  -1.9000000000000000E-002     4.5163048412177886E-007
  -1.8900000000000000E-002     4.6821295995869150E-007
  -1.8800000000000001E-002     4.8659262574801687E-007
  -1.8700000000000001E-002     5.0696934295046958E-007
  -1.8599999999999998E-002     5.2951503448639414E-007
  -1.8499999999999999E-002     5.5436987622670131E-007
  -1.8400000000000000E-002     5.8163965377389104E-007
  -1.8300000000000000E-002     6.1139439821999986E-007
  -1.8200000000000001E-002     6.4366838614660082E-007
  -1.8100000000000002E-002     6.7846212914446369E-007
  -1.7999999999999999E-002     7.1574515914107906E-007
  -1.7899999999999999E-002     7.5546046218732954E-007
  -1.7800000000000000E-002     7.9753033332963241E-007
  -1.7700000000000000E-002     8.4186291360310861E-007
  -1.7600000000000001E-002     8.8835963651945349E-007
  -1.7499999999999998E-002     9.3692341351925279E-007
  -1.7399999999999999E-002     9.8746670573746087E-007
  -1.7299999999999999E-002     1.0399198799859732E-006
  -1.7200000000000000E-002     1.0942391099888482E-006
  -1.7100000000000001E-002     1.1504134818096645E-006
  -1.7000000000000001E-002     1.2084717582183657E-006
  -1.6899999999999998E-002     1.2684870398516068E-006
  -1.6799999999999999E-002     1.3305811989994254E-006
  -1.6700000000000000E-002     1.3949271533419960E-006
  -1.6600000000000000E-002     1.4617496617574943E-006
  -1.6500000000000001E-002     1.5313244148273952E-006
  -1.6400000000000001E-002     1.6039762158470694E-006
  -1.6299999999999999E-002     1.6800750017864630E-006
  -1.6199999999999999E-002     1.7600303863218869E-006
  -1.6100000000000000E-002     1.8442858618072933E-006
  -1.6000000000000000E-002     1.9333110685693100E-006
  -1.5900000000000001E-002     2.0275949736969778E-006
  -1.5799999999999998E-002     2.1276364350342192E-006
  -1.5699999999999999E-002     2.2339370389090618E-006
  -1.5599999999999999E-002     2.3469933694286738E-006
  -1.5500000000000000E-002     2.4672897325217491E-006
  -1.5400000000000000E-002     2.5952915621019201E-006
  -1.5300000000000001E-002     2.7314415547152748E-006
  -1.5199999999999998E-002     2.8761553494405234E-006
  -1.5099999999999999E-002     3.0298208457679721E-006
  -1.4999999999999999E-002     3.1927968393574702E-006
  -1.4900000000000000E-002     3.3654157505225157E-006
  -1.4800000000000001E-002     3.5479863527143607E-006
  -1.4700000000000001E-002     3.7407999116112478E-006
  -1.4599999999999998E-002     3.9441360968339723E-006
  -1.4499999999999999E-002     4.1582711673981976E-006
  -1.4400000000000000E-002     4.3834870666614734E-006
  -1.4300000000000000E-002     4.6200811993912794E-006
  -1.4200000000000001E-002     4.8683768909540959E-006
  -1.4099999999999998E-002     5.1287320275150705E-006
  -1.3999999999999999E-002     5.4015522437111940E-006
  -1.3899999999999999E-002     5.6872968343668617E-006
  -1.3800000000000000E-002     5.9864892136829440E-006
  -1.3700000000000000E-002     6.2997232816996984E-006
  -1.3600000000000001E-002     6.6276688812649809E-006
  -1.3499999999999998E-002     6.9710758907604031E-006
  -1.3399999999999999E-002     7.3307778620801400E-006
  -1.3299999999999999E-002     7.7076892921468243E-006
  -1.3200000000000000E-002     8.1028065324062482E-006
  -1.3100000000000001E-002     8.5172050603432581E-006
  -1.3000000000000001E-002     8.9520317487767898E-006
  -1.2899999999999998E-002     9.4085025921231136E-006
  -1.2799999999999999E-002     9.8878936114488170E-006
  -1.2699999999999999E-002     1.0391533578513190E-005
  -1.2600000000000000E-002     1.0920798558800016E-005
  -1.2500000000000001E-002     1.1477099178591743E-005
  -1.2399999999999998E-002     1.2061876986990683E-005
  -1.2299999999999998E-002     1.2676597179961391E-005
  -1.2199999999999999E-002     1.3322744052857161E-005
  -1.2100000000000000E-002     1.4001813724462409E-005
  -1.2000000000000000E-002     1.4715316865476780E-005
  -1.1900000000000001E-002     1.5464775060536340E-005
  -1.1799999999999998E-002     1.6251722627202980E-005
  -1.1699999999999999E-002     1.7077712982427329E-005
  -1.1599999999999999E-002     1.7944325009011663E-005
  -1.1500000000000000E-002     1.8853164874599315E-005
  -1.1400000000000000E-002     1.9805882402579300E-005
  -1.1300000000000001E-002     2.0804180167033337E-005
  -1.1199999999999998E-002     2.1849820768693462E-005
  -1.1099999999999999E-002     2.2944650481804274E-005
  -1.0999999999999999E-002     2.4090599254122935E-005
  -1.0900000000000000E-002     2.5289706172770821E-005
  -1.0800000000000001E-002     2.6544123102212325E-005
  -1.0699999999999998E-002     2.7856132874148898E-005
  -1.0599999999999998E-002     2.9228152925497852E-005
  -1.0499999999999999E-002     3.0662751669296995E-005
  -1.0400000000000000E-002     3.2162653951672837E-005
  -1.0300000000000000E-002     3.3730742870829999E-005
  -1.0200000000000001E-002     3.5370063415030017E-005
  -1.0099999999999998E-002     3.7083831557538360E-005
  -9.9999999999999985E-003     3.8875423342688009E-005
  -9.8999999999999991E-003     4.0748367609921843E-005
  -9.7999999999999997E-003     4.2706360545707867E-005
  -9.7000000000000003E-003     4.4753240217687562E-005
  -9.6000000000000009E-003     4.6892990212654695E-005
  -9.4999999999999980E-003     4.9129728722618893E-005
  -9.3999999999999986E-003     5.1467697630869225E-005
  -9.2999999999999992E-003     5.3911262511974201E-005
  -9.1999999999999998E-003     5.6464898079866543E-005
  -9.1000000000000004E-003     5.9133177273906767E-005
  -9.0000000000000011E-003     6.1920785810798407E-005
  -8.8999999999999982E-003     6.4832507632672787E-005
  -8.7999999999999988E-003     6.7873217631131411E-005
  -8.6999999999999994E-003     7.1047892561182380E-005
  -8.5999999999999965E-003     7.4361625593155622E-005
  -8.5000000000000006E-003     7.7819611760787666E-005
  -8.3999999999999977E-003     8.1427169789094478E-005
  -8.3000000000000018E-003     8.5189749370329082E-005
  -8.1999999999999990E-003     8.9112952991854399E-005
  -8.0999999999999961E-003     9.3202543212100863E-005
  -8.0000000000000002E-003     9.7464457212481648E-005
  -7.8999999999999973E-003     1.0190482862526551E-004
  -7.8000000000000014E-003     1.0653000936144963E-004
  -7.6999999999999985E-003     1.1134656233480200E-004
  -7.6000000000000026E-003     1.1636131239356473E-004
  -7.4999999999999997E-003     1.2158133176853880E-004
  -7.3999999999999969E-003     1.2701399100478739E-004
  -7.3000000000000009E-003     1.3266690075397491E-004
  -7.1999999999999981E-003     1.3854798453394324E-004
  -7.1000000000000021E-003     1.4466549328062683E-004
  -6.9999999999999993E-003     1.5102793986443430E-004
  -6.8999999999999964E-003     1.5764412819407880E-004
  -6.8000000000000005E-003     1.6452319687232375E-004
  -6.6999999999999976E-003     1.7167456098832190E-004
  -6.6000000000000017E-003     1.7910794122144580E-004
  -6.4999999999999988E-003     1.8683330563362688E-004
  -6.3999999999999960E-003     1.9486091332510114E-004
  -6.3000000000000000E-003     2.0320127077866346E-004
  -6.1999999999999972E-003     2.1186514641158283E-004
  -6.1000000000000013E-003     2.2086354147177190E-004
  -5.9999999999999984E-003     2.3020767548587173E-004
  -5.9000000000000025E-003     2.3990900081116706E-004
  -5.7999999999999996E-003     2.4997917353175581E-004
  -5.6999999999999967E-003     2.6043009711429477E-004
  -5.6000000000000008E-003     2.7127380599267781E-004
  -5.4999999999999979E-003     2.8252261108718812E-004
  -5.4000000000000020E-003     2.9418899794109166E-004
  -5.2999999999999992E-003     3.0628571403212845E-004
  -5.1999999999999963E-003     3.1882568146102130E-004
  -5.1000000000000004E-003     3.3182211336679757E-004
  -4.9999999999999975E-003     3.4528845571912825E-004
  -4.9000000000000016E-003     3.5923838731832802E-004
  -4.7999999999999987E-003     3.7368593621067703E-004
  -4.6999999999999958E-003     3.8864536327309906E-004
  -4.5999999999999999E-003     4.0413127862848341E-004
  -4.4999999999999971E-003     4.2015864164568484E-004
  -4.4000000000000011E-003     4.3674276093952358E-004
  -4.2999999999999983E-003     4.5389923616312444E-004
  -4.2000000000000023E-003     4.7164413263089955E-004
  -4.0999999999999995E-003     4.8999377759173512E-004
  -3.9999999999999966E-003     5.0896499305963516E-004
  -3.9000000000000007E-003     5.2857486298307776E-004
  -3.7999999999999978E-003     5.4884096607565880E-004
  -3.7000000000000019E-003     5.6978105567395687E-004
  -3.5999999999999990E-003     5.9141340898349881E-004
  -3.4999999999999962E-003     6.1375659424811602E-004
  -3.4000000000000002E-003     6.3682947074994445E-004
  -3.2999999999999974E-003     6.6065113060176373E-004
  -3.2000000000000015E-003     6.8524107336997986E-004
  -3.0999999999999986E-003     7.1061891503632069E-004
  -2.9999999999999957E-003     7.3680462082847953E-004
  -2.8999999999999998E-003     7.6381827238947153E-004
  -2.7999999999999969E-003     7.9168012598529458E-004
  -2.7000000000000010E-003     8.2041055429726839E-004
  -2.5999999999999981E-003     8.5003016283735633E-004
  -2.5000000000000022E-003     8.8055955711752176E-004
  -2.3999999999999994E-003     9.1201951727271080E-004
  -2.2999999999999965E-003     9.4443082343786955E-004
  -2.2000000000000006E-003     9.7781443037092686E-004
  -2.0999999999999977E-003     1.0121912928298116E-003
  -2.0000000000000018E-003     1.0475822491571307E-003
  -1.8999999999999989E-003     1.0840083705261350E-003
  -1.7999999999999960E-003     1.1214909609407187E-003
  -1.7000000000000001E-003     1.1600509751588106E-003
  -1.5999999999999973E-003     1.1997097171843052E-003
  -1.5000000000000013E-003     1.2404882581904531E-003
  -1.3999999999999985E-003     1.2824079021811485E-003
  -1.2999999999999956E-003     1.3254900695756078E-003
  -1.1999999999999997E-003     1.3697561807930470E-003
  -1.0999999999999968E-003     1.4152275398373604E-003
  -1.0000000000000009E-003     1.4619255671277642E-003
  -8.9999999999999802E-004     1.5098717994987965E-003
  -8.0000000000000210E-004     1.5590876573696733E-003
  -6.9999999999999923E-004     1.6095945611596107E-003
  -5.9999999999999637E-004     1.6614139312878251E-003
  -5.0000000000000044E-004     1.7145670717582107E-003
  -3.9999999999999758E-004     1.7690750537440181E-003
  -3.0000000000000165E-004     1.8249591812491417E-003
  -1.9999999999999879E-004     1.8822399433702230E-003
  -9.9999999999995925E-005     1.9409380620345473E-003
   0.0000000000000000          2.0010736770927906E-003
   1.0000000000000286E-004     2.0626669283956289E-003
   1.9999999999999879E-004     2.1257372573018074E-003
   3.0000000000000165E-004     2.1903035230934620E-003
   4.0000000000000452E-004     2.2563841193914413E-003
   5.0000000000000044E-004     2.3239972069859505E-003
   6.0000000000000331E-004     2.3931600153446198E-003
   6.9999999999999923E-004     2.4638888426125050E-003
   8.0000000000000210E-004     2.5361999869346619E-003
   8.9999999999999802E-004     2.6101083494722843E-003
   1.0000000000000009E-003     2.6856279000639915E-003
   1.1000000000000038E-003     2.7627723757177591E-003
   1.1999999999999997E-003     2.8415541164577007E-003
   1.3000000000000025E-003     2.9219847638159990E-003
   1.3999999999999985E-003     3.0040750280022621E-003
   1.5000000000000013E-003     3.0878342222422361E-003
   1.6000000000000042E-003     3.1732709612697363E-003
   1.7000000000000001E-003     3.2603929284960032E-003
   1.8000000000000030E-003     3.3492064103484154E-003
   1.8999999999999989E-003     3.4397167619317770E-003
   2.0000000000000018E-003     3.5319279413670301E-003
   2.1000000000000046E-003     3.6258429754525423E-003
   2.2000000000000006E-003     3.7214637268334627E-003
   2.3000000000000034E-003     3.8187906611710787E-003
   2.3999999999999994E-003     3.9178226143121719E-003
   2.5000000000000022E-003     4.0185572579503059E-003
   2.5999999999999981E-003     4.1209910996258259E-003
   2.7000000000000010E-003     4.2251190170645714E-003
   2.8000000000000039E-003     4.3309344910085201E-003
   2.8999999999999998E-003     4.4384286738932133E-003
   3.0000000000000027E-003     4.5475913211703300E-003
   3.0999999999999986E-003     4.6584103256464005E-003
   3.2000000000000015E-003     4.7708721831440926E-003
   3.3000000000000043E-003     4.8849605955183506E-003
   3.4000000000000002E-003     5.0006583333015442E-003
   3.5000000000000031E-003     5.1179449073970318E-003
   3.5999999999999990E-003     5.2367979660630226E-003
   3.7000000000000019E-003     5.3571932949125767E-003
   3.7999999999999978E-003     5.4791038855910301E-003
   3.9000000000000007E-003     5.6024999357759953E-003
   4.0000000000000036E-003     5.7273497804999352E-003
   4.0999999999999995E-003     5.8536184951663017E-003
   4.2000000000000023E-003     5.9812683612108231E-003
   4.2999999999999983E-003     6.1102597974240780E-003
   4.4000000000000011E-003     6.2405494973063469E-003
   4.5000000000000040E-003     6.3720922917127609E-003
   4.5999999999999999E-003     6.5048388205468655E-003
   4.7000000000000028E-003     6.6387373954057693E-003
   4.7999999999999987E-003     6.7737335339188576E-003
   4.9000000000000016E-003     6.9097690284252167E-003
   5.0000000000000044E-003     7.0467833429574966E-003
   5.1000000000000004E-003     7.1847122162580490E-003
   5.2000000000000032E-003     7.3234881274402142E-003
   5.2999999999999992E-003     7.4630407616496086E-003
   5.4000000000000020E-003     7.6032960787415504E-003
   5.4999999999999979E-003     7.7441767789423466E-003
   5.6000000000000008E-003     7.8856032341718674E-003
   5.7000000000000037E-003     8.0274892970919609E-003
   5.7999999999999996E-003     8.1697488203644753E-003
   5.9000000000000025E-003     8.3122914656996727E-003
   5.9999999999999984E-003     8.4550222381949425E-003
   6.1000000000000013E-003     8.5978414863348007E-003
   6.2000000000000041E-003     8.7406486272811890E-003
   6.3000000000000000E-003     8.8833365589380264E-003
   6.4000000000000029E-003     9.0257963165640831E-003
   6.4999999999999988E-003     9.1679142788052559E-003
   6.6000000000000017E-003     9.3095730990171432E-003
   6.7000000000000046E-003     9.4506507739424706E-003
   6.8000000000000005E-003     9.5910215750336647E-003
   6.9000000000000034E-003     9.7305560484528542E-003
   6.9999999999999993E-003     9.8691191524267197E-003
   7.1000000000000021E-003     1.0006572119891644E-002
   7.1999999999999981E-003     1.0142773389816284E-002
   7.3000000000000009E-003     1.0277575813233852E-002
   7.4000000000000038E-003     1.0410827584564686E-002
   7.4999999999999997E-003     1.0542373172938824E-002
   7.6000000000000026E-003     1.0672052390873432E-002
   7.6999999999999985E-003     1.0799701325595379E-002
   7.8000000000000014E-003     1.0925151407718658E-002
   7.9000000000000042E-003     1.1048230342566967E-002
   8.0000000000000002E-003     1.1168758384883404E-002
   8.1000000000000030E-003     1.1286556720733643E-002
   8.1999999999999990E-003     1.1401438154280186E-002
   8.3000000000000018E-003     1.1513212695717812E-002
   8.4000000000000047E-003     1.1621687561273575E-002
   8.5000000000000006E-003     1.1726663447916508E-002
   8.6000000000000035E-003     1.1827938258647919E-002
   8.6999999999999994E-003     1.1925306171178818E-002
   8.8000000000000023E-003     1.2018557637929916E-002
   8.8999999999999982E-003     1.2107478454709053E-002
   9.0000000000000011E-003     1.2191849760711193E-002
   9.1000000000000039E-003     1.2271451763808727E-002
   9.1999999999999998E-003     1.2346058152616024E-002
   9.3000000000000027E-003     1.2415441684424877E-002
   9.3999999999999986E-003     1.2479368597269058E-002
   9.5000000000000015E-003     1.2537603266537189E-002
   9.6000000000000044E-003     1.2589908204972744E-002
   9.7000000000000003E-003     1.2636040337383747E-002
   9.8000000000000032E-003     1.2675753794610500E-002
   9.8999999999999991E-003     1.2708800844848156E-002
   1.0000000000000002E-002     1.2734929099678993E-002
   1.0100000000000005E-002     1.2753884308040142E-002
   1.0200000000000001E-002     1.2765409424901009E-002
   1.0300000000000004E-002     1.2769243679940701E-002
   1.0400000000000000E-002     1.2765126302838326E-002
   1.0500000000000002E-002     1.2752791866660118E-002
   1.0599999999999998E-002     1.2731973081827164E-002
   1.0700000000000001E-002     1.2702402658760548E-002
   1.0800000000000004E-002     1.2663808651268482E-002
   1.0900000000000000E-002     1.2615920044481754E-002
   1.1000000000000003E-002     1.2558462098240852E-002
   1.1099999999999999E-002     1.2491160072386265E-002
   1.1200000000000002E-002     1.2413738295435905E-002
   1.1300000000000004E-002     1.2325920164585114E-002
   1.1400000000000000E-002     1.2227429077029228E-002
   1.1500000000000003E-002     1.2117987498641014E-002
   1.1599999999999999E-002     1.1997317895293236E-002
   1.1700000000000002E-002     1.1865144595503807E-002
   1.1800000000000005E-002     1.1721190065145493E-002
   1.1900000000000001E-002     1.1565178632736206E-002
   1.2000000000000004E-002     1.1396836489439011E-002
   1.2100000000000000E-002     1.1215890757739544E-002
   1.2200000000000003E-002     1.1022070422768593E-002
   1.2299999999999998E-002     1.0815105400979519E-002
   1.2400000000000001E-002     1.0594729334115982E-002
   1.2500000000000004E-002     1.0360677726566792E-002
   1.2600000000000000E-002     1.0112689808011055E-002
   1.2700000000000003E-002     9.8505066707730293E-003
   1.2799999999999999E-002     9.5738731324672699E-003
   1.2900000000000002E-002     9.2825395986437798E-003
   1.3000000000000005E-002     8.9762583374977112E-003
   1.3100000000000001E-002     8.6547881364822388E-003
   1.3200000000000003E-002     8.3178915083408356E-003
   1.3299999999999999E-002     7.9653356224298477E-003
   1.3400000000000002E-002     7.5968946330249310E-003
   1.3500000000000005E-002     7.2123478166759014E-003
   1.3600000000000001E-002     6.8114805035293102E-003
   1.3700000000000004E-002     6.3940845429897308E-003
   1.3800000000000000E-002     5.9599592350423336E-003
   1.3900000000000003E-002     5.5089108645915985E-003
   1.3999999999999999E-002     5.0407531671226025E-003
   1.4100000000000001E-002     4.5553091913461685E-003
   1.4200000000000004E-002     4.0524094365537167E-003
   1.4300000000000000E-002     3.5318934824317694E-003
   1.4400000000000003E-002     2.9936102218925953E-003