  -4.0000000000000001E-002     0.0000000000000000
  -3.9899999999999998E-002     0.0000000000000000
  -3.9800000000000002E-002     0.0000000000000000
  -3.9699999999999999E-002     0.0000000000000000
  -3.9600000000000003E-002    -3.2107128081335257E-019
  -3.9500000000000000E-002    -2.8578111240421793E-018
  -3.9399999999999998E-002    -1.4078947433043804E-017
  -3.9300000000000002E-002    -5.0671635538008186E-017
  -3.9199999999999999E-002    -1.4864163336218071E-016
  -3.9100000000000003E-002    -3.7641574541250985E-016
  -3.9000000000000000E-002    -8.5204139249963188E-016
  -3.8900000000000004E-002    -1.7639557128824484E-015
  -3.8800000000000001E-002    -3.3940386890930593E-015
  -3.8699999999999998E-002    -6.1408203523701367E-015
  -3.8600000000000002E-002    -1.0539854650750419E-014
  -3.8500000000000000E-002    -1.7277471471660406E-014
  -3.8400000000000004E-002    -2.7193487522903354E-014
  -3.8300000000000001E-002    -4.1268008415934778E-014
  -3.8199999999999998E-002    -6.0587424717950117E-014
  -3.8100000000000002E-002    -8.6284959980400305E-014
  -3.7999999999999999E-002    -1.1945189048321725E-013
  -3.7900000000000003E-002    -1.6101684951276255E-013
  -3.7800000000000000E-002    -2.1159218672982261E-013
  -3.7699999999999997E-002    -2.7128880618068093E-013
  -3.7600000000000001E-002    -3.3950302549579173E-013
  -3.7499999999999999E-002    -4.1468237985769975E-013
  -3.7400000000000003E-002    -4.9407989120261429E-013
  -3.7300000000000000E-002    -5.7350961393670986E-013
  -3.7200000000000004E-002    -6.4711875639918005E-013
  -3.7100000000000001E-002    -7.0719481017880003E-013
  -3.6999999999999998E-002    -7.4402747223102135E-013
  -3.6900000000000002E-002    -7.4584628662038972E-013
  -3.6799999999999999E-002    -6.9885574248163857E-013
  -3.6700000000000003E-002    -5.8738820282115901E-013
  -3.6600000000000001E-002    -3.9419258000408307E-013
  -3.6499999999999998E-002    -1.0087411999340746E-013
  -3.6400000000000002E-002     3.1150497562291838E-013
  -3.6299999999999999E-002     8.6165935050012541E-013
  -3.6200000000000003E-002     1.5671520904303191E-012
  -3.6100000000000000E-002     2.4433164340605972E-012
  -3.6000000000000004E-002     3.5020455209792486E-012
  -3.5900000000000001E-002     4.7504822075609933E-012
  -3.5799999999999998E-002     6.1896458649679673E-012
  -3.5700000000000003E-002     7.8130466794295815E-012
  -3.5600000000000000E-002     9.6053407676605872E-012
  -3.5500000000000004E-002     1.1541093380371826E-011
  -3.5400000000000001E-002     1.3583717495191953E-011
  -3.5299999999999998E-002     1.5684659957020913E-011
  -3.5200000000000002E-002     1.7782908155882097E-011
  -3.5099999999999999E-002     1.9804894124828311E-011
  -3.5000000000000003E-002     2.1664854418362896E-011
  -3.4900000000000000E-002     2.3265709087370011E-011
  -3.4799999999999998E-002     2.4500508351283139E-011
  -3.4700000000000002E-002     2.5254472588994033E-011
  -3.4599999999999999E-002     2.5407648824468635E-011
  -3.4500000000000003E-002     2.4838169610254363E-011
  -3.4400000000000000E-002     2.3426089892682600E-011
  -3.4299999999999997E-002     2.1057751940852399E-011
  -3.4200000000000001E-002     1.7630590803206869E-011
  -3.4099999999999998E-002     1.3058288151881335E-011
  -3.4000000000000002E-002     7.2761418727143089E-012
  -3.3900000000000000E-002     2.4649336129259461E-013
  -3.3799999999999997E-002    -8.0359457526492005E-012
  -3.3700000000000001E-002    -1.7539063920605926E-011
  -3.3599999999999998E-002    -2.8188819476592768E-011
  -3.3500000000000002E-002    -3.9865416617314103E-011
  -3.3399999999999999E-002    -5.2400382071964702E-011
  -3.3300000000000003E-002    -6.5574782790040016E-011
  -3.3200000000000000E-002    -7.9118731340380743E-011
  -3.3099999999999997E-002    -9.2712372370898256E-011
  -3.3000000000000002E-002    -1.0598851826842657E-010
  -3.2899999999999999E-002    -1.1853698229481703E-010
  -3.2800000000000003E-002    -1.2991073349369897E-010
  -3.2700000000000000E-002    -1.3963387200299473E-010
  -3.2600000000000004E-002    -1.4721137967237221E-010
  -3.2500000000000001E-002    -1.5214058562989186E-010
  -3.2399999999999998E-002    -1.5392416294616350E-010
  -3.2300000000000002E-002    -1.5208447211429992E-010
  -3.2199999999999999E-002    -1.4617899220192316E-010
  -3.2100000000000004E-002    -1.3581645074216476E-010
  -3.2000000000000001E-002    -1.2067331700185348E-010
  -3.1899999999999998E-002    -1.0051025839369969E-010
  -3.1800000000000002E-002    -7.5188000509998074E-011
  -3.1699999999999999E-002    -4.4682163072323770E-011
  -3.1600000000000003E-002    -9.0965344185296882E-012
  -3.1500000000000000E-002     3.1325740858343950E-011
  -3.1399999999999997E-002     7.6193586057149430E-011
  -3.1300000000000001E-002     1.2496248243915401E-010
  -3.1199999999999999E-002     1.7693249551691419E-010
  -3.1100000000000003E-002     2.3125022955347389E-010
  -3.1000000000000000E-002     2.8691498095372746E-010
  -3.0900000000000000E-002     3.4278936770028006E-010
  -3.0800000000000001E-002     3.9761455214277399E-010
  -3.0699999999999998E-002     4.5002995016597920E-010
  -3.0600000000000002E-002     4.9859755295564388E-010
  -3.0499999999999999E-002     5.4183023495068090E-010
  -3.0400000000000000E-002     5.7822411144496945E-010
  -3.0300000000000001E-002     6.0629409319205028E-010
  -3.0200000000000001E-002     6.2461195208760853E-010
  -3.0100000000000002E-002     6.3184638045644917E-010
  -2.9999999999999999E-002     6.2680400783348641E-010
  -2.9899999999999999E-002     6.0847019510385636E-010
  -2.9800000000000000E-002     5.7604891301646837E-010
  -2.9700000000000001E-002     5.2900020049578310E-010
  -2.9600000000000001E-002     4.6707435540037184E-010
  -2.9499999999999998E-002     3.9034136092434826E-010
  -2.9400000000000003E-002     2.9921477575783953E-010
  -2.9300000000000000E-002     1.9446886937931625E-010
  -2.9200000000000000E-002     7.7247973725860039E-011
  -2.9100000000000001E-002    -5.0932541081331847E-011
  -2.8999999999999998E-002    -1.8819443236304442E-010
  -2.8900000000000002E-002    -3.3231438347931112E-010
  -2.8799999999999999E-002    -4.8075150040169884E-010
  -2.8700000000000000E-002    -6.3068459974595480E-010
  -2.8600000000000000E-002    -7.7905879693452379E-010
  -2.8500000000000001E-002    -9.2264097692004888E-010
  -2.8400000000000002E-002    -1.0580832790074518E-009
  -2.8299999999999999E-002    -1.1819933184738064E-009
  -2.8200000000000003E-002    -1.2910097633762713E-009
  -2.8100000000000000E-002    -1.3818817481985248E-009
  -2.8000000000000001E-002    -1.4515504099481817E-009
  -2.7900000000000001E-002    -1.4972299965850355E-009
  -2.7799999999999998E-002    -1.5164868948490271E-009
  -2.7700000000000002E-002    -1.5073146633696198E-009
  -2.7600000000000000E-002    -1.4682015390502761E-009
  -2.7500000000000000E-002    -1.3981903905036541E-009
  -2.7400000000000001E-002    -1.2969267743151451E-009
  -2.7299999999999998E-002    -1.1646954475357778E-009
  -2.7200000000000002E-002    -1.0024417624133318E-009
  -2.7099999999999999E-002    -8.1177814550462926E-010
  -2.7000000000000000E-002    -5.9497421422202167E-010
  -2.6900000000000000E-002    -3.5492998763052008E-010
  -2.6800000000000001E-002    -9.5131991810569460E-011
  -2.6700000000000002E-002     1.8040662623795712E-010
  -2.6599999999999999E-002     4.6722176814681236E-010
  -2.6500000000000003E-002     7.6048808299057468E-010
  -2.6400000000000000E-002     1.0551208162986698E-009
  -2.6300000000000000E-002     1.3458875492856760E-009
  -2.6200000000000001E-002     1.6275270768695423E-009
  -2.6099999999999998E-002     1.8948723619822782E-009
  -2.6000000000000002E-002     2.1429746769950682E-009
  -2.5899999999999999E-002     2.3672242503731500E-009
  -2.5800000000000000E-002     2.5634655065014509E-009
  -2.5700000000000001E-002     2.7281026674964331E-009
  -2.5599999999999998E-002     2.8581919401688193E-009
  -2.5500000000000002E-002     2.9515180628412142E-009
  -2.5399999999999999E-002     3.0066518984022108E-009
  -2.5300000000000000E-002     3.0229874107461202E-009
  -2.5200000000000000E-002     3.0007553583722644E-009
  -2.5100000000000001E-002     2.9410138107367017E-009
  -2.5000000000000001E-002     2.8456141738627463E-009
  -2.4899999999999999E-002     2.7171444819498976E-009
  -2.4800000000000003E-002     2.5588485665094229E-009
  -2.4700000000000000E-002     2.3745259520010413E-009
  -2.4600000000000000E-002     2.1684128637011835E-009
  -2.4500000000000001E-002     1.9450485952502677E-009
  -2.4399999999999998E-002     1.7091311974232820E-009
  -2.4299999999999999E-002     1.4653660182713711E-009
  -2.4199999999999999E-002     1.2183124694016673E-009
  -2.4100000000000000E-002     9.7223393930329166E-010
  -2.4000000000000000E-002     7.3095573281021443E-010
  -2.3900000000000001E-002     4.9773545216509291E-010
  -2.3800000000000002E-002     2.7515186130726739E-010
  -2.3699999999999999E-002     6.5014503673091533E-011
  -2.3599999999999999E-002    -1.3169940073444900E-010
  -2.3500000000000000E-002    -3.1488132805801648E-010
  -2.3400000000000001E-002    -4.8529540702673940E-010
  -2.3300000000000001E-002    -6.4455067112263795E-010
  -2.3199999999999998E-002    -7.9504162974748409E-010
  -2.3099999999999999E-002    -9.3985594132124174E-010
  -2.3000000000000000E-002    -1.0826532601389860E-009
  -2.2900000000000000E-002    -1.2275171744971807E-009
  -2.2800000000000001E-002    -1.3787834106929529E-009
  -2.2700000000000001E-002    -1.5408507711059914E-009
  -2.2599999999999999E-002    -1.7179787169964613E-009
  -2.2499999999999999E-002    -1.9140791200104815E-009
  -2.2400000000000000E-002    -2.1325065277618732E-009
  -2.2300000000000000E-002    -2.3758575390909636E-009
  -2.2200000000000001E-002    -2.6457806547555723E-009
  -2.2100000000000002E-002    -2.9428101287397230E-009
  -2.1999999999999999E-002    -3.2662231213459425E-009
  -2.1899999999999999E-002    -3.6139298100752461E-009
  -2.1800000000000000E-002    -3.9824004551831302E-009
  -2.1700000000000001E-002    -4.3666325098163598E-009
  -2.1600000000000001E-002    -4.7601610293967708E-009
  -2.1499999999999998E-002    -5.1551118954344293E-009
  -2.1399999999999999E-002    -5.5422997043540807E-009
  -2.1299999999999999E-002    -5.9113679851049627E-009
  -2.1200000000000000E-002    -6.2509702224493646E-009
  -2.1100000000000001E-002    -6.5489852284401593E-009
  -2.1000000000000001E-002    -6.7927635573446656E-009
  -2.0899999999999998E-002    -6.9693973932571764E-009
  -2.0799999999999999E-002    -7.0660092034510883E-009
  -2.0700000000000000E-002    -7.0700479462237743E-009
  -2.0600000000000000E-002    -6.9695894182263660E-009
  -2.0500000000000001E-002    -6.7536283891329671E-009
  -2.0400000000000001E-002    -6.4123572684933443E-009
  -2.0299999999999999E-002    -5.9374221934056229E-009
  -2.0199999999999999E-002    -5.3221555903602071E-009
  -2.0100000000000000E-002    -4.5617704154643543E-009
  -2.0000000000000000E-002    -3.6535189412347646E-009
  -1.9900000000000001E-002    -2.5968114940814792E-009
  -1.9799999999999998E-002    -1.3932907663991481E-009
  -1.9699999999999999E-002    -4.6869272253357985E-011
  -1.9599999999999999E-002     1.4362766539071067E-009
  -1.9500000000000000E-002     3.0477503428701705E-009
  -1.9400000000000001E-002     4.7770058646167510E-009
  -1.9300000000000001E-002     6.6114489346382241E-009
  -1.9199999999999998E-002     8.5365522222719324E-009
  -1.9099999999999999E-002     1.0535985853681277E-008
  -1.9000000000000000E-002     1.2591743885477416E-008
  -1.8900000000000000E-002     1.4684262298639401E-008
  -1.8800000000000001E-002     1.6792531036744755E-008
  -1.8700000000000001E-002     1.8894170214327524E-008
  -1.8599999999999998E-002     2.0965479833782854E-008
  -1.8499999999999999E-002     2.2981445996347560E-008
  -1.8400000000000000E-002     2.4915710989581233E-008
  -1.8300000000000000E-002     2.6740486691417767E-008
  -1.8200000000000001E-002     2.8426424078373823E-008
  -1.8100000000000002E-002     2.9942425723347566E-008
  -1.7999999999999999E-002     3.1255421880850330E-008
  -1.7899999999999999E-002     3.2330091117067886E-008
  -1.7800000000000000E-002     3.3128551921183493E-008
  -1.7700000000000000E-002     3.3610007575116485E-008
  -1.7600000000000001E-002     3.3730383964357318E-008
  -1.7499999999999998E-002     3.3441949419561805E-008
  -1.7399999999999999E-002     3.2692924816772446E-008
  -1.7299999999999999E-002     3.1427111528791538E-008
  -1.7200000000000000E-002     2.9583531536066216E-008
  -1.7100000000000001E-002     2.7096104632917395E-008
  -1.7000000000000001E-002     2.3893355130392743E-008
  -1.6899999999999998E-002     1.9898169482007386E-008
  -1.6799999999999999E-002     1.5027626813910922E-008
  -1.6700000000000000E-002     9.1928651826125296E-009
  -1.6600000000000000E-002     2.2990169524783233E-009
  -1.6500000000000001E-002    -5.7547783338862559E-009
  -1.6400000000000001E-002    -1.5075309407725692E-008
  -1.6299999999999999E-002    -2.5775167282318676E-008
  -1.6199999999999999E-002    -3.7972578944423680E-008
  -1.6100000000000000E-002    -5.1791159129750292E-008
  -1.6000000000000000E-002    -6.7359711103062495E-008
  -1.5900000000000001E-002    -8.4811914786116599E-008
  -1.5799999999999998E-002    -1.0428608581089034E-007
  -1.5699999999999999E-002    -1.2592483696162769E-007
  -1.5599999999999999E-002    -1.4987492632370066E-007
  -1.5500000000000000E-002    -1.7628707693083974E-007
  -1.5400000000000000E-002    -2.0531574503185962E-007
  -1.5300000000000001E-002    -2.3711906505269587E-007
  -1.5199999999999998E-002    -2.7185897821051315E-007
  -1.5099999999999999E-002    -3.0970125853975045E-007
  -1.4999999999999999E-002    -3.5081572919442210E-007
  -1.4900000000000000E-002    -3.9537665045902405E-007
  -1.4800000000000001E-002    -4.4356304409098760E-007
  -1.4700000000000001E-002    -4.9555945882063058E-007
  -1.4599999999999998E-002    -5.5155648876965444E-007
  -1.4499999999999999E-002    -6.1175158960358239E-007
  -1.4400000000000000E-002    -6.7635021271234181E-007
  -1.4300000000000000E-002    -7.4556642593060394E-007
  -1.4200000000000001E-002    -8.1962447864839421E-007
  -1.4099999999999998E-002    -8.9875955793947507E-007
  -1.3999999999999999E-002    -9.8321919966263752E-007
  -1.3899999999999999E-002    -1.0732648213401178E-006
  -1.3800000000000000E-002    -1.1691725370113358E-006
  -1.3700000000000000E-002    -1.2712354067637583E-006
  -1.3600000000000001E-002    -1.3797641221880565E-006
  -1.3499999999999998E-002    -1.4950881813188220E-006
  -1.3399999999999999E-002    -1.6175585361804438E-006
  -1.3299999999999999E-002    -1.7475477000641175E-006
  -1.3200000000000000E-002    -1.8854521913701626E-006
  -1.3100000000000001E-002    -2.0316931905630152E-006
  -1.3000000000000001E-002    -2.1867186099404105E-006
  -1.2899999999999998E-002    -2.3510038006737218E-006
  -1.2799999999999999E-002    -2.5250539107739269E-006
  -1.2699999999999999E-002    -2.7094042366257799E-006
  -1.2600000000000000E-002    -2.9046229259223343E-006
  -1.2500000000000001E-002    -3.1113113813025058E-006
  -1.2399999999999998E-002    -3.3301061317326471E-006
  -1.2299999999999998E-002    -3.5616807838550454E-006
  -1.2199999999999999E-002    -3.8067473223087120E-006
  -1.2100000000000000E-002    -4.0660584638441553E-006
  -1.2000000000000000E-002    -4.3404088739437568E-006
  -1.1900000000000001E-002    -4.6306365812865299E-006
  -1.1799999999999998E-002    -4.9376262904547223E-006
  -1.1699999999999999E-002    -5.2623118083861700E-006
  -1.1599999999999999E-002    -5.6056748890592172E-006
  -1.1500000000000000E-002    -5.9687527583219109E-006
  -1.1400000000000000E-002    -6.3526358830952749E-006
  -1.1300000000000001E-002    -6.7584746018639705E-006
  -1.1199999999999998E-002    -7.1874775490016610E-006
  -1.1099999999999999E-002    -7.6409179844955405E-006
  -1.0999999999999999E-002    -8.1201346779744190E-006
  -1.0900000000000000E-002    -8.6265364235448404E-006
  -1.0800000000000001E-002    -9.1616025754574497E-006
  -1.0699999999999998E-002    -9.7268896443711920E-006
  -1.0599999999999998E-002    -1.0324030507791487E-005
  -1.0499999999999999E-002    -1.0954740637998807E-005
  -1.0400000000000000E-002    -1.1620819552616601E-005
  -1.0300000000000000E-002    -1.2324154251888958E-005
  -1.0200000000000001E-002    -1.3066723400077735E-005
  -1.0099999999999998E-002    -1.3850601917043631E-005
  -9.9999999999999985E-003    -1.4677961688957677E-005
  -9.8999999999999991E-003    -1.5551078862192236E-005
  -9.7999999999999997E-003    -1.6472330881656486E-005
  -9.7000000000000003E-003    -1.7444210978788433E-005
  -9.6000000000000009E-003    -1.8469320950825628E-005
  -9.4999999999999980E-003    -1.9550382509251857E-005
  -9.3999999999999986E-003    -2.0690242276314448E-005
  -9.2999999999999992E-003    -2.1891867369771585E-005
  -9.1999999999999998E-003    -2.3158366427920407E-005
  -9.1000000000000004E-003    -2.4492978208593238E-005
  -9.0000000000000011E-003    -2.5899083405302457E-005
  -8.8999999999999982E-003    -2.7380212133847203E-005
  -8.7999999999999988E-003    -2.8940045889532955E-005
  -8.6999999999999994E-003    -3.0582433083231047E-005
  -8.5999999999999965E-003    -3.2311376261943629E-005
  -8.5000000000000006E-003    -3.4131062454241772E-005
  -8.3999999999999977E-003    -3.6045850971315588E-005
  -8.3000000000000018E-003    -3.8060288813131706E-005
  -8.1999999999999990E-003    -4.0179117583215526E-005
  -8.0999999999999961E-003    -4.2407286408586716E-005
  -8.0000000000000002E-003    -4.4749947989781538E-005
  -7.8999999999999973E-003    -4.7212481392696872E-005
  -7.8000000000000014E-003    -4.9800471459175930E-005
  -7.6999999999999985E-003    -5.2519760892727599E-005
  -7.6000000000000026E-003    -5.5376418541917588E-005
  -7.4999999999999997E-003    -5.8376769090544829E-005
  -7.3999999999999969E-003    -6.1527407505331747E-005
  -7.3000000000000009E-003    -6.4835183220549313E-005
  -7.1999999999999981E-003    -6.8307229493747365E-005
  -7.1000000000000021E-003    -7.1950965750115824E-005
  -6.9999999999999993E-003    -7.5774097767848650E-005
  -6.8999999999999964E-003    -7.9784660189655176E-005
  -6.8000000000000005E-003    -8.3990973249681341E-005
  -6.6999999999999976E-003    -8.8401693376501827E-005
  -6.6000000000000017E-003    -9.3025813116423800E-005
  -6.4999999999999988E-003    -9.7872654114506118E-005
  -6.3999999999999960E-003    -1.0295189858385424E-004
  -6.3000000000000000E-003    -1.0827357702126745E-004
  -6.1999999999999972E-003    -1.1384810829700092E-004
  -6.1000000000000013E-003    -1.1968629103599444E-004
  -5.9999999999999984E-003    -1.2579930898319860E-004
  -5.9000000000000025E-003    -1.3219875153369832E-004
  -5.7999999999999996E-003    -1.3889661095539723E-004
  -5.6999999999999967E-003    -1.4590531095436240E-004
  -5.6000000000000008E-003    -1.5323772741890115E-004
  -5.4999999999999979E-003    -1.6090717937036698E-004
  -5.4000000000000020E-003    -1.6892743930595715E-004
  -5.2999999999999992E-003    -1.7731275708170782E-004
  -5.1999999999999963E-003    -1.8607786928945074E-004
  -5.1000000000000004E-003    -1.9523801537226957E-004
  -4.9999999999999975E-003    -2.0480893874934628E-004
  -4.9000000000000016E-003    -2.1480694881812238E-004
  -4.7999999999999987E-003    -2.2524886295181005E-004
  -4.6999999999999958E-003    -2.3615204499830169E-004
  -4.5999999999999999E-003    -2.4753446197600535E-004
  -4.4999999999999971E-003    -2.5941465142282385E-004
  -4.4000000000000011E-003    -2.7181169588875049E-004
  -4.2999999999999983E-003    -2.8474535411265851E-004
  -4.2000000000000023E-003    -2.9823602275915763E-004
  -4.0999999999999995E-003    -3.1230464534878484E-004
  -3.9999999999999966E-003    -3.2697290380411773E-004
  -3.9000000000000007E-003    -3.4226305433913528E-004
  -3.7999999999999978E-003    -3.5819810273700125E-004
  -3.7000000000000019E-003    -3.7480171117181861E-004
  -3.5999999999999990E-003    -3.9209825906765753E-004
  -3.4999999999999962E-003    -4.1011276825026898E-004
  -3.4000000000000002E-003    -4.2887107268359845E-004
  -3.2999999999999974E-003    -4.4839957941385949E-004
  -3.2000000000000015E-003    -4.6872557094102950E-004
  -3.0999999999999986E-003    -4.8987708432738264E-004
  -2.9999999999999957E-003    -5.1188278686023232E-004
  -2.8999999999999998E-003    -5.3477225261509300E-004
  -2.7999999999999969E-003    -5.5857567513933339E-004
  -2.7000000000000010E-003    -5.8332413243803881E-004
  -2.5999999999999981E-003    -6.0904948343651127E-004
  -2.5000000000000022E-003    -6.3578436473779555E-004
  -2.3999999999999994E-003    -6.6356223435025874E-004
  -2.2999999999999965E-003    -6.9241726593427793E-004
  -2.2000000000000006E-003    -7.2238458668148309E-004
  -2.0999999999999977E-003    -7.5350006276020897E-004
  -2.0000000000000018E-003    -7.8580036499780251E-004
  -1.8999999999999989E-003    -8.1932310963851729E-004
  -1.7999999999999960E-003    -8.5410665236133930E-004
  -1.7000000000000001E-003    -8.9019020702003036E-004
  -1.5999999999999973E-003    -9.2761380875741183E-004
  -1.5000000000000013E-003    -9.6641833693767581E-004
  -1.3999999999999985E-003    -1.0066456454954362E-003
  -1.2999999999999956E-003    -1.0483383209830125E-003
  -1.1999999999999997E-003    -1.0915399282477724E-003
  -1.0999999999999968E-003    -1.1362948364210708E-003
  -1.0000000000000009E-003    -1.1826481095512382E-003
  -8.9999999999999802E-004    -1.2306458146386151E-003
  -8.0000000000000210E-004    -1.2803348847684616E-003
  -6.9999999999999923E-004    -1.3317629044024603E-003
  -5.9999999999999637E-004    -1.3849786074763492E-003
  -5.0000000000000044E-004    -1.4400312189095327E-003
  -3.9999999999999758E-004    -1.4969709297219490E-003
  -3.0000000000000165E-004    -1.5558487641165000E-003
  -1.9999999999999879E-004    -1.6167164891592702E-003
  -9.9999999999995925E-005    -1.6796267774148600E-003
   0.0000000000000000         -1.7446328567547100E-003
   1.0000000000000286E-004    -1.8117887017594023E-003
   1.9999999999999879E-004    -1.8811492031013152E-003
   3.0000000000000165E-004    -1.9527694885816014E-003
   4.0000000000000452E-004    -2.0267059511309823E-003
   5.0000000000000044E-004    -2.1030154121008692E-003
   6.0000000000000331E-004    -2.1817550905411311E-003
   6.9999999999999923E-004    -2.2629830822387719E-003
   8.0000000000000210E-004    -2.3467576095222366E-003
   8.9999999999999802E-004    -2.4331376520804237E-003
   1.0000000000000009E-003    -2.5221830757774168E-003
   1.1000000000000038E-003    -2.6139535173794978E-003
   1.1999999999999997E-003    -2.7085092305345893E-003
   1.3000000000000025E-003    -2.8059111132632941E-003
   1.3999999999999985E-003    -2.9062201756295909E-003
   1.5000000000000013E-003    -3.0094976640840762E-003
   1.6000000000000042E-003    -3.1158053596905266E-003
   1.7000000000000001E-003    -3.2252042311628057E-003
   1.8000000000000030E-003    -3.3377567681868552E-003
   1.8999999999999989E-003    -3.4535246216066007E-003
   2.0000000000000018E-003    -3.5725695612586605E-003
   2.1000000000000046E-003    -3.6949531539752223E-003
   2.2000000000000006E-003    -3.8207377473161303E-003
   2.3000000000000034E-003    -3.9499847809647088E-003
   2.3999999999999994E-003    -4.0827553426951773E-003
   2.5000000000000022E-003    -4.2191105007677986E-003
   2.5999999999999981E-003    -4.3591108401200918E-003
   2.7000000000000010E-003    -4.5028172534242114E-003
   2.8000000000000039E-003    -4.6502885933761284E-003
   2.8999999999999998E-003    -4.8015845836497815E-003
   3.0000000000000027E-003    -4.9567633848821525E-003
   3.0999999999999986E-003    -5.1158826934264573E-003
   3.2000000000000015E-003    -5.2789990729130258E-003
   3.3000000000000043E-003    -5.4461686108131348E-003
   3.4000000000000002E-003    -5.6174466196000404E-003
   3.5000000000000031E-003    -5.7928863477268375E-003
   3.5999999999999990E-003    -5.9725406101785372E-003
   3.7000000000000019E-003    -6.1564607497495358E-003
   3.7999999999999978E-003    -6.3446959912731981E-003
   3.9000000000000007E-003    -6.5372956205498600E-003
   4.0000000000000036E-003    -6.7343058697903017E-003
   4.0999999999999995E-003    -6.9357720544981002E-003
   4.2000000000000023E-003    -7.1417369953874852E-003
   4.2999999999999983E-003    -7.3522420885251093E-003
   4.4000000000000011E-003    -7.5673273440907789E-003
   4.5000000000000040E-003    -7.7870293168942183E-003
   4.5999999999999999E-003    -8.0113830523093343E-003
   4.7000000000000028E-003    -8.2404215123272114E-003
   4.7999999999999987E-003    -8.4741744442374083E-003
   4.9000000000000016E-003    -8.7126690650584093E-003
   5.0000000000000044E-003    -8.9559298406783876E-003
   5.1000000000000004E-003    -9.2039789248271036E-003
   5.2000000000000032E-003    -9.4568353114055856E-003
   5.2999999999999992E-003    -9.7145153934387538E-003
   5.4000000000000020E-003    -9.9770313814164686E-003
   5.4999999999999979E-003    -1.0244393325479592E-002
   5.6000000000000008E-003    -1.0516606126786046E-002
   5.7000000000000037E-003    -1.0793673180582082E-002
   5.7999999999999996E-003    -1.1075592574842348E-002
   5.9000000000000025E-003    -1.1362359145989771E-002
   5.9999999999999984E-003    -1.1653963706400570E-002
   6.1000000000000013E-003    -1.1950394137016887E-002
   6.2000000000000041E-003    -1.2251631861650585E-002
   6.3000000000000000E-003    -1.2557655143516148E-002
   6.4000000000000029E-003    -1.2868438741594199E-002
   6.4999999999999988E-003    -1.3183951768101367E-002
   6.6000000000000017E-003    -1.3504159441044467E-002
   6.7000000000000046E-003    -1.3829020095344036E-002
   6.8000000000000005E-003    -1.4158490467378798E-002
   6.9000000000000034E-003    -1.4492521638900965E-002
   6.9999999999999993E-003    -1.4831056956563747E-002
   7.1000000000000021E-003    -1.5174036620657333E-002
   7.1999999999999981E-003    -1.5521395340447511E-002
   7.3000000000000009E-003    -1.5873061496802166E-002
   7.4000000000000038E-003    -1.6228959756286278E-002
   7.4999999999999997E-003    -1.6589006297590379E-002
   7.6000000000000026E-003    -1.6953116067050744E-002
   7.6999999999999985E-003    -1.7321192771984888E-002
   7.8000000000000014E-003    -1.7693138629836441E-002
   7.9000000000000042E-003    -1.8068847098027509E-002
   8.0000000000000002E-003    -1.8448208045962776E-002
   8.1000000000000030E-003    -1.8831104410960125E-002
   8.1999999999999990E-003    -1.9217410769102189E-002
   8.3000000000000018E-003    -1.9607000294868830E-002
   8.4000000000000047E-003    -1.9999734655882801E-002
   8.5000000000000006E-003    -2.0395472705956923E-002
   8.6000000000000035E-003    -2.0794065384519674E-002
   8.6999999999999994E-003    -2.1195355710818736E-002
   8.8000000000000023E-003    -2.1599183590743663E-002
   8.8999999999999982E-003    -2.2005381723653378E-002
   9.0000000000000011E-003    -2.2413774668390854E-002
   9.1000000000000039E-003    -2.2824180071422794E-002
   9.1999999999999998E-003    -2.3236412495776217E-002
   9.3000000000000027E-003    -2.3650276595688764E-002
   9.3999999999999986E-003    -2.4065573214924238E-002
   9.5000000000000015E-003    -2.4482094383571202E-002
   9.6000000000000044E-003    -2.4899627836525141E-002
   9.7000000000000003E-003    -2.5317951306877418E-002
   9.8000000000000032E-003    -2.5736840342685599E-002
   9.8999999999999991E-003    -2.6156062440905258E-002
   1.0000000000000002E-002    -2.6575377999096275E-002
   1.0100000000000005E-002    -2.6994543668912921E-002
   1.0200000000000001E-002    -2.7413305767178799E-002
   1.0300000000000004E-002    -2.7831411703070505E-002
   1.0400000000000000E-002    -2.8248594206881084E-002
   1.0500000000000002E-002    -2.8664584486832560E-002
   1.0599999999999998E-002    -2.9079109904997257E-002
   1.0700000000000001E-002    -2.9491891904861831E-002
   1.0800000000000004E-002    -2.9902643784552589E-002
   1.0900000000000000E-002    -3.0311075358148809E-002
   1.1000000000000003E-002    -3.0716890398903213E-002
   1.1099999999999999E-002    -3.1119787630280671E-002
   1.1200000000000002E-002    -3.1519462474410676E-002
   1.1300000000000004E-002    -3.1915603454342911E-002
   1.1400000000000000E-002    -3.2307894706961764E-002
   1.1500000000000003E-002    -3.2696024148608865E-002
   1.1599999999999999E-002    -3.3079662964117032E-002
   1.1700000000000002E-002    -3.3458488140872392E-002
   1.1800000000000005E-002    -3.3832166739693220E-002
   1.1900000000000001E-002    -3.4200367234925595E-002
   1.2000000000000004E-002    -3.4562755834415454E-002
   1.2100000000000000E-002    -3.4918985391183148E-002
   1.2200000000000003E-002    -3.5268719483747865E-002
   1.2299999999999998E-002    -3.5611613507332385E-002
   1.2400000000000001E-002    -3.5947323600382303E-002
   1.2500000000000004E-002    -3.6275499081711279E-002
   1.2600000000000000E-002    -3.6595789516371546E-002
   1.2700000000000003E-002    -3.6907848310217373E-002
   1.2799999999999999E-002    -3.7211322067243847E-002
   1.2900000000000002E-002    -3.7505862038518453E-002
   1.3000000000000005E-002    -3.7791110312345139E-002
   1.3100000000000001E-002    -3.8066718751941300E-002
   1.3200000000000003E-002    -3.8332338818949263E-002
   1.3299999999999999E-002    -3.8587619897105754E-002
   1.3400000000000002E-002    -3.8832211107884304E-002
   1.3500000000000005E-002    -3.9065759902361788E-002
   1.3600000000000001E-002    -3.9287929073713486E-002
   1.3700000000000004E-002    -3.9498369330324683E-002
   1.3800000000000000E-002    -3.9696747178273831E-002
   1.3900000000000003E-002    -3.9882717370658433E-002
   1.3999999999999999E-002    -4.0055947759819910E-002
   1.4100000000000001E-002    -4.0216111844488589E-002
   1.4200000000000004E-002    -4.0362879991048123E-002
   1.4300000000000000E-002    -4.0495934177500151E-002
   1.4400000000000003E-002    -4.0614958763258643E-002