  -4.0000000000000001E-002     0.0000000000000000
  -3.9899999999999998E-002     0.0000000000000000
  -3.9800000000000002E-002     0.0000000000000000
  -3.9699999999999999E-002     0.0000000000000000
  -3.9600000000000003E-002     0.0000000000000000
  -3.9500000000000000E-002     2.4572563442701182E-016
  -3.9399999999999998E-002     2.6573655487183417E-015
  -3.9300000000000002E-002     1.5613236343994114E-014
  -3.9199999999999999E-002     6.5986868475875066E-014
  -3.9100000000000003E-002     2.2432834127610046E-013
  -3.9000000000000000E-002     6.5093498083021450E-013
  -3.8900000000000004E-002     1.6717147414621603E-012
  -3.8800000000000001E-002     3.8925499108721784E-012
  -3.8699999999999998E-002     8.3586436383509266E-012
  -3.8600000000000002E-002     1.6760448931507632E-011
  -3.8500000000000000E-002     3.1679884410218406E-011
  -3.8400000000000004E-002     5.6859395664021761E-011
  -3.8300000000000001E-002     9.7462551917892881E-011
  -3.8199999999999998E-002     1.6027863758427685E-010
  -3.8100000000000002E-002     2.5380697543653241E-010
  -3.7999999999999999E-002     3.8814110259188794E-010
  -3.7900000000000003E-002     5.7456012170220561E-010
  -3.7800000000000000E-002     8.2472889628704138E-010
  -3.7699999999999997E-002     1.1494117879706778E-009
  -3.7600000000000001E-002     1.5566149480505942E-009
  -3.7499999999999999E-002     2.0491131014210850E-009
  -3.7400000000000003E-002     2.6213420323273340E-009
  -3.7300000000000000E-002     3.2557174733938155E-009
  -3.7200000000000004E-002     3.9185104050432074E-009
  -3.7100000000000001E-002     4.5554995331542614E-009
  -3.6999999999999998E-002     5.0877129176285507E-009
  -3.6900000000000002E-002     5.4077151645515187E-009
  -3.6799999999999999E-002     5.3769126928671085E-009
  -3.6700000000000003E-002     4.8245483164066627E-009
  -3.6600000000000001E-002     3.5489868821514392E-009
  -3.6499999999999998E-002     1.3220392558466187E-009
  -3.6400000000000002E-002    -2.1030546193401278E-009
  -3.6299999999999999E-002    -6.9793966162023935E-009
  -3.6200000000000003E-002    -1.3549546373781141E-008
  -3.6100000000000000E-002    -2.2023771251156177E-008
  -3.6000000000000004E-002    -3.2553618467545675E-008
  -3.5900000000000001E-002    -4.5201169029951416E-008
  -3.5799999999999998E-002    -5.9905097771206783E-008
  -3.5700000000000003E-002    -7.6444827357136091E-008
  -3.5600000000000000E-002    -9.4404711603601754E-008
  -3.5500000000000004E-002    -1.1314065773149196E-007
  -3.5400000000000001E-002    -1.3175230151318829E-007
  -3.5299999999999998E-002    -1.4906342471476819E-007
  -3.5200000000000002E-002    -1.6361472887638229E-007
  -3.5099999999999999E-002    -1.7367212024055334E-007
  -3.5000000000000003E-002    -1.7725389511724643E-007
  -3.4900000000000000E-002    -1.7217988101947412E-007
  -3.4799999999999998E-002    -1.5614499204730237E-007
  -3.4700000000000002E-002    -1.2681813643666828E-007
  -3.4599999999999999E-002    -8.1966859966087213E-008
  -3.4500000000000003E-002    -1.9606300583063785E-008
  -3.4400000000000000E-002     6.1831030961911893E-008
  -3.4299999999999997E-002     1.6330997709701478E-007
  -3.4200000000000001E-002     2.8499806603576872E-007
  -3.4099999999999998E-002     4.2607231875990692E-007
  -3.4000000000000002E-002     5.8453696283322643E-007
  -3.3900000000000000E-002     7.5706475399783812E-007
  -3.3799999999999997E-002     9.3887734919917420E-007
  -3.3700000000000001E-002     1.1236762702537817E-006
  -3.3599999999999998E-002     1.3036401469435077E-006
  -3.3500000000000002E-002     1.4695012851007050E-006
  -3.3399999999999999E-002     1.6107122746689129E-006
  -3.3300000000000003E-002     1.7157100273834658E-006
  -3.3200000000000000E-002     1.7722835536915227E-006
  -3.3099999999999997E-002     1.7680449673207477E-006
  -3.3000000000000002E-002     1.6909967825995409E-006
  -3.2899999999999999E-002     1.5301802704925649E-006
  -3.2800000000000003E-002     1.2763954373440356E-006
  -3.2700000000000000E-002     9.2295698550515226E-007
  -3.2600000000000004E-002     4.6646104578940140E-007
  -3.2500000000000001E-002    -9.2478252611272183E-008
  -3.2399999999999998E-002    -7.4856399123746087E-007
  -3.2300000000000002E-002    -1.4912696997271269E-006
  -3.2199999999999999E-002    -2.3044517547532450E-006
  -3.2100000000000004E-002    -3.1661850243835943E-006
  -3.2000000000000001E-002    -4.0488325794285629E-006
  -3.1899999999999998E-002    -4.9194236453331541E-006
  -3.1800000000000002E-002    -5.7403385653742589E-006
  -3.1699999999999999E-002    -6.4703262978582643E-006
  -3.1600000000000003E-002    -7.0658584263583180E-006
  -3.1500000000000000E-002    -7.4827962635026779E-006
  -3.1399999999999997E-002    -7.6783544500358403E-006
  -3.1300000000000001E-002    -7.6132650974614080E-006
  -3.1199999999999999E-002    -7.2541324698249809E-006
  -3.1100000000000003E-002    -6.5758267737692222E-006
  -3.1000000000000000E-002    -5.5638488447584677E-006
  -3.0900000000000000E-002    -4.2165079321421217E-006
  -3.0800000000000001E-002    -2.5468343665124848E-006
  -3.0699999999999998E-002    -5.8402093827680801E-007
  -3.0600000000000002E-002     1.6256644812528975E-006
  -3.0499999999999999E-002     4.0186996557167731E-006
  -3.0400000000000000E-002     6.5148856265295763E-006
  -3.0300000000000001E-002     9.0188432295690291E-006
  -3.0200000000000001E-002     1.1422411262174137E-005
  -3.0100000000000002E-002     1.3608030712930486E-005
  -2.9999999999999999E-002     1.5452998923137784E-005
  -2.9899999999999999E-002     1.6834619600558653E-005
  -2.9800000000000000E-002     1.7635988115216605E-005
  -2.9700000000000001E-002     1.7752374333213083E-005
  -2.9600000000000001E-002     1.7097827367251739E-005
  -2.9499999999999998E-002     1.5611847629770637E-005
  -2.9400000000000003E-002     1.3265702364151366E-005
  -2.9300000000000000E-002     1.0068131814477965E-005
  -2.9200000000000000E-002     6.0700349422404543E-006
  -2.9100000000000001E-002     1.3677791912414250E-006
  -2.8999999999999998E-002    -3.8951748138060793E-006
  -2.8900000000000002E-002    -9.5286713985842653E-006
  -2.8799999999999999E-002    -1.5298493963200599E-005
  -2.8700000000000000E-002    -2.0931443941663019E-005
  -2.8600000000000000E-002    -2.6122947019757703E-005
  -2.8500000000000001E-002    -3.0547093047061935E-005
  -2.8400000000000002E-002    -3.3869066101033241E-005
  -2.8299999999999999E-002    -3.5759647289523855E-005
  -2.8200000000000003E-002    -3.5911401937482879E-005
  -2.8100000000000000E-002    -3.4055967262247577E-005
  -2.8000000000000001E-002    -2.9981922125443816E-005
  -2.7900000000000001E-002    -2.3552374841528945E-005
  -2.7799999999999998E-002    -1.4721497791470028E-005
  -2.7700000000000002E-002    -3.5491250400809804E-006
  -2.7600000000000000E-002     9.7875090432353318E-006
  -2.7500000000000000E-002     2.4985731215565465E-005
  -2.7400000000000001E-002     4.1613977373344824E-005
  -2.7299999999999998E-002     5.9113506722496822E-005
  -2.7200000000000002E-002     7.6806136348750442E-005
  -2.7099999999999999E-002     9.3907925474923104E-005
  -2.7000000000000000E-002     1.0954942263197154E-004
  -2.6900000000000000E-002     1.2280204100534320E-004
  -2.6800000000000001E-002     1.3271036732476205E-004
  -2.6700000000000002E-002     1.3832942931912839E-004
  -2.6599999999999999E-002     1.3876642333343625E-004
  -2.6500000000000003E-002     1.3322502491064370E-004
  -2.6400000000000000E-002     1.2105115456506610E-004
  -2.6300000000000000E-002     1.0177811054745689E-004
  -2.6200000000000001E-002     7.5169518822804093E-005
  -2.6099999999999998E-002     4.1257499105995521E-005
  -2.6000000000000002E-002     3.7445113321155077E-007
  -2.5899999999999999E-002    -4.6824043238302693E-005
  -2.5800000000000000E-002    -9.9346674687694758E-005
  -2.5700000000000001E-002    -1.5586621884722263E-004
  -2.5599999999999998E-002    -2.1473293600138277E-004
  -2.5500000000000002E-002    -2.7400249382480979E-004
  -2.5399999999999999E-002    -3.3147836802527308E-004
  -2.5300000000000000E-002    -3.8476946065202355E-004
  -2.5200000000000000E-002    -4.3136140448041260E-004
  -2.5100000000000001E-002    -4.6870054211467505E-004
  -2.5000000000000001E-002    -4.9428775673732162E-004
  -2.4899999999999999E-002    -5.0578039372339845E-004
  -2.4800000000000003E-002    -5.0109880976378918E-004
  -2.4700000000000000E-002    -4.7853303840383887E-004
  -2.4600000000000000E-002    -4.3684570118784904E-004
  -2.4500000000000001E-002    -3.7536778836511075E-004
  -2.4399999999999998E-002    -2.9408151749521494E-004
  -2.4299999999999999E-002    -1.9368556968402117E-004
  -2.4199999999999999E-002    -7.5640477007254958E-005
  -2.4100000000000000E-002     5.7811572332866490E-005
  -2.4000000000000000E-002     2.0365491218399256E-004
  -2.3900000000000001E-002     3.5813736030831933E-004
  -2.3800000000000002E-002     5.1684078061953187E-004
  -2.3699999999999999E-002     6.7477970151230693E-004
  -2.3599999999999999E-002     8.2653440767899156E-004
  -2.3500000000000000E-002     9.6640730043873191E-004
  -2.3400000000000001E-002     1.0886075906455517E-003
  -2.3300000000000001E-002     1.1874519987031817E-003
  -2.3199999999999998E-002     1.2575815198943019E-003
  -2.3099999999999999E-002     1.2941800523549318E-003
  -2.3000000000000000E-002     1.2931965757161379E-003
  -2.2900000000000000E-002     1.2515522539615631E-003
  -2.2800000000000001E-002     1.1673303088173270E-003
  -2.2700000000000001E-002     1.0399387683719397E-003
  -2.2599999999999999E-002     8.7023526430130005E-004
  -2.2499999999999999E-002     6.6060968674719334E-004
  -2.2400000000000000E-002     4.1501509258523583E-004
  -2.2300000000000000E-002     1.3894547009840608E-004
  -2.2200000000000001E-002    -1.6064681403804570E-004
  -2.2100000000000002E-002    -4.7549282317049801E-004
  -2.1999999999999999E-002    -7.9620606265962124E-004
  -2.1899999999999999E-002    -1.1125408345833421E-003
  -2.1800000000000000E-002    -1.4136938843876123E-003
  -2.1700000000000001E-002    -1.6886570956557989E-003
  -2.1600000000000001E-002    -1.9265945302322507E-003
  -2.1499999999999998E-002    -2.1172412671148777E-003
  -2.1399999999999999E-002    -2.2513121366500854E-003
  -2.1299999999999999E-002    -2.3208970669656992E-003
  -2.1200000000000000E-002    -2.3198372218757868E-003
  -2.1100000000000001E-002    -2.2440569009631872E-003
  -2.1000000000000001E-002    -2.0918452646583319E-003
  -2.0899999999999998E-002    -1.8640664638951421E-003
  -2.0799999999999999E-002    -1.5642900252714753E-003
  -2.0700000000000000E-002    -1.1988311307504773E-003
  -2.0600000000000000E-002    -7.7669013990089297E-004
  -2.0500000000000001E-002    -3.0939097632654011E-004
  -2.0400000000000001E-002     1.8928226199932396E-004
  -2.0299999999999999E-002     7.0365064311772585E-004
  -2.0199999999999999E-002     1.2165941298007965E-003
  -2.0100000000000000E-002     1.7100904369726777E-003
  -2.0000000000000000E-002     2.1658136975020170E-003
  -1.9900000000000001E-002     2.5657864753156900E-003
  -1.9799999999999998E-002     2.8930513653904200E-003
  -1.9699999999999999E-002     3.1323474831879139E-003
  -1.9599999999999999E-002     3.2707641366869211E-003
  -1.9500000000000000E-002     3.2983429264277220E-003
  -1.9400000000000001E-002     3.2086099963635206E-003
  -1.9300000000000001E-002     2.9990021139383316E-003
  -1.9199999999999998E-002     2.6711844839155674E-003
  -1.9099999999999999E-002     2.2312162909656763E-003
  -1.9000000000000000E-002     1.6895729349926114E-003
  -1.8900000000000000E-002     1.0610052850097418E-003
  -1.8800000000000001E-002     3.6422919947654009E-004
  -1.8700000000000001E-002    -3.7854514084756374E-004
  -1.8599999999999998E-002    -1.1422401294112206E-003
  -1.8499999999999999E-002    -1.8996760481968522E-003
  -1.8400000000000000E-002    -2.6224565226584673E-003
  -1.8300000000000000E-002    -3.2819460611790419E-003
  -1.8200000000000001E-002    -3.8503082469105721E-003
  -1.8100000000000002E-002    -4.3015703558921814E-003
  -1.7999999999999999E-002    -4.6126712113618851E-003
  -1.7899999999999999E-002    -4.7644604928791523E-003
  -1.7800000000000000E-002    -4.7426079399883747E-003
  -1.7700000000000000E-002    -4.5383698306977749E-003
  -1.7600000000000001E-002    -4.1492092423141003E-003
  -1.7499999999999998E-002    -3.5791969858109951E-003
  -1.7399999999999999E-002    -2.8392071835696697E-003
  -1.7299999999999999E-002    -1.9468629034236073E-003
  -1.7200000000000000E-002    -9.2623388627544045E-004
  -1.7100000000000001E-002     1.9271670316811651E-004
  -1.7000000000000001E-002     1.3749300269410014E-003
  -1.6899999999999998E-002     2.5812736712396145E-003
  -1.6799999999999999E-002     3.7697653751820326E-003
  -1.6700000000000000E-002     4.8969560302793980E-003
  -1.6600000000000000E-002     5.9194369241595268E-003
  -1.6500000000000001E-002     6.7954105325043201E-003
  -1.6400000000000001E-002     7.4862805195152760E-003
  -1.6299999999999999E-002     7.9581979662179947E-003
  -1.6199999999999999E-002     8.1835053861141205E-003
  -1.6100000000000000E-002     8.1420233473181725E-003
  -1.6000000000000000E-002     7.8221037983894348E-003
  -1.5900000000000001E-002     7.2214598767459393E-003
  -1.5799999999999998E-002     6.3476487994194031E-003
  -1.5699999999999999E-002     5.2182436920702457E-003
  -1.5599999999999999E-002     3.8606417365372181E-003
  -1.5500000000000000E-002     2.3115007206797600E-003
  -1.5400000000000000E-002     6.1582960188388824E-004
  -1.5300000000000001E-002    -1.1742755305022001E-003
  -1.5199999999999998E-002    -3.0012014321982861E-003
  -1.5099999999999999E-002    -4.8036496154963970E-003
  -1.4999999999999999E-002    -6.5186796709895134E-003
  -1.4900000000000000E-002    -8.0838911235332489E-003
  -1.4800000000000001E-002    -9.4396835193037987E-003
  -1.4700000000000001E-002    -1.0531486943364143E-002
  -1.4599999999999998E-002    -1.1311908252537251E-002
  -1.4499999999999999E-002    -1.1742711998522282E-002
  -1.4400000000000000E-002    -1.1796510778367519E-002
  -1.4300000000000000E-002    -1.1458169668912888E-002
  -1.4200000000000001E-002    -1.0725782252848148E-002
  -1.4099999999999998E-002    -9.6112322062253952E-003
  -1.3999999999999999E-002    -8.1402547657489777E-003
  -1.3899999999999999E-002    -6.3520213589072227E-003
  -1.3800000000000000E-002    -4.2981910519301891E-003
  -1.3700000000000000E-002    -2.0415137987583876E-003
  -1.3600000000000001E-002     3.4604611573740840E-004
  -1.3499999999999998E-002     2.7855681255459785E-003
  -1.3399999999999999E-002     5.1937713287770748E-003
  -1.3299999999999999E-002     7.4858558364212513E-003
  -1.3200000000000000E-002     9.5784841105341911E-003
  -1.3100000000000001E-002     1.1392830871045589E-002
  -1.3000000000000001E-002     1.2857539579272270E-002
  -1.2899999999999998E-002     1.3911530375480652E-002
  -1.2799999999999999E-002     1.4506508596241474E-002
  -1.2699999999999999E-002     1.4609116129577160E-002
  -1.2600000000000000E-002     1.4202564023435116E-002
  -1.2500000000000001E-002     1.3287762179970741E-002
  -1.2399999999999998E-002     1.1883827857673168E-002
  -1.2299999999999998E-002     1.0027919895946980E-002
  -1.2199999999999999E-002     7.7744750306010246E-003
  -1.2100000000000000E-002     5.1937396638095379E-003
  -1.2000000000000000E-002     2.3697195574641228E-003
  -1.1900000000000001E-002    -6.0244288761168718E-004
  -1.1799999999999998E-002    -3.6195628345012665E-003
  -1.1699999999999999E-002    -6.5738847479224205E-003
  -1.1599999999999999E-002    -9.3568302690982819E-003
  -1.1500000000000000E-002    -1.1862851679325104E-002
  -1.1400000000000000E-002    -1.3993308879435062E-002
  -1.1300000000000001E-002    -1.5660179778933525E-002
  -1.1199999999999998E-002    -1.6789507120847702E-002
  -1.1099999999999999E-002    -1.7324384301900864E-002
  -1.0999999999999999E-002    -1.7227457836270332E-002
  -1.0900000000000000E-002    -1.6482744365930557E-002
  -1.0800000000000001E-002    -1.5096723102033138E-002
  -1.0699999999999998E-002    -1.3098654337227345E-002
  -1.0599999999999998E-002    -1.0540102608501911E-002
  -1.0499999999999999E-002    -7.4935834854841232E-003
  -1.0400000000000000E-002    -4.0504853241145611E-003
  -1.0300000000000000E-002    -3.1821531592868268E-004
  -1.0200000000000001E-002     3.5832591820508242E-003
  -1.0099999999999998E-002     7.5254319235682487E-003
  -9.9999999999999985E-003     1.1375649832189083E-002
  -9.8999999999999991E-003     1.5001745894551277E-002
  -9.7999999999999997E-003     1.8276767805218697E-002
  -9.7000000000000003E-003     2.1083574742078781E-002
  -9.6000000000000009E-003     2.3319201543927193E-002
  -9.4999999999999980E-003     2.4898763746023178E-002
  -9.3999999999999986E-003     2.5758789852261543E-002
  -9.2999999999999992E-003     2.5859825313091278E-002
  -9.1999999999999998E-003     2.5188213214278221E-002
  -9.1000000000000004E-003     2.3756945505738258E-002
  -9.0000000000000011E-003     2.1605590358376503E-002
  -8.8999999999999982E-003     1.8799215555191040E-002
  -8.7999999999999988E-003     1.5426369383931160E-002
  -8.6999999999999994E-003     1.1596178635954857E-002
  -8.5999999999999965E-003     7.4346298351883888E-003
  -8.5000000000000006E-003     3.0802304390817881E-003
  -8.3999999999999977E-003    -1.3209265889599919E-003
  -8.3000000000000018E-003    -5.6203948333859444E-003
  -8.1999999999999990E-003    -9.6727386116981506E-003
  -8.0999999999999961E-003    -1.3340932317078114E-002
  -8.0000000000000002E-003    -1.6501406207680702E-002
  -7.8999999999999973E-003    -1.9048739224672318E-002
  -7.8000000000000014E-003    -2.0899686962366104E-002
  -7.6999999999999985E-003    -2.1996395662426949E-002
  -7.6000000000000026E-003    -2.2308738902211189E-002
  -7.4999999999999997E-003    -2.1835625171661377E-002
  -7.3999999999999969E-003    -2.0605219528079033E-002
  -7.3000000000000009E-003    -1.8674001097679138E-002
  -7.1999999999999981E-003    -1.6124811023473740E-002
  -7.1000000000000021E-003    -1.3063889928162098E-002
  -6.9999999999999993E-003    -9.6167940646409988E-003
  -6.8999999999999964E-003    -5.9237829409539700E-003
  -6.8000000000000005E-003    -2.1344688721001148E-003
  -6.6999999999999976E-003     1.5980358002707362E-003
  -6.6000000000000017E-003     5.1230350509285927E-003
  -6.4999999999999988E-003     8.2982005551457405E-003
  -6.3999999999999960E-003     1.0995299555361271E-002
  -6.3000000000000000E-003     1.3105362653732300E-002
  -6.1999999999999972E-003     1.4543282799422741E-002
  -6.1000000000000013E-003     1.5251373872160912E-002
  -5.9999999999999984E-003     1.5202122740447521E-002
  -5.9000000000000025E-003     1.4399546198546886E-002
  -5.7999999999999996E-003     1.2879529967904091E-002
  -5.6999999999999967E-003     1.0708805173635483E-002
  -5.6000000000000008E-003     7.9827886074781418E-003
  -5.4999999999999979E-003     4.8221484757959843E-003
  -5.4000000000000020E-003     1.3683713041245937E-003
  -5.2999999999999992E-003    -2.2214585915207863E-003
  -5.1999999999999963E-003    -5.7807425037026405E-003
  -5.1000000000000004E-003    -9.1398274526000023E-003
  -4.9999999999999975E-003    -1.2132665142416954E-002
  -4.9000000000000016E-003    -1.4603600837290287E-002
  -4.7999999999999987E-003    -1.6413567587733269E-002
  -4.6999999999999958E-003    -1.7446070909500122E-002
  -4.5999999999999999E-003    -1.7612148076295853E-002
  -4.4999999999999971E-003    -1.6854513436555862E-002
  -4.4000000000000011E-003    -1.5150311402976513E-002
  -4.2999999999999983E-003    -1.2512863613665104E-002
  -4.2000000000000023E-003    -8.9917806908488274E-003
  -4.0999999999999995E-003    -4.6717706136405468E-003
  -3.9999999999999966E-003     3.2979753450490534E-004
  -3.9000000000000007E-003     5.8669745922088623E-003
  -3.7999999999999978E-003     1.1770128272473812E-002
  -3.7000000000000019E-003     1.7851920798420906E-002
  -3.5999999999999990E-003     2.3914337158203125E-002
  -3.4999999999999962E-003     2.9755869880318642E-002
  -3.4000000000000002E-003     3.5178948193788528E-002
  -3.2999999999999974E-003     3.9997689425945282E-002
  -3.2000000000000015E-003     4.4044952839612961E-002
  -3.0999999999999986E-003     4.7178909182548523E-002
  -2.9999999999999957E-003     4.9288678914308548E-002
  -2.8999999999999998E-003     5.0298847258090973E-002
  -2.7999999999999969E-003     5.0172749906778336E-002
  -2.7000000000000010E-003     4.8914134502410889E-002
  -2.5999999999999981E-003     4.6567592769861221E-002
  -2.5000000000000022E-003     4.3217223137617111E-002
  -2.3999999999999994E-003     3.8983508944511414E-002
  -2.2999999999999965E-003     3.4019261598587036E-002
  -2.2000000000000006E-003     2.8504427522420883E-002
  -2.0999999999999977E-003     2.2638568654656410E-002
  -2.0000000000000018E-003     1.6634451225399971E-002
  -1.8999999999999989E-003     1.0709222406148911E-002
  -1.7999999999999960E-003     5.0768004730343819E-003
  -1.7000000000000001E-003    -6.0683669289574027E-005
  -1.5999999999999973E-003    -4.5202146284282207E-003
  -1.5000000000000013E-003    -8.1450231373310089E-003
  -1.3999999999999985E-003    -1.0810753330588341E-002
  -1.2999999999999956E-003    -1.2429699301719666E-002
  -1.1999999999999997E-003    -1.2954527512192726E-002
  -1.0999999999999968E-003    -1.2379709631204605E-002
  -1.0000000000000009E-003    -1.0741074569523335E-002
  -8.9999999999999802E-004    -8.1149898469448090E-003
  -8.0000000000000210E-004    -4.6142870560288429E-003
  -6.9999999999999923E-004    -3.8332937401719391E-004
  -5.9999999999999637E-004     4.4073443859815598E-003
  -5.0000000000000044E-004     9.5696793869137764E-003
  -3.9999999999999758E-004     1.4905223622918129E-002
  -3.0000000000000165E-004     2.0213823765516281E-002
  -1.9999999999999879E-004     2.5303132832050323E-002
  -9.9999999999995925E-005     2.9996151104569435E-002
   0.0000000000000000          3.4140169620513916E-002
   1.0000000000000286E-004     3.7613037973642349E-002
   1.9999999999999879E-004     4.0329642593860626E-002
   3.0000000000000165E-004     4.2245823889970779E-002
   4.0000000000000452E-004     4.3361485004425049E-002
   5.0000000000000044E-004     4.3721843510866165E-002
   6.0000000000000331E-004     4.3414678424596786E-002
   6.9999999999999923E-004     4.2570300400257111E-002
   8.0000000000000210E-004     4.1355304419994354E-002
   8.9999999999999802E-004     3.9966061711311340E-002
   1.0000000000000009E-003     3.8622688502073288E-002
   1.1000000000000038E-003     3.7558533251285553E-002
   1.1999999999999997E-003     3.7012580782175064E-002
   1.3000000000000025E-003     3.7218090146780014E-002
   1.3999999999999985E-003     3.8394227623939514E-002
   1.5000000000000013E-003     4.0735326707363129E-002
   1.6000000000000042E-003     4.4402908533811569E-002
   1.7000000000000001E-003     4.9518082290887833E-002
   1.8000000000000030E-003     5.6156147271394730E-002
   1.8999999999999989E-003     6.4342461526393890E-002
   2.0000000000000018E-003     7.4048593640327454E-002
   2.1000000000000046E-003     8.5194855928421021E-002
   2.2000000000000006E-003     9.7650162875652313E-002
   2.3000000000000034E-003    0.11123750358819962
   2.3999999999999994E-003    0.12573939561843872
   2.5000000000000022E-003    0.14090614020824432
   2.5999999999999981E-003    0.15646545588970184
   2.7000000000000010E-003    0.17213205993175507
   2.8000000000000039E-003    0.18762008845806122
   2.8999999999999998E-003    0.20265488326549530
   3.0000000000000027E-003    0.21698360145092010
   3.0999999999999986E-003    0.23038615286350250
   3.2000000000000015E-003    0.24268528819084167
   3.3000000000000043E-003    0.25375610589981079
   3.4000000000000002E-003    0.26353082060813904
   3.5000000000000031E-003    0.27200365066528320
   3.5999999999999990E-003    0.27923542261123657
   3.7000000000000019E-003    0.28534874320030212
   3.7999999999999978E-003    0.29052948951721191
   3.9000000000000007E-003    0.29502093791961670
   4.0000000000000036E-003    0.29911237955093384
   4.0999999999999995E-003    0.30313646793365479
   4.2000000000000023E-003    0.30745175480842590
   4.2999999999999983E-003    0.31243500113487244
   4.4000000000000011E-003    0.31846466660499573
   4.5000000000000040E-003    0.32591277360916138
   4.5999999999999999E-003    0.33512464165687561
   4.7000000000000028E-003    0.34641313552856445
   4.7999999999999987E-003    0.36004355549812317
   4.9000000000000016E-003    0.37622955441474915
   5.0000000000000044E-003    0.39511755108833313
   5.1000000000000004E-003    0.41678771376609802
   5.2000000000000032E-003    0.44125428795814514
   5.2999999999999992E-003    0.46846064925193787
   5.4000000000000020E-003    0.49828550219535828
   5.4999999999999979E-003    0.53054976463317871
   5.6000000000000008E-003    0.56502056121826172
   5.7000000000000037E-003    0.60142892599105835
   5.7999999999999996E-003    0.63948196172714233
   5.9000000000000025E-003    0.67886996269226074
   5.9999999999999984E-003    0.71928381919860840
   6.1000000000000013E-003    0.76044046878814697
   6.2000000000000041E-003    0.80207896232604980
   6.3000000000000000E-003    0.84398955106735229
   6.4000000000000029E-003    0.88601708412170410
   6.4999999999999988E-003    0.92807364463806152
   6.6000000000000017E-003    0.97015100717544556
   6.7000000000000046E-003     1.0123139619827271
   6.8000000000000005E-003     1.0547161102294922
   6.9000000000000034E-003     1.0975868701934814
   6.9999999999999993E-003     1.1412370204925537
   7.1000000000000021E-003     1.1860342025756836
   7.1999999999999981E-003     1.2324129343032837
   7.3000000000000009E-003     1.2808556556701660
   7.4000000000000038E-003     1.3318730592727661
   7.4999999999999997E-003     1.3859817981719971
   7.6000000000000026E-003     1.4437047243118286
   7.6999999999999985E-003     1.5055428743362427
   7.8000000000000014E-003     1.5719630718231201
   7.9000000000000042E-003     1.6433756351470947
   8.0000000000000002E-003     1.7201298475265503
   8.1000000000000030E-003     1.8024911880493164
   8.1999999999999990E-003     1.8906478881835938
   8.3000000000000018E-003     1.9846978187561035
   8.4000000000000047E-003     2.0846383571624756
   8.5000000000000006E-003     2.1903796195983887
   8.6000000000000035E-003     2.3017506599426270
   8.6999999999999994E-003     2.4184997081756592
   8.8000000000000023E-003     2.5403010845184326
   8.8999999999999982E-003     2.6668000221252441
   9.0000000000000011E-003     2.7975857257843018
   9.1000000000000039E-003     2.9322514533996582
   9.1999999999999998E-003     3.0703701972961426
   9.3000000000000027E-003     3.2115540504455566
   9.3999999999999986E-003     3.3554573059082031
   9.5000000000000015E-003     3.5018095970153809
   9.6000000000000044E-003     3.6503834724426270
   9.7000000000000003E-003     3.8010578155517578
   9.8000000000000032E-003     3.9538285732269287
   9.8999999999999991E-003     4.1087656021118164
   1.0000000000000002E-002     4.2660760879516602
   1.0100000000000005E-002     4.4260468482971191
   1.0200000000000001E-002     4.5891103744506836
   1.0300000000000004E-002     4.7557492256164551
   1.0400000000000000E-002     4.9265465736389160
   1.0500000000000002E-002     5.1021723747253418
   1.0599999999999998E-002     5.2833251953125000
   1.0700000000000001E-002     5.4707293510437012
   1.0800000000000004E-002     5.6651358604431152
   1.0900000000000000E-002     5.8672819137573242
   1.1000000000000003E-002     6.0778512954711914
   1.1099999999999999E-002     6.2974991798400879
   1.1200000000000002E-002     6.5268054008483887
   1.1300000000000004E-002     6.7662377357482910
   1.1400000000000000E-002     7.0162200927734375
   1.1500000000000003E-002     7.2770037651062012
   1.1599999999999999E-002     7.5488071441650391
   1.1700000000000002E-002     7.8316388130187988
   1.1800000000000005E-002     8.1255121231079102
   1.1900000000000001E-002     8.4302482604980469
   1.2000000000000004E-002     8.7456359863281250
   1.2100000000000000E-002     9.0713796615600586
   1.2200000000000003E-002     9.4070949554443359
   1.2299999999999998E-002     9.7524032592773438
   1.2400000000000001E-002     10.106914520263672
   1.2500000000000004E-002     10.470241546630859
   1.2600000000000000E-002     10.841971397399902
   1.2700000000000003E-002     11.221806526184082
   1.2799999999999999E-002     11.609465599060059
   1.2900000000000002E-002     12.004783630371094
   1.3000000000000005E-002     12.407660484313965
   1.3100000000000001E-002     12.818140983581543
   1.3200000000000003E-002     13.236323356628418
   1.3299999999999999E-002     13.662472724914551
   1.3400000000000002E-002     14.096899032592773
   1.3500000000000005E-002     14.540024757385254
   1.3600000000000001E-002     14.992320060729980
   1.3700000000000004E-002     15.454350471496582
   1.3800000000000000E-002     15.926797866821289
   1.3900000000000003E-002     16.410232543945312
   1.3999999999999999E-002     16.905368804931641
   1.4100000000000001E-002     17.412815093994141
   1.4200000000000004E-002     17.933116912841797
   1.4300000000000000E-002     18.466880798339844
   1.4400000000000003E-002     19.014562606811523
   1.4499999999999999E-002     19.576560974121094
   1.4600000000000002E-002     20.153106689453125
   1.4700000000000005E-002     20.744281768798828
   1.4800000000000001E-002     21.350202560424805
   1.4900000000000004E-002     21.970659255981445
   1.4999999999999999E-002     22.605587005615234
   1.5100000000000002E-002     23.254676818847656
   1.5200000000000005E-002     23.917385101318359
   1.5300000000000001E-002     24.593349456787109
   1.5400000000000004E-002     25.281896591186523
   1.5500000000000000E-002     25.982416152954102
   1.5600000000000003E-002     26.694307327270508
   1.5699999999999999E-002     27.416799545288086