  -4.0000000000000001E-002     0.0000000000000000
  -3.9899999999999998E-002     0.0000000000000000
  -3.9800000000000002E-002     0.0000000000000000
  -3.9699999999999999E-002     0.0000000000000000
  -3.9600000000000003E-002    -9.3507489349714221E-025
  -3.9500000000000000E-002     3.8101638567681099E-024
  -3.9399999999999998E-002     1.9061288651344190E-023
  -3.9300000000000002E-002     1.0312836200800368E-023
  -3.9199999999999999E-002     1.4850964450780502E-023
  -3.9100000000000003E-002     1.9958122841928974E-022
  -3.9000000000000000E-002     8.0936174669524856E-022
  -3.8900000000000004E-002     2.2642106330271453E-021
  -3.8800000000000001E-002     5.6790003165729462E-022
  -3.8699999999999998E-002     2.8553188262982973E-021
  -3.8600000000000002E-002     3.3398739993794367E-021
  -3.8500000000000000E-002     8.7135100713172232E-021
  -3.8400000000000004E-002     1.2937347926193004E-020
  -3.8300000000000001E-002     1.8055767881054245E-020
  -3.8199999999999998E-002     2.7802855475834249E-020
  -3.8100000000000002E-002     4.0243994393104170E-020
  -3.7999999999999999E-002     5.0311357596894183E-020
  -3.7900000000000003E-002     6.3265707154290706E-020
  -3.7800000000000000E-002     8.6516539251631626E-020
  -3.7699999999999997E-002     1.1156248252518333E-019
  -3.7600000000000001E-002     9.6392578164677538E-020
  -3.7499999999999999E-002     7.6017310219906506E-020
  -3.7400000000000003E-002     1.1941360268574503E-020
  -3.7300000000000000E-002    -2.0255407535307537E-020
  -3.7200000000000004E-002    -4.6832197166404935E-020
  -3.7100000000000001E-002    -1.2147832304285982E-019
  -3.6999999999999998E-002    -1.7721636350549119E-019
  -3.6900000000000002E-002    -2.6221253186655328E-019
  -3.6799999999999999E-002    -3.7293892866290157E-019
  -3.6700000000000003E-002    -5.0492655553885346E-019
  -3.6600000000000001E-002    -4.4772499992806850E-019
  -3.6499999999999998E-002     6.9583893618729727E-020
  -3.6400000000000002E-002     4.4286748517842741E-019
  -3.6299999999999999E-002     7.8912342843674655E-019
  -3.6200000000000003E-002     1.2062486393622175E-018
  -3.6100000000000000E-002     1.5516606516005794E-018
  -3.6000000000000004E-002     1.5274175388102987E-018
  -3.5900000000000001E-002     9.2780072342035621E-019
  -3.5799999999999998E-002     1.4802584469743962E-019
  -3.5700000000000003E-002    -9.9195157845356401E-019
  -3.5600000000000000E-002    -2.2704035727146164E-018
  -3.5500000000000004E-002    -3.6930979780241704E-018
  -3.5400000000000001E-002    -5.4359882081887136E-018
  -3.5299999999999998E-002    -7.0787006623184909E-018
  -3.5200000000000002E-002    -9.4067343218999831E-018
  -3.5099999999999999E-002    -1.2641291758390589E-017
  -3.5000000000000003E-002    -1.6417381180862511E-017
  -3.4900000000000000E-002    -2.0988045410501846E-017
  -3.4799999999999998E-002    -2.6013235460571718E-017
  -3.4700000000000002E-002    -3.1379119698256256E-017
  -3.4599999999999999E-002    -3.6964736193859381E-017
  -3.4500000000000003E-002    -4.1117665942353311E-017
  -3.4400000000000000E-002    -4.3511182527946951E-017
  -3.4299999999999997E-002    -4.4094182732396775E-017
  -3.4200000000000001E-002    -4.2861997948325534E-017
  -3.4099999999999998E-002    -3.9013603014149127E-017
  -3.4000000000000002E-002    -3.1103741346170003E-017
  -3.3900000000000000E-002    -2.0825780698459768E-017
  -3.3799999999999997E-002    -5.9390070784398666E-018
  -3.3700000000000001E-002     1.3044591110666331E-017
  -3.3599999999999998E-002     3.6556284333548046E-017
  -3.3500000000000002E-002     6.3820703262500124E-017
  -3.3399999999999999E-002     9.3797139708825709E-017
  -3.3300000000000003E-002     1.2572604003813166E-016
  -3.3200000000000000E-002     1.6184866004629776E-016
  -3.3099999999999997E-002     1.9783865322376955E-016
  -3.3000000000000002E-002     2.3453315282023031E-016
  -3.2899999999999999E-002     2.7038964566428094E-016
  -3.2800000000000003E-002     3.0291547261082966E-016
  -3.2700000000000000E-002     3.3200234579152592E-016
  -3.2600000000000004E-002     3.5623243793178442E-016
  -3.2500000000000001E-002     3.7318360537937230E-016
  -3.2399999999999998E-002     3.8556894760390429E-016
  -3.2300000000000002E-002     3.8420225994350947E-016
  -3.2199999999999999E-002     3.7190307685158101E-016
  -3.2100000000000004E-002     3.4939701439634023E-016
  -3.2000000000000001E-002     3.1666440553154305E-016
  -3.1899999999999998E-002     2.7161696993507282E-016
  -3.1800000000000002E-002     2.1418866550682329E-016
  -3.1699999999999999E-002     1.4713735211371566E-016
  -3.1600000000000003E-002     7.4345180276363411E-017
  -3.1500000000000000E-002    -3.9319642676796036E-019
  -3.1399999999999997E-002    -7.6796970081750187E-017
  -3.1300000000000001E-002    -1.4939227293331482E-016
  -3.1199999999999999E-002    -2.1679379474544270E-016
  -3.1100000000000003E-002    -2.7671991992580635E-016
  -3.1000000000000000E-002    -3.2518743633527304E-016
  -3.0900000000000000E-002    -3.6221211996248536E-016
  -3.0800000000000001E-002    -3.8414320586521809E-016
  -3.0699999999999998E-002    -3.8628294343888046E-016
  -3.0600000000000002E-002    -3.6715897766290769E-016
  -3.0499999999999999E-002    -3.2395815330079063E-016
  -3.0400000000000000E-002    -2.5704959142907496E-016
  -3.0300000000000001E-002    -1.5906573329809375E-016
  -3.0200000000000001E-002    -3.3207033342043288E-017
  -3.0100000000000002E-002     1.2399256064179613E-016
  -2.9999999999999999E-002     3.2041114989460405E-016
  -2.9899999999999999E-002     5.5265400503479753E-016
  -2.9800000000000000E-002     8.1329361326191183E-016
  -2.9700000000000001E-002     1.1155134865345885E-015
  -2.9600000000000001E-002     1.4447837804943049E-015
  -2.9499999999999998E-002     1.8042877508359610E-015
  -2.9400000000000003E-002     2.1931654473598570E-015
  -2.9300000000000000E-002     2.6033915505281136E-015
  -2.9200000000000000E-002     3.0357834471348311E-015
  -2.9100000000000001E-002     3.4776040909939099E-015
  -2.8999999999999998E-002     3.9143158556316244E-015
  -2.8900000000000002E-002     4.3585503316321411E-015
  -2.8799999999999999E-002     4.7916526771233682E-015
  -2.8700000000000000E-002     5.1899030049668698E-015
  -2.8600000000000000E-002     5.5413217281896285E-015
  -2.8500000000000001E-002     5.8440538446371572E-015
  -2.8400000000000002E-002     6.0804332116450466E-015
  -2.8299999999999999E-002     6.2416604274407456E-015
  -2.8200000000000003E-002     6.3292504104504183E-015
  -2.8100000000000000E-002     6.3198153104509526E-015
  -2.8000000000000001E-002     6.2261169493421555E-015
  -2.7900000000000001E-002     6.0370935003493595E-015
  -2.7799999999999998E-002     5.7402406395887229E-015
  -2.7700000000000002E-002     5.3311364315591046E-015
  -2.7600000000000000E-002     4.8273280107958248E-015
  -2.7500000000000000E-002     4.2301926528711190E-015
  -2.7400000000000001E-002     3.5458846874214999E-015
  -2.7299999999999998E-002     2.7778225276638494E-015
  -2.7200000000000002E-002     1.9480281831938317E-015
  -2.7099999999999999E-002     1.0573877563533935E-015
  -2.7000000000000000E-002     1.2667839623842111E-016
  -2.6900000000000000E-002    -8.2804490379658228E-016
  -2.6800000000000001E-002    -1.7704180796488138E-015
  -2.6700000000000002E-002    -2.6824521235171723E-015
  -2.6599999999999999E-002    -3.5101767429805740E-015
  -2.6500000000000003E-002    -4.2513595827065303E-015
  -2.6400000000000000E-002    -4.8452567336738830E-015
  -2.6300000000000000E-002    -5.2509558692555389E-015
  -2.6200000000000001E-002    -5.4106664725591790E-015
  -2.6099999999999998E-002    -5.3813540503864967E-015
  -2.6000000000000002E-002    -5.0809953202571746E-015
  -2.5899999999999999E-002    -4.4858365137148866E-015
  -2.5800000000000000E-002    -3.5996795381433837E-015
  -2.5700000000000001E-002    -2.3864757300987071E-015
  -2.5599999999999998E-002    -7.6440911841437961E-016
  -2.5500000000000002E-002     1.1415099864770070E-015
  -2.5399999999999999E-002     3.3106314507169851E-015
  -2.5300000000000000E-002     5.7445346731148286E-015
  -2.5200000000000000E-002     8.3264143396397615E-015
  -2.5100000000000001E-002     1.1061871667413740E-014
  -2.5000000000000001E-002     1.3902594861740693E-014
  -2.4899999999999999E-002     1.6827137895429091E-014
  -2.4800000000000003E-002     1.9621486035893872E-014
  -2.4700000000000000E-002     2.2245218023859113E-014
  -2.4600000000000000E-002     2.4457173414846149E-014
  -2.4500000000000001E-002     2.6193790856493017E-014
  -2.4399999999999998E-002     2.7300896799872278E-014
  -2.4299999999999999E-002     2.7561938801688897E-014
  -2.4199999999999999E-002     2.6886653642951668E-014
  -2.4100000000000000E-002     2.5219577606274378E-014
  -2.4000000000000000E-002     2.2324205540256471E-014
  -2.3900000000000001E-002     1.8198623150437153E-014
  -2.3800000000000002E-002     1.2613099854928006E-014
  -2.3699999999999999E-002     5.6555627558517105E-015
  -2.3599999999999999E-002    -2.6230346680914144E-015
  -2.3500000000000000E-002    -1.2278964838993971E-014
  -2.3400000000000001E-002    -2.3279892485852764E-014
  -2.3300000000000001E-002    -3.5449328341470229E-014
  -2.3199999999999998E-002    -4.8585447324405243E-014
  -2.3099999999999999E-002    -6.2593200479514610E-014
  -2.3000000000000000E-002    -7.7253335022467451E-014
  -2.2900000000000000E-002    -9.2393466195970358E-014
  -2.2800000000000001E-002    -1.0761597640579143E-013
  -2.2700000000000001E-002    -1.2258363811870621E-013
  -2.2599999999999999E-002    -1.3684142523544968E-013
  -2.2499999999999999E-002    -1.5016537546850423E-013
  -2.2400000000000000E-002    -1.6234588543287409E-013
  -2.2300000000000000E-002    -1.7317241661918975E-013
  -2.2200000000000001E-002    -1.8181528331495667E-013
  -2.2100000000000002E-002    -1.8827758904889358E-013
  -2.1999999999999999E-002    -1.9202273506078310E-013
  -2.1899999999999999E-002    -1.9266287512847285E-013
  -2.1800000000000000E-002    -1.8998852783971149E-013
  -2.1700000000000001E-002    -1.8385088644632536E-013
  -2.1600000000000001E-002    -1.7434045472466270E-013
  -2.1499999999999998E-002    -1.6114286825481133E-013
  -2.1399999999999999E-002    -1.4439756898868006E-013
  -2.1299999999999999E-002    -1.2415880769247462E-013
  -2.1200000000000000E-002    -1.0114320134462645E-013
  -2.1100000000000001E-002    -7.5552696152288157E-014
  -2.1000000000000001E-002    -4.7548021699398910E-014
  -2.0899999999999998E-002    -1.7606984189307180E-014
  -2.0799999999999999E-002     1.3780818628979837E-014
  -2.0700000000000000E-002     4.5987519348145156E-014
  -2.0600000000000000E-002     7.8427390449997691E-014
  -2.0500000000000001E-002     1.1120868359222949E-013
  -2.0400000000000001E-002     1.4382298249484421E-013
  -2.0299999999999999E-002     1.7497522799159865E-013
  -2.0199999999999999E-002     2.0422049739222264E-013
  -2.0100000000000000E-002     2.3125479396007842E-013
  -2.0000000000000000E-002     2.5535433142986896E-013
  -1.9900000000000001E-002     2.7582390581606941E-013
  -1.9799999999999998E-002     2.9250668727442974E-013
  -1.9699999999999999E-002     3.0469433942061086E-013
  -1.9599999999999999E-002     3.1175284792919755E-013
  -1.9500000000000000E-002     3.1445383948634775E-013
  -1.9400000000000001E-002     3.1269482988170727E-013
  -1.9300000000000001E-002     3.0608531659780114E-013
  -1.9199999999999998E-002     2.9491803422120044E-013
  -1.9099999999999999E-002     2.7763273451053561E-013
  -1.9000000000000000E-002     2.5469987989350240E-013
  -1.8900000000000000E-002     2.2538364946068923E-013
  -1.8800000000000001E-002     1.9033354807605068E-013
  -1.8700000000000001E-002     1.4898401522883686E-013
  -1.8599999999999998E-002     1.0181542702035820E-013
  -1.8499999999999999E-002     4.9784883247167011E-014
  -1.8400000000000000E-002    -7.6459978553080656E-015
  -1.8300000000000000E-002    -6.9031694423238310E-014
  -1.8200000000000001E-002    -1.3402667376535143E-013
  -1.8100000000000002E-002    -2.0354937624745412E-013
  -1.7999999999999999E-002    -2.7855818237991492E-013
  -1.7899999999999999E-002    -3.5840593188597725E-013
  -1.7800000000000000E-002    -4.4268470725077058E-013
  -1.7700000000000000E-002    -5.2998420539338009E-013
  -1.7600000000000001E-002    -6.2034156023821341E-013
  -1.7499999999999998E-002    -7.1348683254937595E-013
  -1.7399999999999999E-002    -8.1030126185266393E-013
  -1.7299999999999999E-002    -9.1074576265975926E-013
  -1.7200000000000000E-002    -1.0114050439172240E-012
  -1.7100000000000001E-002    -1.1149900447371408E-012
  -1.7000000000000001E-002    -1.2186381461234963E-012
  -1.6899999999999998E-002    -1.3202159634614907E-012
  -1.6799999999999999E-002    -1.4191918040057372E-012
  -1.6700000000000000E-002    -1.5135298613369597E-012
  -1.6600000000000000E-002    -1.5987251670082636E-012
  -1.6500000000000001E-002    -1.6731714755011118E-012
  -1.6400000000000001E-002    -1.7351108614130362E-012
  -1.6299999999999999E-002    -1.7814384949826900E-012
  -1.6199999999999999E-002    -1.8077890530029950E-012
  -1.6100000000000000E-002    -1.8109407202981931E-012
  -1.6000000000000000E-002    -1.7908871000754667E-012
  -1.5900000000000001E-002    -1.7462811795557198E-012
  -1.5799999999999998E-002    -1.6747681800405312E-012
  -1.5699999999999999E-002    -1.5715441101238348E-012
  -1.5599999999999999E-002    -1.4376956656431128E-012
  -1.5500000000000000E-002    -1.2713937975333822E-012
  -1.5400000000000000E-002    -1.0739401989229291E-012
  -1.5300000000000001E-002    -8.4434260798349481E-013
  -1.5199999999999998E-002    -5.8755132920432218E-013
  -1.5099999999999999E-002    -3.0385107407590595E-013
  -1.4999999999999999E-002    -3.1813641644497302E-016
  -1.4900000000000000E-002     3.1930998101691033E-013
  -1.4800000000000001E-002     6.4673077006596746E-013
  -1.4700000000000001E-002     9.7564057527366188E-013
  -1.4599999999999998E-002     1.2956166087901844E-012
  -1.4499999999999999E-002     1.6012331434736571E-012
  -1.4400000000000000E-002     1.8848720327591106E-012
  -1.4300000000000000E-002     2.1384174812844048E-012
  -1.4200000000000001E-002     2.3490376310775218E-012
  -1.4099999999999998E-002     2.5101643853775446E-012
  -1.3999999999999999E-002     2.6105723485714272E-012
  -1.3899999999999999E-002     2.6362204520041788E-012
  -1.3800000000000000E-002     2.5867110103189317E-012
  -1.3700000000000000E-002     2.4514186253848935E-012
  -1.3600000000000001E-002     2.2319800088016484E-012
  -1.3499999999999998E-002     1.9229216743216204E-012
  -1.3399999999999999E-002     1.5172744788002901E-012
  -1.3299999999999999E-002     1.0219777498224336E-012
  -1.3200000000000000E-002     4.4678556644292544E-013
  -1.3100000000000001E-002    -2.0905664894523002E-013
  -1.3000000000000001E-002    -9.4561402978754483E-013
  -1.2899999999999998E-002    -1.7509022660552875E-012
  -1.2799999999999999E-002    -2.6048108982268392E-012
  -1.2699999999999999E-002    -3.4772605801702827E-012
  -1.2600000000000000E-002    -4.3435207687514410E-012
  -1.2500000000000001E-002    -5.1728200715916994E-012
  -1.2399999999999998E-002    -5.9536399248105720E-012
  -1.2299999999999998E-002    -6.6611412566364159E-012
  -1.2199999999999999E-002    -7.2677133408638461E-012
  -1.2100000000000000E-002    -7.7585507463062697E-012
  -1.2000000000000000E-002    -8.1090594308830255E-012
  -1.1900000000000001E-002    -8.2871279283303068E-012
  -1.1799999999999998E-002    -8.2808039938986333E-012
  -1.1699999999999999E-002    -8.0905386556917591E-012
  -1.1599999999999999E-002    -7.7057570394001296E-012
  -1.1500000000000000E-002    -7.1107880868226392E-012
  -1.1400000000000000E-002    -6.2981620786717318E-012
  -1.1300000000000001E-002    -5.2735342134790919E-012
  -1.1199999999999998E-002    -4.0424096361957318E-012
  -1.1099999999999999E-002    -2.6283406874549886E-012
  -1.0999999999999999E-002    -1.0588670782199494E-012
  -1.0900000000000000E-002     6.2714053785176138E-013
  -1.0800000000000001E-002     2.3770011566698335E-012
  -1.0699999999999998E-002     4.1255662081018940E-012
  -1.0599999999999998E-002     5.8174324732429561E-012
  -1.0499999999999999E-002     7.3876391115668127E-012
  -1.0400000000000000E-002     8.7458070299750723E-012
  -1.0300000000000000E-002     9.8729574862788105E-012
  -1.0200000000000001E-002     1.0670313591032432E-011
  -1.0099999999999998E-002     1.1014041241541594E-011
  -9.9999999999999985E-003     1.0857406120001745E-011
  -9.8999999999999991E-003     1.0159872075587995E-011
  -9.7999999999999997E-003     8.8941709899814647E-012
  -9.7000000000000003E-003     7.0471311078290633E-012
  -9.6000000000000009E-003     4.5867506841268391E-012
  -9.4999999999999980E-003     1.5520678275579569E-012
  -9.3999999999999986E-003    -2.0649168139263985E-012
  -9.2999999999999992E-003    -6.2491205786441295E-012
  -9.1999999999999998E-003    -1.0899749852688601E-011
  -9.1000000000000004E-003    -1.6002565592088125E-011
  -9.0000000000000011E-003    -2.1512059494854796E-011
  -8.8999999999999982E-003    -2.7397499199888209E-011
  -8.7999999999999988E-003    -3.3527229603702580E-011
  -8.6999999999999994E-003    -3.9845543531313865E-011
  -8.5999999999999965E-003    -4.6262538938579567E-011
  -8.5000000000000006E-003    -5.2659019506018367E-011
  -8.3999999999999977E-003    -5.8948700087935180E-011
  -8.3000000000000018E-003    -6.4966344803796261E-011
  -8.1999999999999990E-003    -7.0623631942545728E-011
  -8.0999999999999961E-003    -7.5861018855594153E-011
  -8.0000000000000002E-003    -8.0513144762317523E-011
  -7.8999999999999973E-003    -8.4538369360398491E-011
  -7.8000000000000014E-003    -8.7738892540212277E-011
  -7.6999999999999985E-003    -9.0046088641049238E-011
  -7.6000000000000026E-003    -9.1405494284657607E-011
  -7.4999999999999997E-003    -9.1675660118806235E-011
  -7.3999999999999969E-003    -9.0767539318026280E-011
  -7.3000000000000009E-003    -8.8585146162944994E-011
  -7.1999999999999981E-003    -8.5069888633437785E-011
  -7.1000000000000021E-003    -8.0235394717131925E-011
  -6.9999999999999993E-003    -7.4133053862279752E-011
  -6.8999999999999964E-003    -6.6808815424312940E-011
  -6.8000000000000005E-003    -5.8299413907558773E-011
  -6.6999999999999976E-003    -4.8724642376374305E-011
  -6.6000000000000017E-003    -3.7977523903443000E-011
  -6.4999999999999988E-003    -2.6115365078793751E-011
  -6.3999999999999960E-003    -1.3186660097197489E-011
  -6.3000000000000000E-003     6.6982059005252226E-013
  -6.1999999999999972E-003     1.5270859229921108E-011
  -6.1000000000000013E-003     3.0323545757715564E-011
  -5.9999999999999984E-003     4.5663424430575361E-011
  -5.9000000000000025E-003     6.1094795889005127E-011
  -5.7999999999999996E-003     7.6315710695329386E-011
  -5.6999999999999967E-003     9.0807486530231074E-011
  -5.6000000000000008E-003     1.0450963705554983E-010
  -5.4999999999999979E-003     1.1710267477926806E-010
  -5.4000000000000020E-003     1.2842214791586315E-010
  -5.2999999999999992E-003     1.3828811706861899E-010
  -5.1999999999999963E-003     1.4649702284597055E-010
  -5.1000000000000004E-003     1.5241263806586858E-010
  -4.9999999999999975E-003     1.5612923454089156E-010
  -4.9000000000000016E-003     1.5768358840873020E-010
  -4.7999999999999987E-003     1.5688260412982657E-010
  -4.6999999999999958E-003     1.5340892445259158E-010
  -4.5999999999999999E-003     1.4747814081061961E-010
  -4.4999999999999971E-003     1.3865070203067376E-010
  -4.4000000000000011E-003     1.2658524228825740E-010
  -4.2999999999999983E-003     1.1118937021104003E-010
  -4.2000000000000023E-003     9.2360244452471818E-011
  -4.0999999999999995E-003     7.0429426179963173E-011
  -3.9999999999999966E-003     4.5633247180987269E-011
  -3.9000000000000007E-003     1.8148402919360151E-011
  -3.7999999999999978E-003    -1.2107181576737069E-011
  -3.7000000000000019E-003    -4.4562218498578332E-011
  -3.5999999999999990E-003    -7.8942484493804699E-011
  -3.4999999999999962E-003    -1.1501048724493756E-010
  -3.4000000000000002E-003    -1.5220667781701280E-010
  -3.2999999999999974E-003    -1.9020611474740434E-010
  -3.2000000000000015E-003    -2.2868941462750314E-010
  -3.0999999999999986E-003    -2.6680119225019894E-010
  -2.9999999999999957E-003    -3.0424598951306336E-010
  -2.8999999999999998E-003    -3.4039193685941882E-010
  -2.7999999999999969E-003    -3.7499864324885834E-010
  -2.7000000000000010E-003    -4.0727066163981362E-010
  -2.5999999999999981E-003    -4.3774966984599928E-010
  -2.5000000000000022E-003    -4.6510328921556265E-010
  -2.3999999999999994E-003    -4.8753961978675875E-010
  -2.2999999999999965E-003    -5.0557080744084715E-010
  -2.2000000000000006E-003    -5.1862136807301340E-010
  -2.0999999999999977E-003    -5.2689175245035358E-010
  -2.0000000000000018E-003    -5.3074455941271026E-010
  -1.8999999999999989E-003    -5.3015319911864367E-010
  -1.7999999999999960E-003    -5.2500714886605238E-010
  -1.7000000000000001E-003    -5.1565146597098988E-010
  -1.5999999999999973E-003    -5.0173692978106033E-010
  -1.5000000000000013E-003    -4.8285347942211843E-010
  -1.3999999999999985E-003    -4.5891393463115548E-010
  -1.2999999999999956E-003    -4.2982339909514167E-010
  -1.1999999999999997E-003    -3.9563755049876193E-010
  -1.0999999999999968E-003    -3.5640820850169064E-010
  -1.0000000000000009E-003    -3.1305766312605954E-010
  -8.9999999999999802E-004    -2.6595672886209343E-010
  -8.0000000000000210E-004    -2.1503543390366531E-010
  -6.9999999999999923E-004    -1.6036444394629257E-010
  -5.9999999999999637E-004    -1.0235333414154724E-010
  -5.0000000000000044E-004    -4.3148956629934787E-011
  -3.9999999999999758E-004     1.6625893370370015E-011
  -3.0000000000000165E-004     7.7838485657011347E-011
  -1.9999999999999879E-004     1.3826861877674901E-010
  -9.9999999999995925E-005     1.9672978524010176E-010
   0.0000000000000000          2.5380247903328268E-010
   1.0000000000000286E-004     3.0750335611173796E-010
   1.9999999999999879E-004     3.5718492052971840E-010
   3.0000000000000165E-004     4.0067482665051557E-010
   4.0000000000000452E-004     4.3894524126564249E-010
   5.0000000000000044E-004     4.7187359575318055E-010
   6.0000000000000331E-004     4.9897319609470969E-010
   6.9999999999999923E-004     5.1941762002627456E-010
   8.0000000000000210E-004     5.3455739834618043E-010
   8.9999999999999802E-004     5.4297433216277113E-010
   1.0000000000000009E-003     5.4580440167484312E-010
   1.1000000000000038E-003     5.4254944981124709E-010
   1.1999999999999997E-003     5.3323745419220359E-010
   1.3000000000000025E-003     5.1768178632727313E-010
   1.3999999999999985E-003     4.9603499086003922E-010
   1.5000000000000013E-003     4.6999026892535767E-010
   1.6000000000000042E-003     4.3936415616840918E-010
   1.7000000000000001E-003     4.0408359991417342E-010
   1.8000000000000030E-003     3.6678926562672132E-010
   1.8999999999999989E-003     3.2950855932689649E-010
   2.0000000000000018E-003     2.9263380607602585E-010
   2.1000000000000046E-003     2.5837590400534793E-010
   2.2000000000000006E-003     2.2427344703590535E-010
   2.3000000000000034E-003     1.9197263223524885E-010
   2.3999999999999994E-003     1.6173835881705401E-010
   2.5000000000000022E-003     1.3435286216889608E-010
   2.5999999999999981E-003     1.1110411202164272E-010
   2.7000000000000010E-003     9.0735488567084133E-011
   2.8000000000000039E-003     7.3918121623606226E-011
   2.8999999999999998E-003     6.3122208848742645E-011
   3.0000000000000027E-003     5.5825774558648789E-011
   3.0999999999999986E-003     5.4301924068411722E-011
   3.2000000000000015E-003     5.9815014052944093E-011
   3.3000000000000043E-003     7.5240119690178631E-011
   3.4000000000000002E-003     1.0191503890810694E-010
   3.5000000000000031E-003     1.3753016780970739E-010
   3.5999999999999990E-003     1.8078152863587604E-010
   3.7000000000000019E-003     2.3401341975315404E-010
   3.7999999999999978E-003     2.9458938066717621E-010
   3.9000000000000007E-003     3.6239550249561603E-010
   4.0000000000000036E-003     4.3589601372850950E-010
   4.0999999999999995E-003     5.1558268765461435E-010
   4.2000000000000023E-003     6.0487104214246301E-010
   4.2999999999999983E-003     6.9947525549451939E-010
   4.4000000000000011E-003     7.9781981021653792E-010
   4.5000000000000040E-003     8.9691737370500846E-010
   4.5999999999999999E-003     9.9911556805665214E-010
   4.7000000000000028E-003     1.1046924486279863E-009
   4.7999999999999987E-003     1.2099171664559094E-009
   4.9000000000000016E-003     1.3143709454155328E-009
   5.0000000000000044E-003     1.4148077154274574E-009
   5.1000000000000004E-003     1.5108914119821293E-009
   5.2000000000000032E-003     1.5985220924719101E-009
   5.2999999999999992E-003     1.6754073683955539E-009
   5.4000000000000020E-003     1.7407987273898584E-009
   5.4999999999999979E-003     1.7949294273122973E-009
   5.6000000000000008E-003     1.8357044773154030E-009
   5.7000000000000037E-003     1.8635371024089409E-009
   5.7999999999999996E-003     1.8745129892749901E-009
   5.9000000000000025E-003     1.8672747792436439E-009
   5.9999999999999984E-003     1.8413190971955373E-009
   6.1000000000000013E-003     1.7964263410163994E-009
   6.2000000000000041E-003     1.7309220723404906E-009
   6.3000000000000000E-003     1.6440138139728333E-009
   6.4000000000000029E-003     1.5410388520820106E-009
   6.4999999999999988E-003     1.4183614283069801E-009
   6.6000000000000017E-003     1.2788953229758704E-009
   6.7000000000000046E-003     1.1262546451007438E-009
   6.8000000000000005E-003     9.6238761404521256E-010
   6.9000000000000034E-003     7.9161333044197590E-010
   6.9999999999999993E-003     6.1508709237045878E-010
   7.1000000000000021E-003     4.3557171758301649E-010
   7.1999999999999981E-003     2.5519847346444635E-010
   7.3000000000000009E-003     8.1092188519704678E-011
   7.4000000000000038E-003    -8.1883687330641663E-011
   7.4999999999999997E-003    -2.3283400207851912E-010
   7.6000000000000026E-003    -3.7093719762459898E-010
   7.6999999999999985E-003    -4.9315235228775123E-010
   7.8000000000000014E-003    -5.9176519240367043E-010
   7.9000000000000042E-003    -6.6682454002986447E-010
   8.0000000000000002E-003    -7.1447647798095204E-010
   8.1000000000000030E-003    -7.3451650317579720E-010
   8.1999999999999990E-003    -7.2503070214224863E-010
   8.3000000000000018E-003    -6.8427269406257096E-010
   8.4000000000000047E-003    -6.1444627164064514E-010
   8.5000000000000006E-003    -5.1009541035540451E-010
   8.6000000000000035E-003    -3.7659608764784025E-010
   8.6999999999999994E-003    -2.1884827283713548E-010
   8.8000000000000023E-003    -3.6899878985696688E-011
   8.8999999999999982E-003     1.6271510527854360E-010
   9.0000000000000011E-003     3.7983174938638342E-010
   9.1000000000000039E-003     6.1405575069173324E-010
   9.1999999999999998E-003     8.6346341188203724E-010
   9.3000000000000027E-003     1.1217298201415815E-009
   9.3999999999999986E-003     1.3883120209001731E-009
   9.5000000000000015E-003     1.6590108176117724E-009
   9.6000000000000044E-003     1.9261496841949111E-009
   9.7000000000000003E-003     2.1872961220026355E-009
   9.8000000000000032E-003     2.4364712469804317E-009
   9.8999999999999991E-003     2.6702979827319950E-009
   1.0000000000000002E-002     2.8832507492637660E-009
   1.0100000000000005E-002     3.0744986556641152E-009
   1.0200000000000001E-002     3.2344671385686752E-009
   1.0300000000000004E-002     3.3613201111393209E-009
   1.0400000000000000E-002     3.4480349686560885E-009
   1.0500000000000002E-002     3.4870335507974914E-009
   1.0599999999999998E-002     3.4773557366918340E-009
   1.0700000000000001E-002     3.4162095374767887E-009
   1.0800000000000004E-002     3.3014857514501728E-009
   1.0900000000000000E-002     3.1334026484586275E-009
   1.1000000000000003E-002     2.9092657172213876E-009
   1.1099999999999999E-002     2.6293811572486447E-009
   1.1200000000000002E-002     2.2979671499001597E-009
   1.1300000000000004E-002     1.9179902110977309E-009
   1.1400000000000000E-002     1.4935687131512054E-009
   1.1500000000000003E-002     1.0245677639630912E-009
   1.1599999999999999E-002     5.1536153122810902E-010
   1.1700000000000002E-002    -3.2554223206027189E-011
   1.1800000000000005E-002    -6.1335697632003416E-010
   1.1900000000000001E-002    -1.2220628953230062E-009
   1.2000000000000004E-002    -1.8525360134802327E-009
   1.2100000000000000E-002    -2.5018704885582110E-009
   1.2200000000000003E-002    -3.1657638732696114E-009
   1.2299999999999998E-002    -3.8379655009634916E-009
   1.2400000000000001E-002    -4.5145780447342077E-009
   1.2500000000000004E-002    -5.1874762263537377E-009
   1.2600000000000000E-002    -5.8502798161441660E-009
   1.2700000000000003E-002    -6.4927681009407934E-009
   1.2799999999999999E-002    -7.1079200303358903E-009
   1.2900000000000002E-002    -7.6889996591944509E-009
   1.3000000000000005E-002    -8.2293594161342298E-009
   1.3100000000000001E-002    -8.7208356092105532E-009
   1.3200000000000003E-002    -9.1558947090675247E-009
   1.3299999999999999E-002    -9.5268442024121214E-009
   1.3400000000000002E-002    -9.8247552315910980E-009
   1.3500000000000005E-002    -1.0048881726731906E-008
   1.3600000000000001E-002    -1.0188948351697036E-008
   1.3700000000000004E-002    -1.0244775694445707E-008
   1.3800000000000000E-002    -1.0211596901399389E-008
   1.3900000000000003E-002    -1.0081055101807124E-008
   1.3999999999999999E-002    -9.8602841447359424E-009
   1.4100000000000001E-002    -9.5481924589080336E-009
   1.4200000000000004E-002    -9.1534202439902401E-009
   1.4300000000000000E-002    -8.6773157548236668E-009
   1.4400000000000003E-002    -8.1238908933300991E-009