  -4.0000000000000001E-002     0.0000000000000000
  -3.9899999999999998E-002     0.0000000000000000
  -3.9800000000000002E-002     0.0000000000000000
  -3.9699999999999999E-002     0.0000000000000000
  -3.9600000000000003E-002     0.0000000000000000
  -3.9500000000000000E-002    -4.7408363147684400E-024
  -3.9399999999999998E-002    -2.9167860602395515E-023
  -3.9300000000000002E-002     2.2564711123751347E-022
  -3.9199999999999999E-002     6.3966355386414046E-022
  -3.9100000000000003E-002     2.6519030775473602E-021
  -3.9000000000000000E-002    -2.0768167426623782E-020
  -3.8900000000000004E-002    -2.1365724639836650E-020
  -3.8800000000000001E-002     1.3996013902258002E-020
  -3.8699999999999998E-002     6.8877481375609441E-020
  -3.8600000000000002E-002     1.7108482259145652E-019
  -3.8500000000000000E-002    -1.9424206695730531E-019
  -3.8400000000000004E-002     1.3497716100729510E-019
  -3.8300000000000001E-002     8.0251367309639011E-019
  -3.8199999999999998E-002    -1.4547218046518415E-018
  -3.8100000000000002E-002     8.9085259205011321E-018
  -3.7999999999999999E-002     3.8494293235324048E-018
  -3.7900000000000003E-002     7.3227296963695973E-018
  -3.7800000000000000E-002    -1.4752751335632223E-017
  -3.7699999999999997E-002    -4.8465719773176219E-017
  -3.7600000000000001E-002    -2.4567644695906696E-017
  -3.7499999999999999E-002    -3.6019688961462447E-017
  -3.7400000000000003E-002     1.6431820445635237E-017
  -3.7300000000000000E-002     1.6397920929771589E-017
  -3.7200000000000004E-002     9.5187484734739539E-017
  -3.7100000000000001E-002    -3.4577588898982399E-017
  -3.6999999999999998E-002     1.5939403797449360E-016
  -3.6900000000000002E-002     4.0617598866118053E-016
  -3.6799999999999999E-002     1.1773453564369355E-016
  -3.6700000000000003E-002     5.0540131916015072E-016
  -3.6600000000000001E-002    -1.2717089295769028E-016
  -3.6499999999999998E-002     8.3145071739837342E-016
  -3.6400000000000002E-002    -9.2015783098635612E-017
  -3.6299999999999999E-002     9.5045588187228722E-016
  -3.6200000000000003E-002     1.9792122570123704E-016
  -3.6100000000000000E-002    -6.5192880755184329E-016
  -3.6000000000000004E-002     2.8561027715502500E-015
  -3.5900000000000001E-002     2.6063375311186640E-015
  -3.5799999999999998E-002     1.7774711112423635E-015
  -3.5700000000000003E-002     4.7178422260996285E-015
  -3.5600000000000000E-002    -1.3157009356513146E-015
  -3.5500000000000004E-002    -1.1455864384147868E-015
  -3.5400000000000001E-002     6.1616416484301054E-015
  -3.5299999999999998E-002     7.4450282771436685E-015
  -3.5200000000000002E-002     5.2111415090863242E-016
  -3.5099999999999999E-002     7.4762507586124093E-015
  -3.5000000000000003E-002    -5.9975851308323403E-016
  -3.4900000000000000E-002    -7.2011547861349466E-015
  -3.4799999999999998E-002    -1.3136276531063203E-014
  -3.4700000000000002E-002    -3.1464343256499758E-014
  -3.4599999999999999E-002    -2.8268994472211741E-014
  -3.4500000000000003E-002    -2.6722380073161169E-014
  -3.4400000000000000E-002    -3.8351053154592543E-014
  -3.4299999999999997E-002    -3.8886503338133455E-015
  -3.4200000000000001E-002    -3.1490767296322303E-014
  -3.4099999999999998E-002    -1.9120062859910060E-014
  -3.4000000000000002E-002     4.8861730837074756E-015
  -3.3900000000000000E-002    -5.1549618794530933E-014
  -3.3799999999999997E-002    -2.8404131802682586E-014
  -3.3700000000000001E-002     1.3514040689451001E-013
  -3.3599999999999998E-002    -2.8701640266944398E-014
  -3.3500000000000002E-002     6.2165089699181553E-014
  -3.3399999999999999E-002     1.6977135571926566E-014
  -3.3300000000000003E-002    -2.3750780124088058E-014
  -3.3200000000000000E-002    -6.3678281025166417E-015
  -3.3099999999999997E-002     8.0005561908531170E-014
  -3.3000000000000002E-002     1.0432748279642565E-013
  -3.2899999999999999E-002     1.0145050828602210E-014
  -3.2800000000000003E-002     3.3018282796478185E-014
  -3.2700000000000000E-002     4.9477498378740215E-014
  -3.2600000000000004E-002     1.2077338640888863E-013
  -3.2500000000000001E-002     6.0425752942960820E-013
  -3.2399999999999998E-002     2.0428766371680812E-013
  -3.2300000000000002E-002    -9.1884955048283923E-014
  -3.2199999999999999E-002     5.2204775062309611E-014
  -3.2100000000000004E-002     6.6178967925015816E-015
  -3.2000000000000001E-002     8.4851078257803386E-014
  -3.1899999999999998E-002     1.8413882343828319E-013
  -3.1800000000000002E-002    -3.2537950740881005E-013
  -3.1699999999999999E-002    -1.7584077369094814E-013
  -3.1600000000000003E-002    -4.6149314838345168E-013
  -3.1500000000000000E-002    -3.8539150711870696E-013
  -3.1399999999999997E-002    -4.1085361566876866E-013
  -3.1300000000000001E-002    -8.0590812885986129E-013
  -3.1199999999999999E-002    -2.9294256365282323E-013
  -3.1100000000000003E-002    -9.5213832478069360E-013
  -3.1000000000000000E-002    -1.8238943612792352E-013
  -3.0900000000000000E-002    -1.3859623084616635E-012
  -3.0800000000000001E-002    -1.0271733550532014E-012
  -3.0699999999999998E-002    -3.9625038818734415E-013
  -3.0600000000000002E-002     9.4141621581611545E-013
  -3.0499999999999999E-002     1.2049477084510873E-012
  -3.0400000000000000E-002     6.3053978271304656E-013
  -3.0300000000000001E-002     8.5813604486228989E-013
  -3.0200000000000001E-002     1.0749572889809378E-012
  -3.0100000000000002E-002     5.6231375892418223E-013
  -2.9999999999999999E-002    -6.0559352400412630E-014
  -2.9899999999999999E-002     7.2616543854431281E-013
  -2.9800000000000000E-002     9.0196995922511847E-013
  -2.9700000000000001E-002     1.8971404308620876E-012
  -2.9600000000000001E-002    -4.5206362524891075E-013
  -2.9499999999999998E-002    -2.3407385513381229E-013
  -2.9400000000000003E-002     4.3965694800085497E-012
  -2.9300000000000000E-002     3.6764207130002280E-012
  -2.9200000000000000E-002    -1.3148712804320062E-012
  -2.9100000000000001E-002     1.5697319746127425E-012
  -2.8999999999999998E-002    -2.1683518695858606E-012
  -2.8900000000000002E-002    -1.6578773943953795E-012
  -2.8799999999999999E-002     1.0981836100210085E-012
  -2.8700000000000000E-002    -2.4150223921354241E-012
  -2.8600000000000000E-002     4.8958892495676309E-012
  -2.8500000000000001E-002     3.0580559785831074E-012
  -2.8400000000000002E-002    -2.0090111757346818E-013
  -2.8299999999999999E-002    -1.2569363952441570E-012
  -2.8200000000000003E-002    -5.4784085254389048E-012
  -2.8100000000000000E-002    -9.8399673825744216E-013
  -2.8000000000000001E-002     1.0832951289480031E-012
  -2.7900000000000001E-002    -8.7565345599505129E-012
  -2.7799999999999998E-002     5.1524075804498803E-012
  -2.7700000000000002E-002    -7.7743757612158682E-012
  -2.7600000000000000E-002    -5.7100478859095638E-012
  -2.7500000000000000E-002    -1.1584770469308392E-011
  -2.7400000000000001E-002    -1.1327030459418186E-011
  -2.7299999999999998E-002    -2.5753564211750124E-011
  -2.7200000000000002E-002    -2.3407886740045569E-011
  -2.7099999999999999E-002    -1.3277952522205982E-011
  -2.7000000000000000E-002    -6.6369540072108713E-012
  -2.6900000000000000E-002    -1.6529082789984439E-012
  -2.6800000000000001E-002    -4.3386032613779157E-012
  -2.6700000000000002E-002     1.0070111411408789E-011
  -2.6599999999999999E-002     5.3087165739762465E-012
  -2.6500000000000003E-002     2.8736657151084977E-011
  -2.6400000000000000E-002     2.4163671064059145E-011
  -2.6300000000000000E-002     3.9306790461379748E-011
  -2.6200000000000001E-002     2.0267723263578397E-011
  -2.6099999999999998E-002     2.0354329333116539E-011
  -2.6000000000000002E-002     4.5216092155186960E-012
  -2.5899999999999999E-002    -6.8196598541903075E-012
  -2.5800000000000000E-002     4.3035769392574252E-011
  -2.5700000000000001E-002     1.2318817840806240E-011
  -2.5599999999999998E-002    -1.7310220964961154E-011
  -2.5500000000000002E-002     3.4436453688613256E-011
  -2.5399999999999999E-002    -1.2961831261093515E-011
  -2.5300000000000000E-002     1.9888967209280572E-011
  -2.5200000000000000E-002     1.4635933090478837E-011
  -2.5100000000000001E-002     2.1616855874762031E-011
  -2.5000000000000001E-002     2.0751149062969709E-011
  -2.4899999999999999E-002    -2.4935563596589772E-012
  -2.4800000000000003E-002     2.0928014529686401E-011
  -2.4700000000000000E-002    -1.6201751745770210E-011
  -2.4600000000000000E-002    -1.6937883387524444E-011
  -2.4500000000000001E-002    -4.2838003110057254E-012
  -2.4399999999999998E-002    -3.3910051849828093E-011
  -2.4299999999999999E-002    -6.0456466222102989E-011
  -2.4199999999999999E-002    -8.0631452903379142E-011
  -2.4100000000000000E-002    -1.2242509783710886E-010
  -2.4000000000000000E-002    -1.3919322638944465E-010
  -2.3900000000000001E-002    -7.0211746139303699E-011
  -2.3800000000000002E-002    -3.5835390210792184E-011
  -2.3699999999999999E-002    -8.1156491249512186E-011
  -2.3599999999999999E-002    -1.5099993477818430E-010
  -2.3500000000000000E-002    -6.3946570261208535E-011
  -2.3400000000000001E-002    -3.9004063867587035E-011
  -2.3300000000000001E-002     5.1107500176339471E-011
  -2.3199999999999998E-002    -2.1944879941004913E-011
  -2.3099999999999999E-002     5.2069772105145518E-011
  -2.3000000000000000E-002     1.3278915467207497E-010
  -2.2900000000000000E-002     1.3073779558947507E-010
  -2.2800000000000001E-002     2.6412519393836931E-010
  -2.2700000000000001E-002     3.1157931790204429E-010
  -2.2599999999999999E-002     3.0076541257528788E-010
  -2.2499999999999999E-002     3.2167685182216132E-010
  -2.2400000000000000E-002     3.0560223795994546E-010
  -2.2300000000000000E-002     3.7075398306996021E-010
  -2.2200000000000001E-002     1.7377004002394614E-010
  -2.2100000000000002E-002     2.2216979644884560E-010
  -2.1999999999999999E-002     5.0817409308345773E-011
  -2.1899999999999999E-002     1.2328081611112651E-010
  -2.1800000000000000E-002     6.7974341433352237E-011
  -2.1700000000000001E-002    -8.8216461913148692E-011
  -2.1600000000000001E-002    -9.0379481676450268E-011
  -2.1499999999999998E-002    -1.6998735752338234E-010
  -2.1399999999999999E-002    -2.9388488864690032E-010
  -2.1299999999999999E-002    -3.1392172195054968E-010
  -2.1200000000000000E-002    -3.1166047520514439E-010
  -2.1100000000000001E-002    -4.0255737632222122E-010
  -2.1000000000000001E-002    -4.2962655655287563E-010
  -2.0899999999999998E-002    -4.2298950453378836E-010
  -2.0799999999999999E-002    -4.7491144350431114E-010
  -2.0700000000000000E-002    -3.9742442670132050E-010
  -2.0600000000000000E-002    -4.6536077769054884E-010
  -2.0500000000000001E-002    -2.3728102815923080E-010
  -2.0400000000000001E-002    -2.5482926879760726E-010
  -2.0299999999999999E-002    -2.3315285813119146E-010
  -2.0199999999999999E-002    -1.1712746050829281E-010
  -2.0100000000000000E-002    -2.1782319004071127E-010
  -2.0000000000000000E-002    -1.6207722663974522E-010
  -1.9900000000000001E-002     1.1083380740961601E-010
  -1.9799999999999998E-002     1.2136677773888493E-010
  -1.9699999999999999E-002     1.9754915758785074E-010
  -1.9599999999999999E-002     3.8754380260463961E-010
  -1.9500000000000000E-002     3.0468685907614201E-010
  -1.9400000000000001E-002     4.2896158847227639E-010
  -1.9300000000000001E-002     7.0068256752264801E-010
  -1.9199999999999998E-002     2.6872751246465043E-010
  -1.9099999999999999E-002     4.4678286070798379E-010
  -1.9000000000000000E-002     6.4868260762906971E-010
  -1.8900000000000000E-002     9.5602092908819714E-010
  -1.8800000000000001E-002     5.1058773875567454E-010
  -1.8700000000000001E-002     6.2741634110352607E-010
  -1.8599999999999998E-002     6.1107902071810827E-010
  -1.8499999999999999E-002     3.4829850115158933E-010
  -1.8400000000000000E-002     5.4026888518521332E-010
  -1.8300000000000000E-002     1.3387692343602708E-010
  -1.8200000000000001E-002     2.3738236376580346E-010
  -1.8100000000000002E-002    -1.8779029720139562E-010
  -1.7999999999999999E-002    -2.2217618370068415E-011
  -1.7899999999999999E-002     2.4649646906960143E-011
  -1.7800000000000000E-002    -6.1824920183362053E-011
  -1.7700000000000000E-002    -4.7403087011232969E-010
  -1.7600000000000001E-002    -1.1765771690264160E-009
  -1.7499999999999998E-002    -1.0416689733006024E-009
  -1.7399999999999999E-002    -1.6029851890309033E-009
  -1.7299999999999999E-002    -1.6989908369069440E-009
  -1.7200000000000000E-002    -2.1650530257488754E-009
  -1.7100000000000001E-002    -2.3479576061191665E-009
  -1.7000000000000001E-002    -2.5907622713816636E-009
  -1.6899999999999998E-002    -2.8112694394621940E-009
  -1.6799999999999999E-002    -2.9481379559825882E-009
  -1.6700000000000000E-002    -3.2786617865099288E-009
  -1.6600000000000000E-002    -2.8205595636876524E-009
  -1.6500000000000001E-002    -3.0392910410625973E-009
  -1.6400000000000001E-002    -3.6109482071111643E-009
  -1.6299999999999999E-002    -2.1680355288822284E-009
  -1.6199999999999999E-002    -2.7830073801027311E-009
  -1.6100000000000000E-002    -1.7544395936042179E-009
  -1.6000000000000000E-002    -1.2373265745324602E-009
  -1.5900000000000001E-002    -3.6692235361179826E-010
  -1.5799999999999998E-002     4.2734596417126625E-010
  -1.5699999999999999E-002     2.3356103717731003E-009
  -1.5599999999999999E-002     4.0667669232163917E-009
  -1.5500000000000000E-002     6.0969949089439979E-009
  -1.5400000000000000E-002     7.5911223973434971E-009
  -1.5300000000000001E-002     9.4725489674374330E-009
  -1.5199999999999998E-002     1.1679122557950450E-008
  -1.5099999999999999E-002     1.3644358531905709E-008
  -1.4999999999999999E-002     1.5599558977896777E-008
  -1.4900000000000000E-002     1.6912446554329108E-008
  -1.4800000000000001E-002     1.8055278161455135E-008
  -1.4700000000000001E-002     1.8294111114869338E-008
  -1.4599999999999998E-002     1.7972746846339760E-008
  -1.4499999999999999E-002     1.7159166532110248E-008
  -1.4400000000000000E-002     1.5091940142042404E-008
  -1.4300000000000000E-002     1.3251999497754241E-008
  -1.4200000000000001E-002     9.8023775763067533E-009
  -1.4099999999999998E-002     5.9278195685408264E-009
  -1.3999999999999999E-002     1.8275870816708562E-009
  -1.3899999999999999E-002    -2.9606213036714735E-009
  -1.3800000000000000E-002    -9.6215302392010926E-009
  -1.3700000000000000E-002    -1.5141775833171778E-008
  -1.3600000000000001E-002    -2.2749670591792892E-008
  -1.3499999999999998E-002    -2.8970527310434591E-008
  -1.3399999999999999E-002    -3.6457471708217781E-008
  -1.3299999999999999E-002    -4.2470020389373531E-008
  -1.3200000000000000E-002    -4.8081009396128138E-008
  -1.3100000000000001E-002    -5.2543487782941156E-008
  -1.3000000000000001E-002    -5.5718075486765883E-008
  -1.2899999999999998E-002    -5.7554725430009057E-008
  -1.2799999999999999E-002    -5.7691099897283493E-008
  -1.2699999999999999E-002    -5.5245749308596714E-008
  -1.2600000000000000E-002    -5.1017092772553951E-008
  -1.2500000000000001E-002    -4.4451820002677778E-008
  -1.2399999999999998E-002    -3.5930895592173329E-008
  -1.2299999999999998E-002    -2.5928590829948917E-008
  -1.2199999999999999E-002    -1.3342598137455752E-008
  -1.2100000000000000E-002     6.4649213760148427E-010
  -1.2000000000000000E-002     1.6632013100092990E-008
  -1.1900000000000001E-002     3.2633177937668734E-008
  -1.1799999999999998E-002     4.8782485606579939E-008
  -1.1699999999999999E-002     6.5601120979863481E-008
  -1.1599999999999999E-002     8.1712947519463341E-008
  -1.1500000000000000E-002     9.4381384485586750E-008
  -1.1400000000000000E-002     1.0408149364593555E-007
  -1.1300000000000001E-002     1.1280190648221833E-007
  -1.1199999999999998E-002     1.1837534685810169E-007
  -1.1099999999999999E-002     1.1818695355714226E-007
  -1.0999999999999999E-002     1.1485158779578342E-007
  -1.0900000000000000E-002     1.0758793678178336E-007
  -1.0800000000000001E-002     9.6405834426604997E-008
  -1.0699999999999998E-002     7.9126230900783412E-008
  -1.0599999999999998E-002     5.5908159879436425E-008
  -1.0499999999999999E-002     3.1180384496565239E-008
  -1.0400000000000000E-002     3.6099754296969877E-009
  -1.0300000000000000E-002    -2.6814831244337256E-008
  -1.0200000000000001E-002    -5.6065733389232264E-008
  -1.0099999999999998E-002    -8.6944062616112205E-008
  -9.9999999999999985E-003    -1.1556677037560803E-007
  -9.8999999999999991E-003    -1.4125855329893966E-007
  -9.7999999999999997E-003    -1.6247638257027575E-007
  -9.7000000000000003E-003    -1.7725908207921748E-007
  -9.6000000000000009E-003    -1.8905878107489116E-007
  -9.4999999999999980E-003    -1.9262168393652246E-007
  -9.3999999999999986E-003    -1.8299537885013706E-007
  -9.2999999999999992E-003    -1.6687205572907260E-007
  -9.1999999999999998E-003    -1.3965851053399092E-007
  -9.1000000000000004E-003    -1.0763078250874969E-007
  -9.0000000000000011E-003    -6.5314274877437128E-008
  -8.8999999999999982E-003    -1.7683445818761356E-008
  -8.7999999999999988E-003     3.6544093973134295E-008
  -8.6999999999999994E-003     9.6437361207790673E-008
  -8.5999999999999965E-003     1.6358204391053732E-007
  -8.5000000000000006E-003     2.2728833926066727E-007
  -8.3999999999999977E-003     2.8463367129916151E-007
  -8.3000000000000018E-003     3.3948487043744535E-007
  -8.1999999999999990E-003     3.8197293861230719E-007
  -8.0999999999999961E-003     4.0950189372779278E-007
  -8.0000000000000002E-003     4.2372809616608720E-007
  -7.8999999999999973E-003     4.2127311417061719E-007
  -7.8000000000000014E-003     4.0550457924837247E-007
  -7.6999999999999985E-003     3.6867407970930799E-007
  -7.6000000000000026E-003     3.0009064744263014E-007
  -7.4999999999999997E-003     2.1795021609705145E-007
  -7.3999999999999969E-003     1.1344626216214238E-007
  -7.3000000000000009E-003    -1.9483232804873296E-008
  -7.1999999999999981E-003    -1.5723007606993633E-007
  -7.1000000000000021E-003    -3.0143539220262028E-007
  -6.9999999999999993E-003    -4.6082720928097842E-007
  -6.8999999999999964E-003    -6.2240195575213875E-007
  -6.8000000000000005E-003    -7.8218624821602134E-007
  -6.6999999999999976E-003    -9.0021933374373475E-007
  -6.6000000000000017E-003    -1.0174356930292561E-006
  -6.4999999999999988E-003    -1.1015935115210596E-006
  -6.3999999999999960E-003    -1.1636311683105305E-006
  -6.3000000000000000E-003    -1.1855667025884031E-006
  -6.1999999999999972E-003    -1.1881539876412717E-006
  -6.1000000000000013E-003    -1.1456056654424174E-006
  -5.9999999999999984E-003    -1.0348201158194570E-006
  -5.9000000000000025E-003    -9.2188309963603388E-007
  -5.7999999999999996E-003    -7.5738728355645435E-007
  -5.6999999999999967E-003    -5.2066519629079266E-007
  -5.6000000000000008E-003    -2.5974210871027026E-007
  -5.4999999999999979E-003     6.9088471832401410E-008
  -5.4000000000000020E-003     4.3224966361776751E-007
  -5.2999999999999992E-003     7.9412302511627786E-007
  -5.1999999999999963E-003     1.1800561878771987E-006
  -5.1000000000000004E-003     1.5054628192956443E-006
  -4.9999999999999975E-003     1.8856167116609868E-006
  -4.9000000000000016E-003     2.3357824829872698E-006
  -4.7999999999999987E-003     2.6543420972302556E-006
  -4.6999999999999958E-003     2.8795211619581096E-006
  -4.5999999999999999E-003     3.0677629183628596E-006
  -4.4999999999999971E-003     3.1153210784395924E-006
  -4.4000000000000011E-003     3.0828166472929297E-006
  -4.2999999999999983E-003     2.9787613584630890E-006
  -4.2000000000000023E-003     2.7533710635907482E-006
  -4.0999999999999995E-003     2.2629787963523995E-006
  -3.9999999999999966E-003     1.7755390899765189E-006
  -3.9000000000000007E-003     1.1462230986580835E-006
  -3.7999999999999978E-003     4.4312633917797939E-007
  -3.7000000000000019E-003    -3.8658183143525093E-007
  -3.5999999999999990E-003    -1.1274000826233532E-006
  -3.4999999999999962E-003    -1.8706990658756695E-006
  -3.4000000000000002E-003    -2.6418260858918075E-006
  -3.2999999999999974E-003    -3.3489709494460840E-006
  -3.2000000000000015E-003    -4.0198056012741290E-006
  -3.0999999999999986E-003    -4.4557586988958064E-006
  -2.9999999999999957E-003    -5.1526612878660671E-006
  -2.8999999999999998E-003    -5.5559471547894645E-006
  -2.7999999999999969E-003    -5.6241542552015744E-006
  -2.7000000000000010E-003    -5.4093598009785637E-006
  -2.5999999999999981E-003    -5.3427556849783286E-006
  -2.5000000000000022E-003    -4.8756155592855066E-006
  -2.3999999999999994E-003    -4.1331377360620536E-006
  -2.2999999999999965E-003    -3.3130158954008948E-006
  -2.2000000000000006E-003    -2.2364019969245419E-006
  -2.0999999999999977E-003    -1.0769296068247058E-006
  -2.0000000000000018E-003     1.8098094756169303E-007
  -1.8999999999999989E-003     1.4941726931283483E-006
  -1.7999999999999960E-003     2.7569835765461903E-006
  -1.7000000000000001E-003     4.0043410081125330E-006
  -1.5999999999999973E-003     5.5688101383566391E-006
  -1.5000000000000013E-003     6.8548638409993146E-006
  -1.3999999999999985E-003     7.2648422246857081E-006
  -1.2999999999999956E-003     7.8567436503362842E-006
  -1.1999999999999997E-003     7.8784987636026926E-006
  -1.0999999999999968E-003     7.9619421740062535E-006
  -1.0000000000000009E-003     8.1327043517376296E-006
  -8.9999999999999802E-004     7.3609276114439126E-006
  -8.0000000000000210E-004     7.2712414294073824E-006
  -6.9999999999999923E-004     6.6487223193689715E-006
  -5.9999999999999637E-004     4.8071347009681631E-006
  -5.0000000000000044E-004     2.9737134354945738E-006
  -3.9999999999999758E-004     8.5170114516586182E-007
  -3.0000000000000165E-004    -1.9334304397489177E-006
  -1.9999999999999879E-004    -4.6943132474552840E-006
  -9.9999999999995925E-005    -7.4144886639260221E-006
   0.0000000000000000         -9.8267237262916751E-006
   1.0000000000000286E-004    -1.1727357559720986E-005
   1.9999999999999879E-004    -1.3046285857853945E-005
   3.0000000000000165E-004    -1.4781451682210900E-005
   4.0000000000000452E-004    -1.4170572285365779E-005
   5.0000000000000044E-004    -1.4992471733421553E-005
   6.0000000000000331E-004    -1.5038174751680344E-005
   6.9999999999999923E-004    -1.3780757399217691E-005
   8.0000000000000210E-004    -1.2235373105795588E-005
   8.9999999999999802E-004    -1.0935485988738947E-005
   1.0000000000000009E-003    -7.8113271229085512E-006
   1.1000000000000038E-003    -4.3916661525145173E-006
   1.1999999999999997E-003    -2.7169465965926065E-007
   1.3000000000000025E-003     5.4426295719167683E-006
   1.3999999999999985E-003     8.2836040746769868E-006
   1.5000000000000013E-003     1.2778986274497584E-005
   1.6000000000000042E-003     1.8098306100000627E-005
   1.7000000000000001E-003     2.2236376025830396E-005
   1.8000000000000030E-003     2.5579656721674837E-005
   1.8999999999999989E-003     2.8058295356458984E-005
   2.0000000000000018E-003     3.0858820537105203E-005
   2.1000000000000046E-003     3.1145322282100096E-005
   2.2000000000000006E-003     3.1181050871964544E-005
   2.3000000000000034E-003     3.0827301088720560E-005
   2.3999999999999994E-003     2.6630270440364257E-005
   2.5000000000000022E-003     1.8790484318742529E-005
   2.5999999999999981E-003     9.3304624897427857E-006
   2.7000000000000010E-003     2.3829602469049860E-006
   2.8000000000000039E-003    -1.0915061466221232E-005
   2.8999999999999998E-003    -1.9659442841657437E-005
   3.0000000000000027E-003    -2.7920868888031691E-005
   3.0999999999999986E-003    -3.9289581764023751E-005
   3.2000000000000015E-003    -4.7470599383814260E-005
   3.3000000000000043E-003    -5.5854645324870944E-005
   3.4000000000000002E-003    -5.6112898164428771E-005
   3.5000000000000031E-003    -5.5091644753701985E-005
   3.5999999999999990E-003    -5.6274588132509962E-005
   3.7000000000000019E-003    -5.4637202993035316E-005
   3.7999999999999978E-003    -4.3130163248861209E-005
   3.9000000000000007E-003    -3.5642042348627001E-005
   4.0000000000000036E-003    -2.3374132069875486E-005
   4.0999999999999995E-003    -8.3592603914439678E-006
   4.2000000000000023E-003     1.2828482795157470E-005
   4.2999999999999983E-003     3.6492310755420476E-005
   4.4000000000000011E-003     4.5209693780634552E-005
   4.5000000000000040E-003     6.0846989072160795E-005
   4.5999999999999999E-003     7.2403301601298153E-005
   4.7000000000000028E-003     7.7200267696753144E-005
   4.7999999999999987E-003     9.1117210104130208E-005
   4.9000000000000016E-003     9.6980475063901395E-005
   5.0000000000000044E-003     1.0000991460401565E-004
   5.1000000000000004E-003     1.0238264076178893E-004
   5.2000000000000032E-003     8.8286375103052706E-005
   5.2999999999999992E-003     7.6969488873146474E-005
   5.4000000000000020E-003     6.4040912548080087E-005
   5.4999999999999979E-003     5.4354823078028858E-005
   5.6000000000000008E-003     3.1487754313275218E-005
   5.7000000000000037E-003     1.8490347429178655E-005
   5.7999999999999996E-003     6.4581411152175860E-007
   5.9000000000000025E-003    -3.0367631552508101E-005
   5.9999999999999984E-003    -4.0233611798612401E-005
   6.1000000000000013E-003    -7.5784097134601325E-005
   6.2000000000000041E-003    -9.9130564194638282E-005
   6.3000000000000000E-003    -1.0770496010081843E-004
   6.4000000000000029E-003    -1.2194312876090407E-004
   6.4999999999999988E-003    -1.3497214240487665E-004
   6.6000000000000017E-003    -1.3536897313315421E-004
   6.7000000000000046E-003    -1.5851638454478234E-004
   6.8000000000000005E-003    -1.6364222392439842E-004
   6.9000000000000034E-003    -1.6280775889754295E-004
   6.9999999999999993E-003    -1.5768146840855479E-004
   7.1000000000000021E-003    -1.3334055256564170E-004
   7.1999999999999981E-003    -1.2069000513292849E-004
   7.3000000000000009E-003    -1.3578245125245303E-004
   7.4000000000000038E-003    -1.1846819688798860E-004
   7.4999999999999997E-003    -7.9986355558503419E-005
   7.6000000000000026E-003    -4.8980509745888412E-005
   7.6999999999999985E-003    -2.3798240363248624E-005
   7.8000000000000014E-003    -1.3457374734571204E-005
   7.9000000000000042E-003     4.8775193135952577E-005
   8.0000000000000002E-003     1.0360214218962938E-004
   8.1000000000000030E-003     1.8168326641898602E-004
   8.1999999999999990E-003     2.1674983145203441E-004
   8.3000000000000018E-003     2.5645195273682475E-004
   8.4000000000000047E-003     2.5225707213394344E-004
   8.5000000000000006E-003     2.5744989397935569E-004
   8.6000000000000035E-003     2.6610429631546140E-004
   8.6999999999999994E-003     2.1963460312690586E-004
   8.8000000000000023E-003     2.2621049720328301E-004
   8.8999999999999982E-003     1.8938386347144842E-004
   9.0000000000000011E-003     1.9181976676918566E-004
   9.1000000000000039E-003     1.6047904500737786E-004
   9.1999999999999998E-003     1.4675686543341726E-004
   9.3000000000000027E-003     1.4438539801631123E-004
   9.3999999999999986E-003     1.0927257972070947E-004
   9.5000000000000015E-003     7.2435010224580765E-005
   9.6000000000000044E-003    -1.5216237443382852E-005
   9.7000000000000003E-003    -8.7322463514283299E-005
   9.8000000000000032E-003    -1.0964953253278509E-004
   9.8999999999999991E-003    -1.4193366223480552E-004
   1.0000000000000002E-002    -2.1261068468447775E-004
   1.0100000000000005E-002    -2.3076590150594711E-004
   1.0200000000000001E-002    -2.9883749084547162E-004
   1.0300000000000004E-002    -2.9614646336995065E-004
   1.0400000000000000E-002    -3.3782134414650500E-004
   1.0500000000000002E-002    -2.8786761686205864E-004
   1.0599999999999998E-002    -2.7237343601882458E-004
   1.0700000000000001E-002    -2.5933817960321903E-004
   1.0800000000000004E-002    -1.3925397070124745E-004
   1.0900000000000000E-002    -1.1228587391087785E-004
   1.1000000000000003E-002     4.3279716919641942E-005
   1.1099999999999999E-002     1.0575431224424392E-004
   1.1200000000000002E-002     1.4535873197019100E-004
   1.1300000000000004E-002     2.3714636336080730E-004
   1.1400000000000000E-002     2.9381559579633176E-004
   1.1500000000000003E-002     4.4314769911579788E-004
   1.1599999999999999E-002     4.1362704359926283E-004
   1.1700000000000002E-002     3.8516381755471230E-004
   1.1800000000000005E-002     4.3807408655993640E-004
   1.1900000000000001E-002     4.4949760194867849E-004
   1.2000000000000004E-002     4.7594954958185554E-004
   1.2100000000000000E-002     4.2350060539320111E-004
   1.2200000000000003E-002     3.1139660859480500E-004
   1.2299999999999998E-002     3.3092149533331394E-004
   1.2400000000000001E-002     1.1021774116670713E-004
   1.2500000000000004E-002    -3.5384353395784274E-005
   1.2600000000000000E-002    -2.8821124578826129E-004
   1.2700000000000003E-002    -4.7670319327153265E-004
   1.2799999999999999E-002    -6.4438529079779983E-004
   1.2900000000000002E-002    -6.8664603168144822E-004
   1.3000000000000005E-002    -8.1793509889394045E-004
   1.3100000000000001E-002    -8.7316561257466674E-004
   1.3200000000000003E-002    -9.9686405155807734E-004
   1.3299999999999999E-002    -1.0793850524351001E-003
   1.3400000000000002E-002    -1.0753782698884606E-003
   1.3500000000000005E-002    -1.0438074823468924E-003
   1.3600000000000001E-002    -9.7241828916594386E-004
   1.3700000000000004E-002    -7.7985326061025262E-004
   1.3800000000000000E-002    -5.2947434596717358E-004
   1.3900000000000003E-002    -4.1017751209437847E-004
   1.3999999999999999E-002    -3.1739933183416724E-004
   1.4100000000000001E-002    -9.6079915238078684E-005
   1.4200000000000004E-002    -8.8792025053407997E-005
   1.4300000000000000E-002     6.8811772507615387E-005
   1.4400000000000003E-002     2.5230718892998993E-004