 -0.12000000000000000          0.0000000000000000
 -0.11889999999999999          0.0000000000000000
 -0.11780000000000000          0.0000000000000000
 -0.11670000000000000          0.0000000000000000
 -0.11559999999999999          0.0000000000000000
 -0.11449999999999999          0.0000000000000000
 -0.11340000000000000          0.0000000000000000
 -0.11230000000000000          0.0000000000000000
 -0.11119999999999999          0.0000000000000000
 -0.11009999999999999         -1.7903855838441455E-020
 -0.10900000000000000         -3.9101856361268481E-019
 -0.10790000000000000         -3.3151988608180946E-018
 -0.10679999999999999         -1.5870695859664990E-017
 -0.10569999999999999         -4.7726872123876504E-017
 -0.10460000000000000         -8.6013667929722237E-017
 -0.10349999999999999         -4.6199592310638195E-017
 -0.10239999999999999          2.1885875519173027E-016
 -0.10130000000000000          6.7738336522669669E-016
 -0.10020000000000000          6.2188322542375317E-016
  -9.9099999999999994E-002    -1.4506739417303929E-015
  -9.7999999999999990E-002    -6.1208608236680735E-015
  -9.6899999999999986E-002    -8.5870345190486481E-015
  -9.5799999999999996E-002     4.9538306874023601E-015
  -9.4699999999999993E-002     4.7623726116092710E-014
  -9.3599999999999989E-002     9.3096279925493353E-014
  -9.2499999999999999E-002     2.2456989813199844E-014
  -9.1399999999999995E-002    -3.4035155336425982E-013
  -9.0299999999999991E-002    -9.2636380337463020E-013
  -8.9200000000000002E-002    -8.6972334716051147E-013
  -8.8099999999999984E-002     1.5564961429112567E-012
  -8.6999999999999994E-002     7.0070260357879555E-012
  -8.5899999999999990E-002     1.0664700893225909E-011
  -8.4799999999999986E-002    -3.0712387385882500E-013
  -8.3699999999999997E-002    -3.7217930126676180E-011
  -8.2599999999999993E-002    -8.2013451585538633E-011
  -8.1499999999999989E-002    -6.1190726097226644E-011
  -8.0399999999999999E-002     1.2128004156508609E-010
  -7.9299999999999995E-002     4.4225664797004072E-010
  -7.8199999999999992E-002     5.7854293578074589E-010
  -7.7100000000000002E-002    -4.6246523971449349E-011
  -7.5999999999999984E-002    -1.6832788496401463E-009
  -7.4899999999999994E-002    -3.2930091986571597E-009
  -7.3799999999999991E-002    -2.2289328160951527E-009
  -7.2699999999999987E-002     3.9305771970532533E-009
  -7.1599999999999997E-002     1.3250694763655702E-008
  -7.0499999999999993E-002     1.6299271266007054E-008
  -6.9399999999999989E-002     1.2075655753118753E-010
  -6.8300000000000000E-002    -3.7471110658771067E-008
  -6.7199999999999996E-002    -7.1352928898704704E-008
  -6.6099999999999992E-002    -5.1174680493204505E-008
  -6.5000000000000002E-002     5.9480623093577378E-008
  -6.3899999999999985E-002     2.1919539960890688E-007
  -6.2799999999999995E-002     2.7889257125934819E-007
  -6.1699999999999991E-002     6.0022692593975080E-008
  -6.0599999999999994E-002    -4.5224879841043730E-007
  -5.9499999999999990E-002    -9.3323126293398673E-007
  -5.8399999999999994E-002    -7.9249656437241356E-007
  -5.7299999999999990E-002     3.7005358421993151E-007
  -5.6199999999999986E-002     2.1385390027717222E-006
  -5.5099999999999996E-002     3.0734613574168179E-006
  -5.3999999999999992E-002     1.4918081205905764E-006
  -5.2899999999999989E-002    -2.8835488592449110E-006
  -5.1799999999999985E-002    -7.5832140282727778E-006
  -5.0699999999999995E-002    -8.0325435192207806E-006
  -4.9599999999999991E-002    -8.4512726061802823E-007
  -4.8499999999999988E-002     1.1945778169319965E-005
  -4.7399999999999998E-002     2.1495696273632348E-005
  -4.6299999999999994E-002     1.6729574781493284E-005
  -4.5199999999999990E-002    -6.2236813391791657E-006
  -4.4099999999999986E-002    -3.6344783438835293E-005
  -4.2999999999999997E-002    -5.0175782234873623E-005
  -4.1899999999999993E-002    -2.7205009246245027E-005
  -4.0799999999999989E-002     3.0072444133111276E-005
  -3.9699999999999985E-002     8.7922577222343534E-005
  -3.8599999999999995E-002     9.7685275250114501E-005
  -3.7499999999999992E-002     3.2016476325225085E-005
  -3.6399999999999988E-002    -8.3549915871117264E-005
  -3.5299999999999984E-002    -1.7332971037831157E-004
  -3.4199999999999994E-002    -1.5799880202393979E-004
  -3.3099999999999991E-002    -1.8895983885158785E-005
  -3.1999999999999987E-002     1.6956192848738283E-004
  -3.0899999999999997E-002     2.7589939418248832E-004
  -2.9799999999999993E-002     2.0363670773804188E-004
  -2.8699999999999989E-002    -2.4223780201282352E-005
  -2.7599999999999986E-002    -2.6069788145832717E-004
  -2.6499999999999996E-002    -3.3099486608989537E-004
  -2.5399999999999992E-002    -1.6891470295377076E-004
  -2.4299999999999988E-002     1.1338527110638097E-004
  -2.3199999999999985E-002     2.9328261734917760E-004
  -2.2099999999999995E-002     2.1071633091196418E-004
  -2.0999999999999991E-002    -8.1596583186183125E-005
  -1.9899999999999987E-002    -3.2322091283276677E-004
  -1.8799999999999983E-002    -2.3302504268940538E-004
  -1.7699999999999994E-002     2.4142272013705224E-004
  -1.6599999999999990E-002     8.0501561751589179E-004
  -1.5499999999999986E-002     9.5158675685524940E-004
  -1.4399999999999996E-002     3.0669377883896232E-004
  -1.3299999999999992E-002    -1.0320161236450076E-003
  -1.2199999999999989E-002    -2.3961684200912714E-003
  -1.1099999999999985E-002    -2.8052402194589376E-003
  -9.9999999999999950E-003    -1.4975684462115169E-003
  -8.8999999999999913E-003     1.5113786794245243E-003
  -7.7999999999999875E-003     5.1361662335693836E-003
  -6.6999999999999837E-003     7.4186124838888645E-003
  -5.5999999999999939E-003     6.2850168906152248E-003
  -4.4999999999999901E-003     7.0720771327614784E-004
  -3.3999999999999864E-003    -8.1686405465006828E-003
  -2.2999999999999826E-003    -1.6600273549556732E-002
  -1.1999999999999927E-003    -1.9199274480342865E-002
  -9.9999999999988987E-005    -1.1438600718975067E-002
   1.0000000000000148E-003     7.0427968166768551E-003
   2.1000000000000185E-003     3.0102537944912910E-002
   3.2000000000000084E-003     4.5805491507053375E-002
   4.3000000000000121E-003     4.1248138993978500E-002
   5.4000000000000159E-003     1.0257093235850334E-002
   6.5000000000000058E-003    -3.9820276200771332E-002
   7.6000000000000234E-003    -8.7069988250732422E-002
   8.7000000000000133E-003   -0.10272310674190521
   9.8000000000000032E-003    -6.6043049097061157E-002
   1.0900000000000021E-002     2.0443059504032135E-002
   1.2000000000000011E-002    0.12476805597543716
   1.3100000000000001E-002    0.19506098330020905
   1.4200000000000018E-002    0.18356491625308990
   1.5300000000000008E-002     7.4564434587955475E-002
   1.6400000000000026E-002    -9.9424652755260468E-002
   1.7500000000000016E-002   -0.26528835296630859
   1.8600000000000005E-002   -0.34094110131263733
   1.9700000000000023E-002   -0.27673560380935669
   2.0800000000000013E-002    -8.4346540272235870E-002
   2.1900000000000003E-002    0.16469040513038635
   2.3000000000000020E-002    0.37238189578056335
   2.4100000000000010E-002    0.46203666925430298
   2.5200000000000000E-002    0.41272491216659546
   2.6300000000000018E-002    0.25959527492523193
   2.7400000000000008E-002     6.0427337884902954E-002
   2.8500000000000025E-002   -0.14812126755714417
   2.9600000000000015E-002   -0.37169533967971802
   3.0700000000000005E-002   -0.63658845424652100
   3.1800000000000023E-002   -0.93418091535568237
   3.2900000000000013E-002    -1.1686290502548218
   3.4000000000000002E-002    -1.1527316570281982
   3.5100000000000020E-002   -0.67542749643325806
   3.6200000000000010E-002    0.37724438309669495
   3.7300000000000028E-002     1.9042456150054932
   3.8400000000000017E-002     3.5419530868530273
   3.9500000000000007E-002     4.7271652221679688
   4.0600000000000025E-002     4.8583631515502930
   4.1700000000000015E-002     3.4933788776397705
   4.2800000000000005E-002    0.50415885448455811
   4.3900000000000022E-002    -3.8649611473083496
   4.5000000000000012E-002    -9.0350246429443359
   4.6100000000000002E-002    -14.176714897155762
   4.7200000000000020E-002    -18.278774261474609
   4.8300000000000010E-002    -20.170488357543945
   4.9400000000000027E-002    -18.524139404296875
   5.0500000000000017E-002    -11.902746200561523
   5.1600000000000007E-002     1.0919187068939209
   5.2700000000000025E-002     21.578706741333008
   5.3800000000000014E-002     50.153163909912109
   5.4900000000000004E-002     86.777107238769531
   5.6000000000000022E-002     130.91377258300781
   5.7100000000000012E-002     181.92430114746094
   5.8200000000000002E-002     239.62176513671875
   5.9300000000000019E-002     304.80191040039062
   6.0400000000000009E-002     379.58178710937500
   6.1500000000000027E-002     467.47906494140625
   6.2600000000000017E-002     573.29516601562500
   6.3700000000000007E-002     702.95483398437500
   6.4800000000000024E-002     863.44543457031250
   6.5900000000000014E-002     1062.9027099609375
   6.7000000000000004E-002     1310.7711181640625
   6.8100000000000022E-002     1617.9069824218750
   6.9200000000000012E-002     1996.5529785156250
   7.0300000000000029E-002     2460.2497558593750
   7.1400000000000019E-002     3023.8952636718750
   7.2500000000000009E-002     3704.1989746093750
   7.3600000000000027E-002     4520.6386718750000
   7.4700000000000016E-002     5496.7880859375000
   7.5800000000000006E-002     6661.6386718750000
   7.6900000000000024E-002     8050.4663085937500
   7.8000000000000014E-002     9704.9433593750000
   7.9100000000000004E-002     11672.580078125000
   8.0200000000000021E-002     14005.928710937500
   8.1300000000000011E-002     16762.171875000000
   8.2400000000000029E-002     20003.597656250000
   8.3500000000000019E-002     23799.007812500000
   8.4600000000000009E-002     28225.785156250000
   8.5700000000000026E-002     33371.761718750000
   8.6800000000000016E-002     39336.363281250000
   8.7900000000000006E-002     46230.597656250000
   8.9000000000000024E-002     54176.242187500000
   9.0100000000000013E-002     63304.519531250000
   9.1200000000000003E-002     73755.164062500000
   9.2300000000000021E-002     85676.078125000000
   9.3400000000000011E-002     99223.335937500000
   9.4500000000000028E-002     114561.35156250000
   9.5600000000000018E-002     131862.40625000000
   9.6700000000000008E-002     151305.46875000000
   9.7800000000000026E-002     173074.06250000000
   9.8900000000000016E-002     197353.14062500000
  0.10000000000000001          224326.03125000000
  0.10110000000000002          254170.87500000000
  0.10220000000000001          287056.56250000000
  0.10330000000000003          323138.59375000000
  0.10440000000000002          362553.90625000000
  0.10550000000000001          405415.15625000000
  0.10660000000000003          451805.25000000000
  0.10770000000000002          501770.93750000000
  0.10880000000000001          555316.81250000000
  0.10990000000000003          612399.31250000000
  0.11100000000000002          672918.12500000000
  0.11210000000000001          736709.81250000000
  0.11320000000000002          803538.00000000000
  0.11430000000000001          873087.43750000000
  0.11540000000000003          944954.87500000000
  0.11650000000000002          1018644.5000000000
  0.11760000000000001          1093566.1250000000
  0.11870000000000003          1169031.1250000000
  0.11980000000000002          1244251.5000000000
  0.12090000000000001          1318340.5000000000
  0.12200000000000003          1390311.2500000000
  0.12310000000000001          1459079.0000000000
  0.12420000000000003          1523465.5000000000
  0.12530000000000002          1582204.5000000000
  0.12640000000000001          1633955.3750000000
  0.12750000000000003          1677317.6250000000
  0.12860000000000002          1710847.8750000000
  0.12970000000000001          1733078.5000000000
  0.13080000000000003          1742541.5000000000
  0.13190000000000002          1737788.3750000000
  0.13300000000000001          1717414.2500000000
  0.13410000000000000          1680087.2500000000
  0.13520000000000004          1624574.0000000000
  0.13630000000000003          1549770.7500000000
  0.13740000000000002          1454738.7500000000
  0.13850000000000001          1338727.2500000000
  0.13960000000000000          1201210.0000000000
  0.14070000000000005          1041908.6875000000
  0.14180000000000004          860822.56250000000
  0.14290000000000003          658242.31250000000
  0.14400000000000002          434779.65625000000
  0.14510000000000001          191370.75000000000
  0.14620000000000000         -70704.687500000000
  0.14730000000000004         -349828.90625000000
  0.14840000000000003         -644042.68750000000
  0.14950000000000002         -951054.50000000000
  0.15060000000000001         -1268253.6250000000
  0.15170000000000000         -1592738.6250000000
  0.15280000000000005         -1921344.6250000000
  0.15390000000000004         -2250676.7500000000
  0.15500000000000003         -2577154.5000000000
  0.15610000000000002         -2897057.5000000000
  0.15720000000000001         -3206577.2500000000
  0.15830000000000000         -3501876.2500000000
  0.15940000000000004         -3779142.0000000000
  0.16050000000000003         -4034654.2500000000
  0.16160000000000002         -4264842.0000000000
  0.16270000000000001         -4466350.0000000000
  0.16380000000000000         -4636099.5000000000
  0.16490000000000005         -4771338.5000000000
  0.16600000000000004         -4869701.5000000000
  0.16710000000000003         -4929252.0000000000
  0.16820000000000002         -4948523.5000000000
  0.16930000000000001         -4926551.0000000000
  0.17040000000000000         -4862901.5000000000
  0.17150000000000004         -4757680.0000000000
  0.17260000000000003         -4611547.0000000000
  0.17370000000000002         -4425706.5000000000
  0.17480000000000001         -4201896.0000000000
  0.17590000000000000         -3942362.0000000000
  0.17700000000000005         -3649826.2500000000
  0.17810000000000004         -3327442.0000000000
  0.17920000000000003         -2978751.0000000000
  0.18030000000000002         -2607620.0000000000
  0.18140000000000001         -2218184.0000000000
  0.18250000000000000         -1814784.1250000000
  0.18360000000000004         -1401889.2500000000
  0.18470000000000003         -984035.50000000000
  0.18580000000000002         -565749.12500000000
  0.18690000000000001         -151483.25000000000
  0.18800000000000000          254453.26562500000
  0.18910000000000005          647958.50000000000
  0.19020000000000004          1025200.8750000000
  0.19130000000000003          1382657.3750000000
  0.19240000000000002          1717173.7500000000
  0.19350000000000001          2025987.0000000000
  0.19460000000000005          2306762.7500000000
  0.19570000000000004          2557611.2500000000
  0.19680000000000003          2777098.7500000000
  0.19790000000000002          2964255.5000000000
  0.19900000000000001          3118566.7500000000
  0.20010000000000000          3239964.2500000000
  0.20120000000000005          3328801.5000000000
  0.20230000000000004          3385828.0000000000
  0.20340000000000003          3412159.2500000000
  0.20450000000000002          3409245.2500000000
  0.20560000000000000          3378819.5000000000
  0.20670000000000005          3322863.7500000000
  0.20780000000000004          3243561.0000000000
  0.20890000000000003          3143251.2500000000
