 -0.12000000000000000          0.0000000000000000
 -0.11889999999999999          0.0000000000000000
 -0.11780000000000000          0.0000000000000000
 -0.11670000000000000          0.0000000000000000
 -0.11559999999999999          0.0000000000000000
 -0.11449999999999999          0.0000000000000000
 -0.11340000000000000          0.0000000000000000
 -0.11230000000000000          0.0000000000000000
 -0.11119999999999999          0.0000000000000000
 -0.11009999999999999          0.0000000000000000
 -0.10900000000000000          0.0000000000000000
 -0.10790000000000000         -2.6898067515677611E-037
 -0.10679999999999999          4.7685423537777915E-036
 -0.10569999999999999         -5.4157733889519446E-034
 -0.10460000000000000         -7.4145780137829120E-034
 -0.10349999999999999         -1.3831029998958196E-033
 -0.10239999999999999         -1.0228194988453977E-031
 -0.10130000000000000         -4.7815790595403934E-031
 -0.10020000000000000          1.9354180645893330E-031
  -9.9099999999999994E-002     5.7185388993491881E-030
  -9.7999999999999990E-002     5.0155045042240860E-030
  -9.6899999999999986E-002    -5.9989864983932273E-029
  -9.5799999999999996E-002    -1.7701621749326545E-028
  -9.4699999999999993E-002     1.9107156996796843E-028
  -9.3599999999999989E-002     1.9403505374388297E-027
  -9.2499999999999999E-002     2.8008177105851534E-027
  -9.1399999999999995E-002    -7.7417222272115924E-027
  -9.0299999999999991E-002    -3.5833532070526164E-026
  -8.9200000000000002E-002    -3.1187763799332431E-026
  -8.8099999999999984E-002     1.3967388763758903E-025
  -8.6999999999999994E-002     4.7602844970953062E-025
  -8.5899999999999990E-002     3.1184206529687950E-025
  -8.4799999999999986E-002    -1.6617579793838602E-024
  -8.3699999999999997E-002    -5.0116810569538539E-024
  -8.2599999999999993E-002    -3.2438615177239339E-024
  -8.1499999999999989E-002     1.4519578183993448E-023
  -8.0399999999999999E-002     4.3614664790160515E-023
  -7.9299999999999995E-002     3.3428239605117288E-023
  -7.8199999999999992E-002    -9.6246438867329636E-023
  -7.7100000000000002E-002    -3.1866057723419394E-022
  -7.5999999999999984E-002    -3.0623681314875547E-022
  -7.4899999999999994E-002     4.7275775193267197E-022
  -7.3799999999999991E-002     1.9589092953160116E-021
  -7.2699999999999987E-002     2.3646662254254553E-021
  -7.1599999999999997E-002    -1.4662965833529744E-021
  -7.0499999999999993E-002    -1.0061135923182423E-020
  -6.9399999999999989E-002    -1.5205730005199860E-020
  -6.8300000000000000E-002    -2.8893483419962612E-022
  -6.7199999999999996E-002     4.2316369402059337E-020
  -6.6099999999999992E-002     8.1467700211246439E-020
  -6.5000000000000002E-002     4.0462415311257919E-020
  -6.3899999999999985E-002    -1.3829774832941852E-019
  -6.2799999999999995E-002    -3.6327601154221024E-019
  -6.1699999999999991E-002    -3.2728132473514767E-019
  -6.0599999999999994E-002     2.9283364661931825E-019
  -5.9499999999999990E-002     1.3333274662905500E-018
  -5.8399999999999994E-002     1.7450624064531074E-018
  -5.7299999999999990E-002     6.3938579808511380E-020
  -5.6199999999999986E-002    -3.8883485849433310E-018
  -5.5099999999999996E-002    -7.1556425213563359E-018
  -5.3999999999999992E-002    -4.2230477810685187E-018
  -5.2899999999999989E-002     8.0485459422991518E-018
  -5.1799999999999985E-002     2.3345414203326918E-017
  -5.0699999999999995E-002     2.4304950331333331E-017
  -4.9599999999999991E-002    -5.6681277617052890E-018
  -4.8499999999999988E-002    -5.9556732788577075E-017
  -4.7399999999999998E-002    -9.2389026843354239E-017
  -4.6299999999999994E-002    -4.2299842695312046E-017
  -4.5199999999999990E-002     1.0721844954996400E-016
  -4.4099999999999986E-002     2.6554853473336739E-016
  -4.2999999999999997E-002     2.5106585952209496E-016
  -4.1899999999999993E-002    -6.8432294734487357E-017
  -4.0799999999999989E-002    -5.7813010911024671E-016
  -3.9699999999999985E-002    -8.5091188169669220E-016
  -3.8599999999999995E-002    -3.9380599890881753E-016
  -3.7499999999999992E-002     8.4389966650328828E-016
  -3.6399999999999988E-002     2.0890621335269881E-015
  -3.5299999999999984E-002     2.0086196262844840E-015
  -3.4199999999999994E-002    -2.3014276929637445E-016
  -3.3099999999999991E-002    -3.7339380719314530E-015
  -3.1999999999999987E-002    -5.7111852919155322E-015
  -3.0899999999999997E-002    -3.1955599072501202E-015
  -2.9799999999999993E-002     4.0055137754801268E-015
  -2.8699999999999989E-002     1.1493521351400426E-014
  -2.7599999999999986E-002     1.2105783023697199E-014
  -2.6499999999999996E-002     1.5212398330496750E-015
  -2.5399999999999992E-002    -1.6003374637301761E-014
  -2.4299999999999988E-002    -2.7418810562393654E-014
  -2.3199999999999985E-002    -1.9126183519986920E-014
  -2.2099999999999995E-002     1.0350070071287430E-014
  -2.0999999999999991E-002     4.3491709664006048E-014
  -1.9899999999999987E-002     5.1877921988623121E-014
  -1.8799999999999983E-002     1.7923622045649783E-014
  -1.7699999999999994E-002    -4.4641414588368622E-014
  -1.6599999999999990E-002    -9.1235531499492262E-014
  -1.5499999999999986E-002    -7.5385024286313274E-014
  -1.4399999999999996E-002     1.0129900797307620E-014
  -1.3299999999999992E-002     1.1346912314911736E-013
  -1.2199999999999989E-002     1.5068762210246334E-013
  -1.1099999999999985E-002     7.0314468223614535E-014
  -9.9999999999999950E-003    -9.1097912362485961E-014
  -8.8999999999999913E-003    -2.1557843672085492E-013
  -7.7999999999999875E-003    -1.8523233619692492E-013
  -6.6999999999999837E-003     1.2957401807327934E-014
  -5.5999999999999939E-003     2.4681542616991625E-013
  -4.4999999999999901E-003     3.1762784134629907E-013
  -3.3999999999999864E-003     1.2001330647586766E-013
  -2.2999999999999826E-003    -2.3839925259588890E-013
  -1.1999999999999927E-003    -4.7580938754981927E-013
  -9.9999999999988987E-005    -3.4159610903805593E-013
   1.0000000000000148E-003     1.5048755969658545E-013
   2.1000000000000185E-003     6.6119700860289843E-013
   3.2000000000000084E-003     7.3632880391930056E-013
   4.3000000000000121E-003     1.7496214980289304E-013
   5.4000000000000159E-003    -7.2524695667389172E-013
   6.5000000000000058E-003    -1.2894657130252396E-012
   7.6000000000000234E-003    -9.4114429791125609E-013
   8.7000000000000133E-003     2.8659155127189195E-013
   9.8000000000000032E-003     1.6261380263171699E-012
   1.0900000000000021E-002     2.0303377035180148E-012
   1.2000000000000011E-002     9.5929872118843962E-013
   1.3100000000000001E-002    -1.0758585862469250E-012
   1.4200000000000018E-002    -2.7052375096980885E-012
   1.5300000000000008E-002    -2.6174798006123323E-012
   1.6400000000000026E-002    -5.9988418312645342E-013
   1.7500000000000016E-002     2.1110994896655910E-012
   1.8600000000000005E-002     3.5690400287946566E-012
   1.9700000000000023E-002     2.5367034861556448E-012
   2.0800000000000013E-002    -4.4170288086842202E-013
   2.1900000000000003E-002    -3.2314910296260546E-012
   2.3000000000000020E-002    -3.6050429134959483E-012
   2.4100000000000010E-002    -1.0357406121999646E-012
   2.5200000000000000E-002     2.6278517122751976E-012
   2.6300000000000018E-002     4.3410258027121174E-012
   2.7400000000000008E-002     2.2307464035697944E-012
   2.8500000000000025E-002    -2.6029894385770636E-012
   2.9600000000000015E-002    -6.4450888202782775E-012
   3.0700000000000005E-002    -5.5777552715463585E-012
   3.1800000000000023E-002     5.9334286615919662E-013
   3.2900000000000013E-002     8.3699765868194831E-012
   3.4000000000000002E-002     1.1861291462911261E-011
   3.5100000000000020E-002     7.2450032084780958E-012
   3.6200000000000010E-002    -3.8404457565477390E-012
   3.7300000000000028E-002    -1.4594190439476407E-011
   3.8400000000000017E-002    -1.7366212634595257E-011
   3.9500000000000007E-002    -9.1979514282858332E-012
   4.0600000000000025E-002     5.5146321537025145E-012
   4.1700000000000015E-002     1.7573352495414696E-011
   4.2800000000000005E-002     1.9267275275236528E-011
   4.3900000000000022E-002     9.8787002883460318E-012
   4.5000000000000012E-002    -3.8530732424102432E-012
   4.6100000000000002E-002    -1.2874628446679637E-011
   4.7200000000000020E-002    -1.2677839680841352E-011
   4.8300000000000010E-002    -6.3657885386592117E-012
   4.9400000000000027E-002    -1.2634528839816639E-012
   5.0500000000000017E-002    -1.7856697023810320E-012
   5.1600000000000007E-002    -4.8432915664142762E-012
   5.2700000000000025E-002    -2.4822175564986892E-012
   5.3800000000000014E-002     9.6383543507494451E-012
   5.4900000000000004E-002     2.5203377579385844E-011
   5.6000000000000022E-002     2.9233410830942219E-011
   5.7100000000000012E-002     1.0024358947091638E-011
   5.8200000000000002E-002    -2.7286471693255265E-011
   5.9300000000000019E-002    -5.7955331506098773E-011
   6.0400000000000009E-002    -5.2113362236649863E-011
   6.1500000000000027E-002     5.1316936811041103E-013
   6.2600000000000017E-002     7.3905083441960784E-011
   6.3700000000000007E-002     1.1419153123082282E-010
   6.4800000000000024E-002     7.4439530928227526E-011
   6.5900000000000014E-002    -4.4434112639324397E-011
   6.7000000000000004E-002    -1.7780550642942927E-010
   6.8100000000000022E-002    -2.2670450239292705E-010
   6.9200000000000012E-002    -1.2276318850368284E-010
   7.0300000000000029E-002     1.1084631823532476E-010
   7.1400000000000019E-002     3.4926805891899448E-010
   7.2500000000000009E-002     4.2716230552741763E-010
   7.3600000000000027E-002     2.4440993673380262E-010
   7.4700000000000016E-002    -1.4858161923037017E-010
   7.5800000000000006E-002    -5.5005644483685501E-010
   7.6900000000000024E-002    -7.0820593833786916E-010
   7.8000000000000014E-002    -4.7500642308406782E-010
   7.9100000000000004E-002     8.1166615095717987E-011
   8.0200000000000021E-002     6.8474564907106128E-010
   8.1300000000000011E-002     9.9485497617735064E-010
   8.2400000000000029E-002     8.0456596940337022E-010
   8.3500000000000019E-002     1.7617315939411071E-010
   8.4600000000000009E-002    -5.7909987916104910E-010
   8.5700000000000026E-002    -1.0751320944635268E-009
   8.6800000000000016E-002    -1.0763896440835197E-009
   8.7900000000000006E-002    -6.3200855660028310E-010
   8.9000000000000024E-002    -2.7496824261952213E-011
   9.0100000000000013E-002     4.1963510444276153E-010
   9.1200000000000003E-002     5.8499238786424712E-010
   9.2300000000000021E-002     6.2200311568005873E-010
   9.3400000000000011E-002     8.2828877090435071E-010
   9.4500000000000028E-002     1.3632073248004417E-009
   9.5600000000000018E-002     2.0051713622848411E-009
   9.6700000000000008E-002     2.1442185804687597E-009
   9.7800000000000026E-002     1.0802876371229786E-009
   9.8900000000000016E-002    -1.4955594540566608E-009
  0.10000000000000001         -5.1061039840760714E-009
  0.10110000000000002         -8.4486506679581908E-009
  0.10220000000000001         -9.8153245531307221E-009
  0.10330000000000003         -7.8247799351061076E-009
  0.10440000000000002         -2.1191746135684753E-009
  0.10550000000000001          6.3399867578084468E-009
  0.10660000000000003          1.5555489341068096E-008
  0.10770000000000002          2.3228530210417375E-008
  0.10880000000000001          2.7555625337072343E-008
  0.10990000000000003          2.7645690181543614E-008
  0.11100000000000002          2.3313267760727285E-008
  0.11210000000000001          1.4359799571650456E-008
  0.11320000000000002         -2.3150259487181302E-010
  0.11430000000000001         -2.2685071598971263E-008
  0.11540000000000003         -5.6136862269795529E-008
  0.11650000000000002         -1.0381369008882757E-007
  0.11760000000000001         -1.6822929183035740E-007
  0.11870000000000003         -2.5101897449530952E-007
  0.11980000000000002         -3.5371789408600307E-007
  0.12090000000000001         -4.7922105750330957E-007
  0.12200000000000003         -6.3317190779343946E-007
  0.12310000000000001         -8.2445035332057159E-007
  0.12420000000000003         -1.0643929044817924E-006
  0.12530000000000002         -1.3651768995259772E-006
  0.12640000000000001         -1.7384688817401184E-006
  0.12750000000000003         -2.1955406737106387E-006
  0.12860000000000002         -2.7493936158862198E-006
  0.12970000000000001         -3.4183185562142171E-006
  0.13080000000000003         -4.2293718252039980E-006
  0.13190000000000002         -5.2200803111190908E-006
  0.13300000000000001         -6.4375212787126657E-006
  0.13410000000000000         -7.9354167610290460E-006
  0.13520000000000004         -9.7711417765822262E-006
  0.13630000000000003         -1.2004855307168327E-005
  0.13740000000000002         -1.4701998225064017E-005
  0.13850000000000001         -1.7938633391167969E-005
  0.13960000000000000         -2.1807612938573584E-005
  0.14070000000000005         -2.6423131203046069E-005
  0.14180000000000004         -3.1922278139973059E-005
  0.14290000000000003         -3.8464106182800606E-005
  0.14400000000000002         -4.6228247811086476E-005
  0.14510000000000001         -5.5415501265088096E-005
  0.14620000000000000         -6.6251457610633224E-005
  0.14730000000000004         -7.8992248745635152E-005
  0.14840000000000003         -9.3930029834154993E-005
  0.14950000000000002         -1.1139591515529901E-004
  0.15060000000000001         -1.3175971980672330E-004
  0.15170000000000000         -1.5542826440650970E-004
  0.15280000000000005         -1.8284471298102289E-004
  0.15390000000000004         -2.1449192718137056E-004
  0.15500000000000003         -2.5089932023547590E-004
  0.15610000000000002         -2.9265106422826648E-004
  0.15720000000000001         -3.4039127058349550E-004
  0.15830000000000000         -3.9482361171394587E-004
  0.15940000000000004         -4.5670464169234037E-004
  0.16050000000000003         -5.2683439571410418E-004
  0.16160000000000002         -6.0604803729802370E-004
  0.16270000000000001         -6.9521198747679591E-004
  0.16380000000000000         -7.9522421583533287E-004
  0.16490000000000005         -9.0701499721035361E-004
  0.16600000000000004         -1.0315440595149994E-003
  0.16710000000000003         -1.1697890004143119E-003
  0.16820000000000002         -1.3227277668192983E-003
  0.16930000000000001         -1.4913164777681231E-003
  0.17040000000000000         -1.6764693427830935E-003
  0.17150000000000004         -1.8790416652336717E-003
  0.17260000000000003         -2.0998176187276840E-003
  0.17370000000000002         -2.3394951131194830E-003
  0.17480000000000001         -2.5986668188124895E-003
  0.17590000000000000         -2.8777939733117819E-003
  0.17700000000000005         -3.1771690119057894E-003
  0.17810000000000004         -3.4968755207955837E-003
  0.17920000000000003         -3.8367549423128366E-003
  0.18030000000000002         -4.1963788680732250E-003
  0.18140000000000001         -4.5750318095088005E-003
  0.18250000000000000         -4.9716946668922901E-003
  0.18360000000000004         -5.3850249387323856E-003
  0.18470000000000003         -5.8133364655077457E-003
  0.18580000000000002         -6.2545714899897575E-003
  0.18690000000000001         -6.7062787711620331E-003
  0.18800000000000000         -7.1655949577689171E-003
  0.18910000000000005         -7.6292362064123154E-003
  0.19020000000000004         -8.0935014411807060E-003
  0.19130000000000003         -8.5542863234877586E-003
  0.19240000000000002         -9.0070972219109535E-003
  0.19350000000000001         -9.4470819458365440E-003
  0.19460000000000005         -9.8690576851367950E-003
  0.19570000000000004         -1.0267541743814945E-002
  0.19680000000000003         -1.0636802762746811E-002
  0.19790000000000002         -1.0970915667712688E-002
  0.19900000000000001         -1.1263830587267876E-002
  0.20010000000000000         -1.1509451083838940E-002
  0.20120000000000005         -1.1701708659529686E-002
  0.20230000000000004         -1.1834646575152874E-002
  0.20340000000000003         -1.1902497150003910E-002
  0.20450000000000002         -1.1899777688086033E-002
  0.20560000000000000         -1.1821387335658073E-002
  0.20670000000000005         -1.1662709526717663E-002
  0.20780000000000004         -1.1419720016419888E-002
  0.20890000000000003         -1.1089087463915348E-002
