 -0.12000000000000000          0.0000000000000000
 -0.11889999999999999          0.0000000000000000
 -0.11780000000000000          0.0000000000000000
 -0.11670000000000000          0.0000000000000000
 -0.11559999999999999          0.0000000000000000
 -0.11449999999999999          0.0000000000000000
 -0.11340000000000000          0.0000000000000000
 -0.11230000000000000          0.0000000000000000
 -0.11119999999999999          0.0000000000000000
 -0.11009999999999999          0.0000000000000000
 -0.10900000000000000         -6.3542903687733545E-023
 -0.10790000000000000         -7.7619379332353075E-022
 -0.10679999999999999         -3.9333787142153266E-021
 -0.10569999999999999         -7.8564758319105605E-021
 -0.10460000000000000          1.7925488550164278E-020
 -0.10349999999999999          1.7053689298382257E-019
 -0.10239999999999999          5.2336658274176840E-019
 -0.10130000000000000          5.9553948705430375E-019
 -0.10020000000000000         -1.5604290762863712E-018
  -9.9099999999999994E-002    -8.8318636485103301E-018
  -9.7999999999999990E-002    -1.9047191834599274E-017
  -9.6899999999999986E-002    -1.2398558089178741E-017
  -9.5799999999999996E-002     5.3274375445575635E-017
  -9.4699999999999993E-002     2.0284764873180686E-016
  -9.3599999999999989E-002     3.3355466601626743E-016
  -9.2499999999999999E-002     1.0493459726126019E-016
  -9.1399999999999995E-002    -9.3253012360954447E-016
  -9.0299999999999991E-002    -2.6968101790060799E-015
  -8.9200000000000002E-002    -3.5812049025308202E-015
  -8.8099999999999984E-002    -2.2970241804292062E-016
  -8.6999999999999994E-002     1.0106875053669459E-014
  -8.5899999999999990E-002     2.4050121567647728E-014
  -8.4799999999999986E-002     2.6983500002008935E-014
  -8.3699999999999997E-002    -3.2066719207269126E-015
  -8.2599999999999993E-002    -7.5987224054229613E-014
  -8.1499999999999989E-002    -1.5721245919669835E-013
  -8.0399999999999999E-002    -1.5525851004144497E-013
  -7.9299999999999995E-002     3.5967187344762563E-014
  -7.8199999999999992E-002     4.2414850928360059E-013
  -7.7100000000000002E-002     7.9612857105393342E-013
  -7.5999999999999984E-002     7.2224913766696930E-013
  -7.4899999999999994E-002    -1.8835649186199621E-013
  -7.3799999999999991E-002    -1.8268392441150860E-012
  -7.2699999999999987E-002    -3.2344851623455906E-012
  -7.1599999999999997E-002    -2.8314282342345454E-012
  -7.0499999999999993E-002     5.3923272097522457E-013
  -6.9399999999999989E-002     6.1717475748068740E-012
  -6.8300000000000000E-002     1.0778110175191369E-011
  -6.7199999999999996E-002     9.6553052011949525E-012
  -6.6099999999999992E-002    -1.3812909149812924E-013
  -6.5000000000000002E-002    -1.6232270735883070E-011
  -6.3899999999999985E-002    -2.9855992678129439E-011
  -6.2799999999999995E-002    -2.9321094163758943E-011
  -6.1699999999999991E-002    -7.3833422015168182E-012
  -6.0599999999999994E-002     3.1500510533355452E-011
  -5.9499999999999990E-002     6.9237393596210950E-011
  -5.8399999999999994E-002     8.0464197804719362E-011
  -5.7299999999999990E-002     4.5572996765219642E-011
  -5.6199999999999986E-002    -3.5338766635195640E-011
  -5.5099999999999996E-002    -1.3458165137869571E-010
  -5.3999999999999992E-002    -2.0054521931989200E-010
  -5.2899999999999989E-002    -1.7564651122459196E-010
  -5.1799999999999985E-002    -2.7220385667714453E-011
  -5.0699999999999995E-002     2.1748985945535537E-010
  -4.9599999999999991E-002     4.5215292621136882E-010
  -4.8499999999999988E-002     5.1477683227219018E-010
  -4.7399999999999998E-002     2.6881019632440939E-010
  -4.6299999999999994E-002    -2.8117913553060703E-010
  -4.5199999999999990E-002    -9.1083884878884191E-010
  -4.4099999999999986E-002    -1.2230734203200200E-009
  -4.2999999999999997E-002    -8.5557488871401688E-010
  -4.1899999999999993E-002     2.3441243390820432E-010
  -4.0799999999999989E-002     1.5990361257323116E-009
  -3.9699999999999985E-002     2.4269251053254948E-009
  -3.8599999999999995E-002     1.9864569988925496E-009
  -3.7499999999999992E-002     1.5860879276630158E-010
  -3.6399999999999988E-002    -2.3077055821829617E-009
  -3.5299999999999984E-002    -4.0716274796182006E-009
  -3.4199999999999994E-002    -3.9234251403286180E-009
  -3.3099999999999991E-002    -1.5361333316477044E-009
  -3.1999999999999987E-002     2.2349349038108812E-009
  -3.0899999999999997E-002     5.6999476250041425E-009
  -2.9799999999999993E-002     7.1043473326426465E-009
  -2.8699999999999989E-002     5.3788076215255387E-009
  -2.7599999999999986E-002     5.6985971497169885E-010
  -2.6499999999999996E-002    -6.0416303071519906E-009
  -2.5399999999999992E-002    -1.2022052686688767E-008
  -2.4299999999999988E-002    -1.4186040786512422E-008
  -2.3199999999999985E-002    -9.6791499260007186E-009
  -2.2099999999999995E-002     2.1627251101108413E-009
  -2.0999999999999991E-002     1.7970767984820668E-008
  -1.9899999999999987E-002     3.0152364161040168E-008
  -1.8799999999999983E-002     2.9720119698595227E-008
  -1.7699999999999994E-002     1.1689710532891695E-008
  -1.6599999999999990E-002    -1.9833608533303959E-008
  -1.5499999999999986E-002    -5.0829726205847692E-008
  -1.4399999999999996E-002    -6.2976837966743915E-008
  -1.3299999999999992E-002    -4.3799168736313732E-008
  -1.2199999999999989E-002     4.2982239989441950E-009
  -1.1099999999999985E-002     6.2184369653550675E-008
  -9.9999999999999950E-003     1.0165626207481182E-007
  -8.8999999999999913E-003     9.9169668033027847E-008
  -7.7999999999999875E-003     4.8401201269143712E-008
  -6.6999999999999837E-003    -3.4957533756596604E-008
  -5.5999999999999939E-003    -1.1837518343327247E-007
  -4.4999999999999901E-003    -1.6492658971856144E-007
  -3.3999999999999864E-003    -1.4786294855184678E-007
  -2.2999999999999826E-003    -6.2520726373804791E-008
  -1.1999999999999927E-003     6.7933925151919539E-008
  -9.9999999999988987E-005     1.9577410625970515E-007
   1.0000000000000148E-003     2.6297848876311036E-007
   2.1000000000000185E-003     2.2508902475237846E-007
   3.2000000000000084E-003     7.6849779873100488E-008
   4.3000000000000121E-003    -1.3395694509199529E-007
   5.4000000000000159E-003    -3.1719719117973000E-007
   6.5000000000000058E-003    -3.7768654692627024E-007
   7.6000000000000234E-003    -2.6489729521017580E-007
   8.7000000000000133E-003    -9.0848573108814890E-009
   9.8000000000000032E-003     2.7988812689727638E-007
   1.0900000000000021E-002     4.5715796659351327E-007
   1.2000000000000011E-002     4.1316150145576103E-007
   1.3100000000000001E-002     1.3570553392128204E-007
   1.4200000000000018E-002    -2.6892968207903323E-007
   1.5300000000000008E-002    -6.1045506072332500E-007
   1.6400000000000026E-002    -6.9363090915430803E-007
   1.7500000000000016E-002    -4.1010548557096627E-007
   1.8600000000000005E-002     1.9632395265034575E-007
   1.9700000000000023E-002     9.2223888259468367E-007
   2.0800000000000013E-002     1.4652050595032051E-006
   2.1900000000000003E-002     1.5357319398390246E-006
   2.3000000000000020E-002     9.8024497674487066E-007
   2.4100000000000010E-002    -1.3510623375623254E-007
   2.5200000000000000E-002    -1.5192022146948148E-006
   2.6300000000000018E-002    -2.7390710783947725E-006
   2.7400000000000008E-002    -3.3645426356088137E-006
   2.8500000000000025E-002    -3.1204565402731532E-006
   2.9600000000000015E-002    -1.9869426068908069E-006
   3.0700000000000005E-002    -2.0625122942874441E-007
   3.1800000000000023E-002     1.8113876194547629E-006
   3.2900000000000013E-002     3.6512317365122726E-006
   3.4000000000000002E-002     5.0614526116987690E-006
   3.5100000000000020E-002     6.0424408729886636E-006
   3.6200000000000010E-002     6.7899059104092885E-006
   3.7300000000000028E-002     7.4773465712496545E-006
   3.8400000000000017E-002     7.9471365097560920E-006
   3.9500000000000007E-002     7.4558233791321982E-006
   4.0600000000000025E-002     4.6357936298591085E-006
   4.1700000000000015E-002    -2.2411206828110153E-006
   4.2800000000000005E-002    -1.4763173567189369E-005
   4.3900000000000022E-002    -3.3854641515063122E-005
   4.5000000000000012E-002    -5.9494748711585999E-005
   4.6100000000000002E-002    -9.0857014583889395E-005
   4.7200000000000020E-002    -1.2685016554314643E-004
   4.8300000000000010E-002    -1.6684619185980409E-004
   4.9400000000000027E-002    -2.1129731612745672E-004
   5.0500000000000017E-002    -2.6201343280263245E-004
   5.1600000000000007E-002    -3.2205216120928526E-004
   5.2700000000000025E-002    -3.9535792893730104E-004
   5.3800000000000014E-002    -4.8637477448210120E-004
   5.4900000000000004E-002    -5.9982720995321870E-004
   5.6000000000000022E-002    -7.4074591975659132E-004
   5.7100000000000012E-002    -9.1469445032998919E-004
   5.8200000000000002E-002    -1.1280892649665475E-003
   5.9300000000000019E-002    -1.3885239604860544E-003
   6.0400000000000009E-002    -1.7050693277269602E-003
   6.1500000000000027E-002    -2.0885707344859838E-003
   6.2600000000000017E-002    -2.5519805494695902E-003
   6.3700000000000007E-002    -3.1106884125620127E-003
   6.4800000000000024E-002    -3.7827587220817804E-003
   6.5900000000000014E-002    -4.5889900065958500E-003
   6.7000000000000004E-002    -5.5528171360492706E-003
   6.8100000000000022E-002    -6.7002568393945694E-003
   6.9200000000000012E-002    -8.0601722002029419E-003
   7.0300000000000029E-002    -9.6650561317801476E-003
   7.1400000000000019E-002    -1.1552285403013229E-002
   7.2500000000000009E-002    -1.3765448704361916E-002
   7.3600000000000027E-002    -1.6355190426111221E-002
   7.4700000000000016E-002    -1.9379168748855591E-002
   7.5800000000000006E-002    -2.2901203483343124E-002
   7.6900000000000024E-002    -2.6990184560418129E-002
   7.8000000000000014E-002    -3.1719490885734558E-002
   7.9100000000000004E-002    -3.7167407572269440E-002
   8.0200000000000021E-002    -4.3418485671281815E-002
   8.1300000000000011E-002    -5.0565101206302643E-002
   8.2400000000000029E-002    -5.8708332479000092E-002
   8.3500000000000019E-002    -6.7957729101181030E-002
   8.4600000000000009E-002    -7.8429788351058960E-002
   8.5700000000000026E-002    -9.0245649218559265E-002
   8.6800000000000016E-002   -0.10352873802185059
   8.7900000000000006E-002   -0.11840286850929260
   8.9000000000000024E-002   -0.13499122858047485
   9.0100000000000013E-002   -0.15341573953628540
   9.1200000000000003E-002   -0.17379571497440338
   9.2300000000000021E-002   -0.19624611735343933
   9.3400000000000011E-002   -0.22087490558624268
   9.4500000000000028E-002   -0.24777919054031372
   9.5600000000000018E-002   -0.27704125642776489
   9.6700000000000008E-002   -0.30872398614883423
   9.7800000000000026E-002   -0.34286507964134216
   9.8900000000000016E-002   -0.37947252392768860
  0.10000000000000001        -0.41852045059204102
  0.10110000000000002        -0.45994392037391663
  0.10220000000000001        -0.50363343954086304
  0.10330000000000003        -0.54943174123764038
  0.10440000000000002        -0.59713011980056763
  0.10550000000000001        -0.64646595716476440
  0.10660000000000003        -0.69712042808532715
  0.10770000000000002        -0.74871271848678589
  0.10880000000000001        -0.80079156160354614
  0.10990000000000003        -0.85283315181732178
  0.11100000000000002        -0.90424430370330811
  0.11210000000000001        -0.95436525344848633
  0.11320000000000002         -1.0024738311767578
  0.11430000000000001         -1.0477890968322754
  0.11540000000000003         -1.0894758701324463
  0.11650000000000002         -1.1266484260559082
  0.11760000000000001         -1.1583789587020874
  0.11870000000000003         -1.1837081909179688
  0.11980000000000002         -1.2016580104827881
  0.12090000000000001         -1.2112423181533813
  0.12200000000000003         -1.2114816904067993
  0.12310000000000001         -1.2014287710189819
  0.12420000000000003         -1.1801898479461670
  0.12530000000000002         -1.1469444036483765
  0.12640000000000001         -1.1009602546691895
  0.12750000000000003         -1.0415997505187988
  0.12860000000000002        -0.96833866834640503
  0.12970000000000001        -0.88079667091369629
  0.13080000000000003        -0.77876412868499756
  0.13190000000000002        -0.66221880912780762
  0.13300000000000001        -0.53133362531661987
  0.13410000000000000        -0.38648533821105957
  0.13520000000000004        -0.22826081514358521
  0.13630000000000003         -5.7465687394142151E-002
  0.13740000000000002         0.12486503273248672
  0.13850000000000001         0.31746643781661987
  0.13960000000000000         0.51885151863098145
  0.14070000000000005         0.72732985019683838
  0.14180000000000004         0.94103020429611206
  0.14290000000000003          1.1579092741012573
  0.14400000000000002          1.3757592439651489
  0.14510000000000001          1.5922372341156006
  0.14620000000000000          1.8049060106277466
  0.14730000000000004          2.0112779140472412
  0.14840000000000003          2.2088520526885986
  0.14950000000000002          2.3951389789581299
  0.15060000000000001          2.5676918029785156
  0.15170000000000000          2.7241549491882324
  0.15280000000000005          2.8623168468475342
  0.15390000000000004          2.9801561832427979
  0.15500000000000003          3.0758728981018066
  0.15610000000000002          3.1479039192199707
  0.15720000000000001          3.1949424743652344
  0.15830000000000000          3.2159721851348877
  0.15940000000000004          3.2103078365325928
  0.16050000000000003          3.1776223182678223
  0.16160000000000002          3.1179530620574951
  0.16270000000000001          3.0316922664642334
  0.16380000000000000          2.9195752143859863
  0.16490000000000005          2.7826740741729736
  0.16600000000000004          2.6223940849304199
  0.16710000000000003          2.4404563903808594
  0.16820000000000002          2.2388679981231689
  0.16930000000000001          2.0198800563812256
  0.17040000000000000          1.7859444618225098
  0.17150000000000004          1.5396915674209595
  0.17260000000000003          1.2838987112045288
  0.17370000000000002          1.0214447975158691
  0.17480000000000001         0.75525343418121338
  0.17590000000000000         0.48823234438896179
  0.17700000000000005         0.22323623299598694
  0.17810000000000004         -3.6961093544960022E-002
  0.17920000000000003        -0.28971374034881592
  0.18030000000000002        -0.53254556655883789
  0.18140000000000001        -0.76318073272705078
  0.18250000000000000        -0.97957599163055420
  0.18360000000000004         -1.1799424886703491
  0.18470000000000003         -1.3627538681030273
  0.18580000000000002         -1.5267540216445923
  0.18690000000000001         -1.6709790229797363
  0.18800000000000000         -1.7947679758071899
  0.18910000000000005         -1.8977656364440918
  0.19020000000000004         -1.9799067974090576
  0.19130000000000003         -2.0413832664489746
  0.19240000000000002         -2.0826342105865479
  0.19350000000000001         -2.1043362617492676
  0.19460000000000005         -2.1073758602142334
  0.19570000000000004         -2.0928297042846680
  0.19680000000000003         -2.0619385242462158
  0.19790000000000002         -2.0160667896270752
  0.19900000000000001         -1.9566693305969238
  0.20010000000000000         -1.8852750062942505
  0.20120000000000005         -1.8034646511077881
  0.20230000000000004         -1.7128419876098633
  0.20340000000000003         -1.6150026321411133
  0.20450000000000002         -1.5115053653717041
  0.20560000000000000         -1.4038524627685547
  0.20670000000000005         -1.2934765815734863
  0.20780000000000004         -1.1817283630371094
  0.20890000000000003         -1.0698574781417847
