 -0.12000000000000000          0.0000000000000000
 -0.11889999999999999          0.0000000000000000
 -0.11780000000000000          0.0000000000000000
 -0.11670000000000000          0.0000000000000000
 -0.11559999999999999          0.0000000000000000
 -0.11449999999999999          0.0000000000000000
 -0.11340000000000000          9.0235081615490658E-017
 -0.11230000000000000         -1.2182120491639953E-017
 -0.11119999999999999         -3.1552470681914463E-015
 -0.11009999999999999         -1.1832725012490830E-014
 -0.10900000000000000         -3.7379157386517592E-015
 -0.10790000000000000          8.8396249955241535E-014
 -0.10679999999999999          2.6446005758559710E-013
 -0.10569999999999999          1.5118070369798259E-013
 -0.10460000000000000         -1.0267591898233119E-012
 -0.10349999999999999         -3.2179610538751735E-012
 -0.10239999999999999         -3.2165429174335625E-012
 -0.10130000000000000          5.1814264684368894E-012
 -0.10020000000000000          2.3252455516598047E-011
  -9.9099999999999994E-002     3.3791702075403052E-011
  -9.7999999999999990E-002     2.8934493689902752E-013
  -9.6899999999999986E-002    -9.7346797289787901E-011
  -9.5799999999999996E-002    -1.9924539795823648E-010
  -9.4699999999999993E-002    -1.4625660404998797E-010
  -9.3599999999999989E-002     2.0161000646723437E-010
  -9.2499999999999999E-002     7.2454497956897512E-010
  -9.1399999999999995E-002     9.0740631675245709E-010
  -9.0299999999999991E-002     1.2742334964954694E-010
  -8.9200000000000002E-002    -1.6099142019498913E-009
  -8.8099999999999984E-002    -3.0749984780698014E-009
  -8.6999999999999994E-002    -2.2877064687065740E-009
  -8.5899999999999990E-002     1.6535528502004126E-009
  -8.4799999999999986E-002     6.6499286077714714E-009
  -8.3699999999999997E-002     7.9271282871218318E-009
  -8.2599999999999993E-002     1.7924861595020047E-009
  -8.1499999999999989E-002    -9.4427878849501212E-009
  -8.0399999999999999E-002    -1.6534794866629454E-008
  -7.9299999999999995E-002    -9.8842285467526381E-009
  -7.8199999999999992E-002     9.7794474740453552E-009
  -7.7100000000000002E-002     2.6819204634875859E-008
  -7.5999999999999984E-002     2.0854589166674486E-008
  -7.4899999999999994E-002    -1.2330056975429216E-008
  -7.3799999999999991E-002    -4.7679627357410936E-008
  -7.2699999999999987E-002    -4.4500154672277858E-008
  -7.1599999999999997E-002     1.5396926400512712E-008
  -7.0499999999999993E-002     9.5932655597152916E-008
  -6.9399999999999989E-002     1.1941648381252890E-007
  -6.8300000000000000E-002     2.9841679349829064E-008
  -6.7199999999999996E-002    -1.3895936490371241E-007
  -6.6099999999999992E-002    -2.5965340455513797E-007
  -6.5000000000000002E-002    -2.0049230897711823E-007
  -6.3899999999999985E-002     5.0030145359869493E-008
  -6.2799999999999995E-002     3.3512196750962175E-007
  -6.1699999999999991E-002     4.2786655285453890E-007
  -6.0599999999999994E-002     2.1962853224977152E-007
  -5.9499999999999990E-002    -1.6073119013526593E-007
  -5.8399999999999994E-002    -4.2602542293934675E-007
  -5.7299999999999990E-002    -3.7082338621985400E-007
  -5.6199999999999986E-002    -6.8710775735780771E-008
  -5.5099999999999996E-002     1.7404806840204401E-007
  -5.3999999999999992E-002     1.0346563783514284E-007
  -5.2899999999999989E-002    -2.0525132526927337E-007
  -5.1799999999999985E-002    -3.6440050621422415E-007
  -5.0699999999999995E-002    -2.6015811727120308E-008
  -4.9599999999999991E-002     7.2182450594482361E-007
  -4.8499999999999988E-002     1.3084364809401450E-006
  -4.7399999999999998E-002     1.1039751370844897E-006
  -4.6299999999999994E-002    -7.2425905273121316E-009
  -4.5199999999999990E-002    -1.4204633771441877E-006
  -4.4099999999999986E-002    -2.2120168523542816E-006
  -4.2999999999999997E-002    -1.8484863630874315E-006
  -4.1899999999999993E-002    -5.9378311334512546E-007
  -4.0799999999999989E-002     7.5091526241521933E-007
  -3.9699999999999985E-002     1.5326813809224404E-006
  -3.8599999999999995E-002     1.7152002556031221E-006
  -3.7499999999999992E-002     1.6999796343952767E-006
  -3.6399999999999988E-002     1.7178274447360309E-006
  -3.5299999999999984E-002     1.4573281532648252E-006
  -3.4199999999999994E-002     3.7282052289810963E-007
  -3.3099999999999991E-002    -1.5966520550136920E-006
  -3.1999999999999987E-002    -3.6527221709548030E-006
  -3.0899999999999997E-002    -4.5887113628850784E-006
  -2.9799999999999993E-002    -3.7314448491088115E-006
  -2.8699999999999989E-002    -1.4934900036678300E-006
  -2.7599999999999986E-002     1.0180256140301935E-006
  -2.6499999999999996E-002     2.9598813853226602E-006
  -2.5399999999999992E-002     4.3046056816820055E-006
  -2.4299999999999988E-002     5.4131378419697285E-006
  -2.3199999999999985E-002     6.1116852521081455E-006
  -2.2099999999999995E-002     5.3778840083396062E-006
  -2.0999999999999991E-002     2.1932262370683020E-006
  -1.9899999999999987E-002    -3.1440517886949237E-006
  -1.8799999999999983E-002    -8.6352320067817345E-006
  -1.7699999999999994E-002    -1.1787325092882384E-005
  -1.6599999999999990E-002    -1.1510779586387798E-005
  -1.5499999999999986E-002    -8.9679961092770100E-006
  -1.4399999999999996E-002    -6.4850310081965290E-006
  -1.3299999999999992E-002    -5.4920369620958809E-006
  -1.2199999999999989E-002    -5.4918205023568589E-006
  -1.1099999999999985E-002    -5.1210004130552988E-006
  -9.9999999999999950E-003    -4.2580886656651273E-006
  -8.8999999999999913E-003    -4.9411719373892993E-006
  -7.7999999999999875E-003    -9.9098560895072296E-006
  -6.6999999999999837E-003    -1.9983439415227622E-005
  -5.5999999999999939E-003    -3.2853418815648183E-005
  -4.4999999999999901E-003    -4.4695087126456201E-005
  -3.3999999999999864E-003    -5.3290375944925472E-005
  -2.2999999999999826E-003    -5.9770107327494770E-005
  -1.1999999999999927E-003    -6.7319255322217941E-005
  -9.9999999999988987E-005    -7.8147662861738354E-005
   1.0000000000000148E-003    -9.1779758804477751E-005
   2.1000000000000185E-003    -1.0641267726896331E-004
   3.2000000000000084E-003    -1.2194665032438934E-004
   4.3000000000000121E-003    -1.4147903129924089E-004
   5.4000000000000159E-003    -1.6951387806329876E-004
   6.5000000000000058E-003    -2.0850152941420674E-004
   7.6000000000000234E-003    -2.5715457741171122E-004
   8.7000000000000133E-003    -3.1230592867359519E-004
   9.8000000000000032E-003    -3.7249256274662912E-004
   1.0900000000000021E-002    -4.3963489588350058E-004
   1.2000000000000011E-002    -5.1713426364585757E-004
   1.3100000000000001E-002    -6.0649262741208076E-004
   1.4200000000000018E-002    -7.0622999919578433E-004
   1.5300000000000008E-002    -8.1453233724460006E-004
   1.6400000000000026E-002    -9.3298754654824734E-004
   1.7500000000000016E-002    -1.0672899661585689E-003
   1.8600000000000005E-002    -1.2237085029482841E-003
   1.9700000000000023E-002    -1.4045746065676212E-003
   2.0800000000000013E-002    -1.6073526348918676E-003
   2.1900000000000003E-002    -1.8283962272107601E-003
   2.3000000000000020E-002    -2.0675519481301308E-003
   2.4100000000000010E-002    -2.3286349605768919E-003
   2.5200000000000000E-002    -2.6149475015699863E-003
   2.6300000000000018E-002    -2.9243805911391973E-003
   2.7400000000000008E-002    -3.2495532650500536E-003
   2.8500000000000025E-002    -3.5835450980812311E-003
   2.9600000000000015E-002    -3.9256857708096504E-003
   3.0700000000000005E-002    -4.2810905724763870E-003
   3.1800000000000023E-002    -4.6534589491784573E-003
   3.2900000000000013E-002    -5.0375158898532391E-003
   3.4000000000000002E-002    -5.4183271713554859E-003
   3.5100000000000020E-002    -5.7782097719609737E-003
   3.6200000000000010E-002    -6.1044720932841301E-003
   3.7300000000000028E-002    -6.3901916146278381E-003
   3.8400000000000017E-002    -6.6271256655454636E-003
   3.9500000000000007E-002    -6.7980727180838585E-003
   4.0600000000000025E-002    -6.8767284974455833E-003
   4.1700000000000015E-002    -6.8354513496160507E-003
   4.2800000000000005E-002    -6.6530774347484112E-003
   4.3900000000000022E-002    -6.3146702013909817E-003
   4.5000000000000012E-002    -5.8028916828334332E-003
   4.6100000000000002E-002    -5.0894077867269516E-003
   4.7200000000000020E-002    -4.1351504623889923E-003
   4.8300000000000010E-002    -2.8992171864956617E-003
   4.9400000000000027E-002    -1.3475238811224699E-003
   5.0500000000000017E-002     5.4750288836658001E-004
   5.1600000000000007E-002     2.8154090978205204E-003
   5.2700000000000025E-002     5.4948744364082813E-003
   5.3800000000000014E-002     8.6305569857358932E-003
   5.4900000000000004E-002     1.2261232361197472E-002
   5.6000000000000022E-002     1.6410563141107559E-002
   5.7100000000000012E-002     2.1089948713779449E-002
   5.8200000000000002E-002     2.6310585439205170E-002
   5.9300000000000019E-002     3.2092154026031494E-002
   6.0400000000000009E-002     3.8458567112684250E-002
   6.1500000000000027E-002     4.5423712581396103E-002
   6.2600000000000017E-002     5.2981488406658173E-002
   6.3700000000000007E-002     6.1109188944101334E-002
   6.4800000000000024E-002     6.9779701530933380E-002
   6.5900000000000014E-002     7.8968882560729980E-002
   6.7000000000000004E-002     8.8648080825805664E-002
   6.8100000000000022E-002     9.8767600953578949E-002
   6.9200000000000012E-002    0.10924784839153290
   7.0300000000000029E-002    0.11998804658651352
   7.1400000000000019E-002    0.13088473677635193
   7.2500000000000009E-002    0.14184153079986572
   7.3600000000000027E-002    0.15276055037975311
   7.4700000000000016E-002    0.16352404654026031
   7.5800000000000006E-002    0.17398412525653839
   7.6900000000000024E-002    0.18397194147109985
   7.8000000000000014E-002    0.19331936538219452
   7.9100000000000004E-002    0.20187149941921234
   8.0200000000000021E-002    0.20947803556919098
   8.1300000000000011E-002    0.21597434580326080
   8.2400000000000029E-002    0.22117263078689575
   8.3500000000000019E-002    0.22487494349479675
   8.4600000000000009E-002    0.22689823806285858
   8.5700000000000026E-002    0.22708745300769806
   8.6800000000000016E-002    0.22530293464660645
   8.7900000000000006E-002    0.22139760851860046
   8.9000000000000024E-002    0.21520952880382538
   9.0100000000000013E-002    0.20658001303672791
   9.1200000000000003E-002    0.19538208842277527
   9.2300000000000021E-002    0.18153171241283417
   9.3400000000000011E-002    0.16497032344341278
   9.4500000000000028E-002    0.14563557505607605
   9.5600000000000018E-002    0.12345010042190552
   9.6700000000000008E-002     9.8341651260852814E-002
   9.7800000000000026E-002     7.0275127887725830E-002
   9.8900000000000016E-002     3.9264462888240814E-002
  0.10000000000000001          5.3515546023845673E-003
  0.10110000000000002         -3.1428582966327667E-002
  0.10220000000000001         -7.1060255169868469E-002
  0.10330000000000003        -0.11352647840976715
  0.10440000000000002        -0.15877510607242584
  0.10550000000000001        -0.20670634508132935
  0.10660000000000003        -0.25719797611236572
  0.10770000000000002        -0.31014230847358704
  0.10880000000000001        -0.36545822024345398
  0.10990000000000003        -0.42306461930274963
  0.11100000000000002        -0.48284041881561279
  0.11210000000000001        -0.54461145401000977
  0.11320000000000002        -0.60817712545394897
  0.11430000000000001        -0.67334848642349243
  0.11540000000000003        -0.73995822668075562
  0.11650000000000002        -0.80782872438430786
  0.11760000000000001        -0.87672328948974609
  0.11870000000000003        -0.94632577896118164
  0.11980000000000002         -1.0162658691406250
  0.12090000000000001         -1.0861593484878540
  0.12200000000000003         -1.1556180715560913
  0.12310000000000001         -1.2242149114608765
  0.12420000000000003         -1.2914365530014038
  0.12530000000000002         -1.3566653728485107
  0.12640000000000001         -1.4192104339599609
  0.12750000000000003         -1.4783508777618408
  0.12860000000000002         -1.5333466529846191
  0.12970000000000001         -1.5834070444107056
  0.13080000000000003         -1.6276446580886841
  0.13190000000000002         -1.6650696992874146
  0.13300000000000001         -1.6946341991424561
  0.13410000000000000         -1.7152863740921021
  0.13520000000000004         -1.7259956598281860
  0.13630000000000003         -1.7257366180419922
  0.13740000000000002         -1.7134578227996826
  0.13850000000000001         -1.6880850791931152
  0.13960000000000000         -1.6485756635665894
  0.14070000000000005         -1.5939878225326538
  0.14180000000000004         -1.5235164165496826
  0.14290000000000003         -1.4364818334579468
  0.14400000000000002         -1.3323067426681519
  0.14510000000000001         -1.2105323076248169
  0.14620000000000000         -1.0708808898925781
  0.14730000000000004        -0.91331815719604492
  0.14840000000000003        -0.73807930946350098
  0.14950000000000002        -0.54564970731735229
  0.15060000000000001        -0.33673214912414551
  0.15170000000000000        -0.11225984245538712
  0.15280000000000005         0.12655478715896606
  0.15390000000000004         0.37817829847335815
  0.15500000000000003         0.64076590538024902
  0.15610000000000002         0.91221427917480469
  0.15720000000000001          1.1902089118957520
  0.15830000000000000          1.4722492694854736
  0.15940000000000004          1.7556343078613281
  0.16050000000000003          2.0374500751495361
  0.16160000000000002          2.3146090507507324
  0.16270000000000001          2.5839412212371826
  0.16380000000000000          2.8422727584838867
  0.16490000000000005          3.0864701271057129
  0.16600000000000004          3.3134496212005615
  0.16710000000000003          3.5201838016510010
  0.16820000000000002          3.7037611007690430
  0.16930000000000001          3.8614828586578369
  0.17040000000000000          3.9909536838531494
  0.17150000000000004          4.0901193618774414
  0.17260000000000003          4.1572608947753906
  0.17370000000000002          4.1909928321838379
  0.17480000000000001          4.1903023719787598
  0.17590000000000000          4.1546168327331543
  0.17700000000000005          4.0838561058044434
  0.17810000000000004          3.9784340858459473
  0.17920000000000003          3.8392198085784912
  0.18030000000000002          3.6674885749816895
  0.18140000000000001          3.4649174213409424
  0.18250000000000000          3.2336018085479736
  0.18360000000000004          2.9760458469390869
  0.18470000000000003          2.6951236724853516
  0.18580000000000002          2.3940012454986572
  0.18690000000000001          2.0760478973388672
  0.18800000000000000          1.7447941303253174
  0.18910000000000005          1.4039194583892822
  0.19020000000000004          1.0572179555892944
  0.19130000000000003         0.70852410793304443
  0.19240000000000002         0.36161580681800842
  0.19350000000000001          2.0131528377532959E-002
  0.19460000000000005        -0.31247046589851379
  0.19570000000000004        -0.63291847705841064
  0.19680000000000003        -0.93815040588378906
  0.19790000000000002         -1.2253805398941040
  0.19900000000000001         -1.4921654462814331
  0.20010000000000000         -1.7364435195922852
  0.20120000000000005         -1.9565320014953613
  0.20230000000000004         -2.1511082649230957
  0.20340000000000003         -2.3192024230957031
  0.20450000000000002         -2.4602172374725342
  0.20560000000000000         -2.5739541053771973
  0.20670000000000005         -2.6606032848358154
  0.20780000000000004         -2.7207038402557373
  0.20890000000000003         -2.7550795078277588
