 -0.12000000000000000          0.0000000000000000
 -0.11889999999999999          0.0000000000000000
 -0.11780000000000000          0.0000000000000000
 -0.11670000000000000          0.0000000000000000
 -0.11559999999999999          0.0000000000000000
 -0.11449999999999999          0.0000000000000000
 -0.11340000000000000          0.0000000000000000
 -0.11230000000000000          0.0000000000000000
 -0.11119999999999999          0.0000000000000000
 -0.11009999999999999          3.2033412355651497E-022
 -0.10900000000000000          4.0328891881403094E-021
 -0.10790000000000000          2.2314660745561228E-020
 -0.10679999999999999          6.3631010792309436E-020
 -0.10569999999999999          4.6576178304471237E-020
 -0.10460000000000000         -3.7851081726905876E-019
 -0.10349999999999999         -1.7632827138058129E-018
 -0.10239999999999999         -3.6827284418652057E-018
 -0.10130000000000000         -2.0801694026202837E-018
 -0.10020000000000000          1.1920099452085206E-017
  -9.9099999999999994E-002     4.3941399164535780E-017
  -9.7999999999999990E-002     7.3312316241415398E-017
  -9.6899999999999986E-002     2.9747671376117920E-017
  -9.5799999999999996E-002    -1.8193129506499498E-016
  -9.4699999999999993E-002    -5.5614071028305145E-016
  -9.3599999999999989E-002    -7.9345361347793355E-016
  -9.2499999999999999E-002    -2.5056444248710002E-016
  -9.1399999999999995E-002     1.6459965629936823E-015
  -9.0299999999999991E-002     4.4354516058804118E-015
  -8.9200000000000002E-002     5.7175765790190396E-015
  -8.8099999999999984E-002     1.6562064863816488E-015
  -8.6999999999999994E-002    -9.9703807764171121E-015
  -8.5899999999999990E-002    -2.5017788947249986E-014
  -8.4799999999999986E-002    -3.0475029102897469E-014
  -8.3699999999999997E-002    -9.6286538041768371E-015
  -8.2599999999999993E-002     4.3299544993328359E-014
  -8.1499999999999989E-002     1.0634366515637969E-013
  -8.0399999999999999E-002     1.2706277544884126E-013
  -7.9299999999999995E-002     4.8713915117449408E-014
  -7.8199999999999992E-002    -1.3827181316160980E-013
  -7.7100000000000002E-002    -3.5152103125025980E-013
  -7.5999999999999984E-002    -4.2645617939762737E-013
  -7.4899999999999994E-002    -2.0715480925689173E-013
  -7.3799999999999991E-002     3.1485193141903012E-013
  -7.2699999999999987E-002     9.0942899912127562E-013
  -7.1599999999999997E-002     1.1671498186330287E-012
  -7.0499999999999993E-002     7.3063560410147055E-013
  -6.9399999999999989E-002    -4.1532302228440565E-013
  -6.8300000000000000E-002    -1.7981572177430682E-012
  -6.7199999999999996E-002    -2.6121394543915377E-012
  -6.6099999999999992E-002    -2.1444547526616731E-012
  -6.5000000000000002E-002    -2.4275573955526153E-013
  -6.3899999999999985E-002     2.4657654390525252E-012
  -6.2799999999999995E-002     4.7539840987431692E-012
  -6.1699999999999991E-002     5.2909868326900256E-012
  -6.0599999999999994E-002     3.2312525051481078E-012
  -5.9499999999999990E-002    -1.2983329689131295E-012
  -5.8399999999999994E-002    -6.9249371861812570E-012
  -5.7299999999999990E-002    -1.1112792977496788E-011
  -5.6199999999999986E-002    -1.0867734663577711E-011
  -5.5099999999999996E-002    -4.2409036352109020E-012
  -5.3999999999999992E-002     7.7641235454728452E-012
  -5.2899999999999989E-002     2.0121593627409062E-011
  -5.1799999999999985E-002     2.5090120953086270E-011
  -5.0699999999999995E-002     1.6366932115152721E-011
  -4.9599999999999991E-002    -5.7051815528785799E-012
  -4.8499999999999988E-002    -3.1577022246986886E-011
  -4.7399999999999998E-002    -4.5786027746963498E-011
  -4.6299999999999994E-002    -3.5786200391907386E-011
  -4.5199999999999990E-002    -1.4166445794216997E-012
  -4.4099999999999986E-002     4.1866142497237746E-011
  -4.2999999999999997E-002     6.9790381806988933E-011
  -4.1899999999999993E-002     6.3141485096007699E-011
  -4.0799999999999989E-002     2.0151874960405713E-011
  -3.9699999999999985E-002    -4.0871844103618216E-011
  -3.8599999999999995E-002    -9.0522409013082950E-011
  -3.7499999999999992E-002    -1.0298302488553901E-010
  -3.6399999999999988E-002    -6.7699727768211204E-011
  -3.5299999999999984E-002     6.8367915495581855E-012
  -3.4199999999999994E-002     9.5826804824561407E-011
  -3.3099999999999991E-002     1.6377216249807702E-010
  -3.1999999999999987E-002     1.7269284613430358E-010
  -3.0899999999999997E-002     9.6277624761498259E-011
  -2.9799999999999993E-002    -6.0036739468749545E-011
  -2.8699999999999989E-002    -2.4345508942147376E-010
  -2.7599999999999986E-002    -3.6064767838794864E-010
  -2.6499999999999996E-002    -3.1765506891545670E-010
  -2.5399999999999992E-002    -8.0233902854942585E-011
  -2.4299999999999988E-002     2.8168661847516319E-010
  -2.3199999999999985E-002     6.0368493537410473E-010
  -2.2099999999999995E-002     6.9997946328115290E-010
  -2.0999999999999991E-002     4.6565165612300063E-010
  -1.9899999999999987E-002    -5.2526941130004445E-011
  -1.8799999999999983E-002    -6.6280264610085737E-010
  -1.7699999999999994E-002    -1.1113804321283283E-009
  -1.6599999999999990E-002    -1.1939126354221230E-009
  -1.5499999999999986E-002    -8.3620954605123643E-010
  -1.4399999999999996E-002    -1.1303678826291019E-010
  -1.3299999999999992E-002     7.8503703537791125E-010
  -1.2199999999999989E-002     1.6066273866854885E-009
  -1.1099999999999985E-002     2.0970343239667955E-009
  -9.9999999999999950E-003     2.0594022043241011E-009
  -8.8999999999999913E-003     1.4217975685681949E-009
  -7.7999999999999875E-003     2.8911373295414933E-010
  -6.6999999999999837E-003    -1.0622762669498798E-009
  -5.5999999999999939E-003    -2.2748409822526128E-009
  -4.4999999999999901E-003    -3.0596973843444175E-009
  -3.3999999999999864E-003    -3.3249083486452946E-009
  -2.2999999999999826E-003    -3.1923650389842351E-009
  -1.1999999999999927E-003    -2.8695827936076057E-009
  -9.9999999999988987E-005    -2.4336261894575273E-009
   1.0000000000000148E-003    -1.6519464685060825E-009
   2.1000000000000185E-003     3.3601926796578141E-011
   3.2000000000000084E-003     3.2988958231783272E-009
   4.3000000000000121E-003     8.5442932729051790E-009
   5.4000000000000159E-003     1.5444934220454343E-008
   6.5000000000000058E-003     2.2622213435852245E-008
   7.6000000000000234E-003     2.7597247154176330E-008
   8.7000000000000133E-003     2.7092992738175781E-008
   9.8000000000000032E-003     1.7595834123085297E-008
   1.0900000000000021E-002    -4.0664160927406101E-009
   1.2000000000000011E-002    -4.0428460579278180E-008
   1.3100000000000001E-002    -9.3560835523476271E-008
   1.4200000000000018E-002    -1.6565599025852862E-007
   1.5300000000000008E-002    -2.5973625383812760E-007
   1.6400000000000026E-002    -3.8013365610822802E-007
   1.7500000000000016E-002    -5.3256962928571738E-007
   1.8600000000000005E-002    -7.2396511541228392E-007
   1.9700000000000023E-002    -9.6232429314113688E-007
   2.0800000000000013E-002    -1.2570055787364254E-006
   2.1900000000000003E-002    -1.6194474028452532E-006
   2.3000000000000020E-002    -2.0641462015191792E-006
   2.4100000000000010E-002    -2.6095938210346503E-006
   2.5200000000000000E-002    -3.2790144359751139E-006
   2.6300000000000018E-002    -4.1009575397765730E-006
   2.7400000000000008E-002    -5.1099418669764418E-006
   2.8500000000000025E-002    -6.3473039517703000E-006
   2.9600000000000015E-002    -7.8622460932820104E-006
   3.0700000000000005E-002    -9.7129923233296722E-006
   3.1800000000000023E-002    -1.1967977116000839E-005
   3.2900000000000013E-002    -1.4707095033372752E-005
   3.4000000000000002E-002    -1.8023187294602394E-005
   3.5100000000000020E-002    -2.2023972633178346E-005
   3.6200000000000010E-002    -2.6834559321287088E-005
   3.7300000000000028E-002    -3.2600575650576502E-005
   3.8400000000000017E-002    -3.9491755160270259E-005
   3.9500000000000007E-002    -4.7705689212307334E-005
   4.0600000000000025E-002    -5.7471355830784887E-005
   4.1700000000000015E-002    -6.9052082835696638E-005
   4.2800000000000005E-002    -8.2748192653525621E-005
   4.3900000000000022E-002    -9.8899676231667399E-005
   4.5000000000000012E-002    -1.1788973642978817E-004
   4.6100000000000002E-002    -1.4014932094141841E-004
   4.7200000000000020E-002    -1.6616252833046019E-004
   4.8300000000000010E-002    -1.9647204317152500E-004
   4.9400000000000027E-002    -2.3168355983216316E-004
   5.0500000000000017E-002    -2.7246915851719677E-004
   5.1600000000000007E-002    -3.1956980819813907E-004
   5.2700000000000025E-002    -3.7379804416559637E-004
   5.3800000000000014E-002    -4.3604066013358533E-004
   5.4900000000000004E-002    -5.0726166227832437E-004
   5.6000000000000022E-002    -5.8850419009104371E-004
   5.7100000000000012E-002    -6.8089022533968091E-004
   5.8200000000000002E-002    -7.8561843838542700E-004
   5.9300000000000019E-002    -9.0395967708900571E-004
   6.0400000000000009E-002    -1.0372512042522430E-003
   6.1500000000000027E-002    -1.1868898291140795E-003
   6.2600000000000017E-002    -1.3543234672397375E-003
   6.3700000000000007E-002    -1.5410407213494182E-003
   6.4800000000000024E-002    -1.7485583666712046E-003
   6.5900000000000014E-002    -1.9784048199653625E-003
   6.7000000000000004E-002    -2.2320996504276991E-003
   6.8100000000000022E-002    -2.5111306458711624E-003
   6.9200000000000012E-002    -2.8169255238026381E-003
   7.0300000000000029E-002    -3.1508218962699175E-003
   7.1400000000000019E-002    -3.5140377003699541E-003
   7.2500000000000009E-002    -3.9076362736523151E-003
   7.3600000000000027E-002    -4.3324911966919899E-003
   7.4700000000000016E-002    -4.7892485745251179E-003
   7.5800000000000006E-002    -5.2782846614718437E-003
   7.6900000000000024E-002    -5.7996665127575397E-003
   7.8000000000000014E-002    -6.3531082123517990E-003
   7.9100000000000004E-002    -6.9379261694848537E-003
   8.0200000000000021E-002    -7.5530027970671654E-003
   8.1300000000000011E-002    -8.1967450678348541E-003
   8.2400000000000029E-002    -8.8670523837208748E-003
   8.3500000000000019E-002    -9.5612816512584686E-003
   8.4600000000000009E-002    -1.0276214219629765E-002
   8.5700000000000026E-002    -1.1008039116859436E-002
   8.6800000000000016E-002    -1.1752343736588955E-002
   8.7900000000000006E-002    -1.2504113838076591E-002
   8.9000000000000024E-002    -1.3257735408842564E-002
   9.0100000000000013E-002    -1.4007005840539932E-002
   9.1200000000000003E-002    -1.4745161868631840E-002
   9.2300000000000021E-002    -1.5464904718101025E-002
   9.3400000000000011E-002    -1.6158461570739746E-002
   9.4500000000000028E-002    -1.6817646101117134E-002
   9.5600000000000018E-002    -1.7433930188417435E-002
   9.6700000000000008E-002    -1.7998522147536278E-002
   9.7800000000000026E-002    -1.8502470105886459E-002
   9.8900000000000016E-002    -1.8936784937977791E-002
  0.10000000000000001         -1.9292557612061501E-002
  0.10110000000000002         -1.9561076536774635E-002
  0.10220000000000001         -1.9733959808945656E-002
  0.10330000000000003         -1.9803272560238838E-002
  0.10440000000000002         -1.9761679694056511E-002
  0.10550000000000001         -1.9602587446570396E-002
  0.10660000000000003         -1.9320284947752953E-002
  0.10770000000000002         -1.8910061568021774E-002
  0.10880000000000001         -1.8368339166045189E-002
  0.10990000000000003         -1.7692783847451210E-002
  0.11100000000000002         -1.6882406547665596E-002
  0.11210000000000001         -1.5937656164169312E-002
  0.11320000000000002         -1.4860465191304684E-002
  0.11430000000000001         -1.3654287904500961E-002
  0.11540000000000003         -1.2324108742177486E-002
  0.11650000000000002         -1.0876454412937164E-002
  0.11760000000000001         -9.3193706125020981E-003
  0.11870000000000003         -7.6623796485364437E-003
  0.11980000000000002         -5.9163961559534073E-003
  0.12090000000000001         -4.0936241857707500E-003
  0.12200000000000003         -2.2074317093938589E-003
  0.12310000000000001         -2.7220987249165773E-004
  0.12420000000000003          1.6967940609902143E-003
  0.12530000000000002          3.6836685612797737E-003
  0.12640000000000001          5.6720469146966934E-003
  0.12750000000000003          7.6453215442597866E-003
  0.12860000000000002          9.5868473872542381E-003
  0.12970000000000001          1.1480142362415791E-002
  0.13080000000000003          1.3309094123542309E-002
  0.13190000000000002          1.5058179385960102E-002
  0.13300000000000001          1.6712689772248268E-002
  0.13410000000000000          1.8258942291140556E-002
  0.13520000000000004          1.9684458151459694E-002
  0.13630000000000003          2.0978113636374474E-002
  0.13740000000000002          2.2130267694592476E-002
  0.13850000000000001          2.3132877424359322E-002
  0.13960000000000000          2.3979594931006432E-002
  0.14070000000000005          2.4665841832756996E-002
  0.14180000000000004          2.5188827887177467E-002
  0.14290000000000003          2.5547545403242111E-002
  0.14400000000000002          2.5742756202816963E-002
  0.14510000000000001          2.5776945054531097E-002
  0.14620000000000000          2.5654273107647896E-002
  0.14730000000000004          2.5380473583936691E-002
  0.14840000000000003          2.4962740018963814E-002
  0.14950000000000002          2.4409575387835503E-002
  0.15060000000000001          2.3730626329779625E-002
  0.15170000000000000          2.2936534136533737E-002
  0.15280000000000005          2.2038754075765610E-002
  0.15390000000000004          2.1049391478300095E-002
  0.15500000000000003          1.9981015473604202E-002
  0.15610000000000002          1.8846468999981880E-002
  0.15720000000000001          1.7658699303865433E-002
  0.15830000000000000          1.6430595889687538E-002
  0.15940000000000004          1.5174840576946735E-002
  0.16050000000000003          1.3903766870498657E-002
  0.16160000000000002          1.2629208154976368E-002
  0.16270000000000001          1.1362369172275066E-002
  0.16380000000000000          1.0113717988133430E-002
  0.16490000000000005          8.8929096236824989E-003
  0.16600000000000004          7.7087329700589180E-003
  0.16710000000000003          6.5690614283084869E-003
  0.16820000000000002          5.4808133281767368E-003
  0.16930000000000001          4.4499253854155540E-003
  0.17040000000000000          3.4813575912266970E-003
  0.17150000000000004          2.5791160296648741E-003
  0.17260000000000003          1.7462883843109012E-003
  0.17370000000000002          9.8507630173116922E-004
  0.17480000000000001          2.9682647436857224E-004
  0.17590000000000000         -3.1792657682672143E-004
  0.17700000000000005         -8.5939664859324694E-004
  0.17810000000000004         -1.3284650631248951E-003
  0.17920000000000003         -1.7265969654545188E-003
  0.18030000000000002         -2.0557716488838196E-003
  0.18140000000000001         -2.3184230085462332E-003
  0.18250000000000000         -2.5173826143145561E-003
  0.18360000000000004         -2.6558118406683207E-003
  0.18470000000000003         -2.7371286414563656E-003
  0.18580000000000002         -2.7649379335343838E-003
  0.18690000000000001         -2.7429787442088127E-003
  0.18800000000000000         -2.6750857941806316E-003
  0.18910000000000005         -2.5651564355939627E-003
  0.19020000000000004         -2.4171108379960060E-003
  0.19130000000000003         -2.2348479833453894E-003
  0.19240000000000002         -2.0222086459398270E-003
  0.19350000000000001         -1.7829511780291796E-003
  0.19460000000000005         -1.5207401011139154E-003
  0.19570000000000004         -1.2391370255500078E-003
  0.19680000000000003         -9.4158860156312585E-004
  0.19790000000000002         -6.3141371356323361E-004
  0.19900000000000001         -3.1179463258013129E-004
  0.20010000000000000          1.4222554455045611E-005
  0.20120000000000005          3.4371993388049304E-004
  0.20230000000000004          6.7390326876193285E-004
  0.20340000000000003          1.0021049529314041E-003
  0.20450000000000002          1.3257905375212431E-003
  0.20560000000000000          1.6425652429461479E-003
  0.20670000000000005          1.9501723581925035E-003
  0.20780000000000004          2.2464885842055082E-003
  0.20890000000000003          2.5295238010585308E-003
