 -0.12000000000000000          0.0000000000000000
 -0.11889999999999999          0.0000000000000000
 -0.11780000000000000          0.0000000000000000
 -0.11670000000000000          0.0000000000000000
 -0.11559999999999999          0.0000000000000000
 -0.11449999999999999          0.0000000000000000
 -0.11340000000000000          0.0000000000000000
 -0.11230000000000000          0.0000000000000000
 -0.11119999999999999          0.0000000000000000
 -0.11009999999999999          0.0000000000000000
 -0.10900000000000000          0.0000000000000000
 -0.10790000000000000          0.0000000000000000
 -0.10679999999999999         -1.2822086322875008E-035
 -0.10569999999999999          5.9673545980323695E-035
 -0.10460000000000000         -1.7434381198419220E-033
 -0.10349999999999999         -1.2307962172406913E-032
 -0.10239999999999999         -3.0727312127899206E-033
 -0.10130000000000000          8.1183366184879282E-032
 -0.10020000000000000         -3.9807664800766051E-031
  -9.9099999999999994E-002    -3.0989044114795526E-030
  -9.7999999999999990E-002    -1.9838942291031193E-030
  -9.6899999999999986E-002     3.1841408798350785E-029
  -9.5799999999999996E-002     8.9661247263772430E-029
  -9.4699999999999993E-002    -9.9940832138097463E-029
  -9.3599999999999989E-002    -9.7514532353390056E-028
  -9.2499999999999999E-002    -1.3754282920594104E-027
  -9.1399999999999995E-002     3.9174894183033667E-027
  -9.0299999999999991E-002     1.7731597885945960E-026
  -8.9200000000000002E-002     1.4749458685921610E-026
  -8.8099999999999984E-002    -7.0479064269692773E-026
  -8.6999999999999994E-002    -2.3381810113657173E-025
  -8.5899999999999990E-002    -1.4175533411386960E-025
  -8.4799999999999986E-002     8.4054194413520856E-025
  -8.3699999999999997E-002     2.4521287643774650E-024
  -8.2599999999999993E-002     1.4473613625628936E-024
  -8.1499999999999989E-002    -7.4034193635930295E-024
  -8.0399999999999999E-002    -2.1334361373024137E-023
  -7.9299999999999995E-002    -1.5020236646101016E-023
  -7.8199999999999992E-002     4.9916893494632904E-023
  -7.7100000000000002E-002     1.5647954725401997E-022
  -7.5999999999999984E-002     1.3997637516840467E-022
  -7.4899999999999994E-002    -2.5412319762401534E-022
  -7.3799999999999991E-002    -9.7013462840516681E-022
  -7.2699999999999987E-002    -1.1009636628174417E-021
  -7.1599999999999997E-002     8.7225963353066271E-022
  -7.0499999999999993E-002     5.0537064005228220E-021
  -6.9399999999999989E-002     7.2093136313386533E-021
  -6.8300000000000000E-002    -7.2983098641962628E-022
  -6.7199999999999996E-002    -2.1745497476226523E-020
  -6.6099999999999992E-002    -3.9353983596914058E-020
  -6.5000000000000002E-002    -1.5805862464304152E-020
  -6.3899999999999985E-002     7.4050371658483440E-020
  -6.2799999999999995E-002     1.7920021403303185E-019
  -6.1699999999999991E-002     1.4582858157186028E-019
  -6.0599999999999994E-002    -1.7453423036928800E-019
  -5.9499999999999990E-002    -6.7522639665369423E-019
  -5.8399999999999994E-002    -8.1850447020432382E-019
  -5.7299999999999990E-002     9.1603893889288814E-020
  -5.6199999999999986E-002     2.0472037736682079E-018
  -5.5099999999999996E-002     3.4789326456280660E-018
  -5.3999999999999992E-002     1.6879942854148849E-018
  -5.2899999999999989E-002    -4.5838221916432154E-018
  -5.1799999999999985E-002    -1.1754699725521553E-017
  -5.0699999999999995E-002    -1.1069453379915274E-017
  -4.9599999999999991E-002     4.9864358111911506E-018
  -4.8499999999999988E-002     3.1371483166841167E-017
  -4.7399999999999998E-002     4.4549380223484706E-017
  -4.6299999999999994E-002     1.4903956642884466E-017
  -4.5199999999999990E-002    -6.1413237103056389E-017
  -4.4099999999999986E-002    -1.3411387644254597E-016
  -4.2999999999999997E-002    -1.1248106525125497E-016
  -4.1899999999999993E-002     5.9784776557290594E-017
  -4.0799999999999989E-002     3.0877130254277426E-016
  -3.9699999999999985E-002     4.1139908498152617E-016
  -3.8599999999999995E-002     1.3576240108124986E-016
  -3.7499999999999992E-002    -5.0156219526627981E-016
  -3.6399999999999988E-002    -1.0702379873170700E-015
  -3.5299999999999984E-002    -9.0567907330246474E-016
  -3.4199999999999994E-002     3.2819112104535519E-016
  -3.3099999999999991E-002     2.0556668007903033E-015
  -3.1999999999999987E-002     2.8067626788562134E-015
  -3.0899999999999997E-002     1.1956832491680767E-015
  -2.9799999999999993E-002    -2.5913181546561876E-015
  -2.8699999999999989E-002    -6.0582871117226093E-015
  -2.7599999999999986E-002    -5.6066707435867714E-015
  -2.6499999999999996E-002     4.7356765048040678E-016
  -2.5399999999999992E-002     9.3077045501327102E-015
  -2.4299999999999988E-002     1.3894242269847819E-014
  -2.3199999999999985E-002     7.8396007879301920E-015
  -2.2099999999999995E-002    -8.2245137349862274E-015
  -2.0999999999999991E-002    -2.4013805877067147E-014
  -1.9899999999999987E-002    -2.4998527418029423E-014
  -1.8799999999999983E-002    -4.1499574569424554E-015
  -1.7699999999999994E-002     2.8490054824852062E-014
  -1.6599999999999990E-002     4.8328765848201088E-014
  -1.5499999999999986E-002     3.3175400631930280E-014
  -1.4399999999999996E-002    -1.5750801270891790E-014
  -1.3299999999999992E-002    -6.6757600695240699E-014
  -1.2199999999999989E-002    -7.5957821846564522E-014
  -1.1099999999999985E-002    -2.2679435911741874E-014
  -9.9999999999999950E-003     6.4782177560708532E-014
  -8.8999999999999913E-003     1.1963936514657741E-013
  -7.7999999999999875E-003     8.4980565878516046E-014
  -6.6999999999999837E-003    -3.2491865372286793E-014
  -5.5999999999999939E-003    -1.5052267429444682E-013
  -4.4999999999999901E-003    -1.6406105261216469E-013
  -3.3999999999999864E-003    -3.3365583245511393E-014
  -2.2999999999999826E-003     1.6224815815955168E-013
  -1.1999999999999927E-003     2.6303034728579477E-013
  -9.9999999999988987E-005     1.5039057781225662E-013
   1.0000000000000148E-003    -1.3507698106741961E-013
   2.1000000000000185E-003    -3.8562545084247501E-013
   3.2000000000000084E-003    -3.6496156032191085E-013
   4.3000000000000121E-003    -9.5212737433875150E-015
   5.4000000000000159E-003     4.6821081083406324E-013
   6.5000000000000058E-003     6.8966658555921767E-013
   7.6000000000000234E-003     3.9185449047900167E-013
   8.7000000000000133E-003    -3.1905134458866391E-013
   9.8000000000000032E-003    -9.6493689774601599E-013
   1.0900000000000021E-002    -1.0043244447893729E-012
   1.2000000000000011E-002    -2.6351682880058902E-013
   1.3100000000000001E-002     8.4185517714926994E-013
   1.4200000000000018E-002     1.5215832066539647E-012
   1.5300000000000008E-002     1.1726544214829548E-012
   1.6400000000000026E-002    -1.0499787888099132E-013
   1.7500000000000016E-002    -1.4680476886214100E-012
   1.8600000000000005E-002    -1.8822111837873967E-012
   1.9700000000000023E-002    -9.1962895631958474E-013
   2.0800000000000013E-002     8.0869382371173693E-013
   2.1900000000000003E-002     2.0003131095958082E-012
   2.3000000000000020E-002     1.6314094172797944E-012
   2.4100000000000010E-002    -1.5042269730161650E-013
   2.5200000000000000E-002    -1.9683508295509355E-012
   2.6300000000000018E-002    -2.1886134397852697E-012
   2.7400000000000008E-002    -2.9016101587425736E-013
   2.8500000000000025E-002     2.4539866666506427E-012
   2.9600000000000015E-002     3.6993823802899950E-012
   3.0700000000000005E-002     1.8320143579247938E-012
   3.1800000000000023E-002    -2.4487963740105201E-012
   3.2900000000000013E-002    -6.1489507062473248E-012
   3.4000000000000002E-002    -5.9343844942272295E-012
   3.5100000000000020E-002    -8.2244692826971555E-013
   3.6200000000000010E-002     6.4435644320237628E-012
   3.7300000000000028E-002     1.0734003963452921E-011
   3.8400000000000017E-002     8.0670132032722996E-012
   3.9500000000000007E-002    -1.0424955169952010E-012
   4.0600000000000025E-002    -1.1096424994139209E-011
   4.1700000000000015E-002    -1.4891365918145993E-011
   4.2800000000000005E-002    -8.6728462952989638E-012
   4.3900000000000022E-002     4.4897748713301766E-012
   4.5000000000000012E-002     1.5963997485046733E-011
   4.6100000000000002E-002     1.7180654468540446E-011
   4.7200000000000020E-002     5.9946908548269562E-012
   4.8300000000000010E-002    -1.0892132681905586E-011
   4.9400000000000027E-002    -2.1748429446244444E-011
   5.0500000000000017E-002    -1.7785883876797470E-011
   5.1600000000000007E-002     1.0805115482903638E-013
   5.2700000000000025E-002     2.0912450590659937E-011
   5.3800000000000014E-002     3.0217137819699147E-011
   5.4900000000000004E-002     1.9967702838408208E-011
   5.6000000000000022E-002    -5.4401674137727341E-012
   5.7100000000000012E-002    -3.1179760162647341E-011
   5.8200000000000002E-002    -4.1111697379747625E-011
   5.9300000000000019E-002    -2.8046748951071621E-011
   6.0400000000000009E-002     1.6488503271072652E-012
   6.1500000000000027E-002     3.2021874735166378E-011
   6.2600000000000017E-002     4.7177626388839045E-011
   6.3700000000000007E-002     4.0146917040795316E-011
   6.4800000000000024E-002     1.5630833433144531E-011
   6.5900000000000014E-002    -1.4076631353610036E-011
   6.7000000000000004E-002    -3.6225356048191770E-011
   6.8100000000000022E-002    -4.3031782998026458E-011
   6.9200000000000012E-002    -3.3270289301334799E-011
   7.0300000000000029E-002    -1.1364452781603696E-011
   7.1400000000000019E-002     1.3755041376739552E-011
   7.2500000000000009E-002     2.9949626112468763E-011
   7.3600000000000027E-002     2.5727087127336290E-011
   7.4700000000000016E-002    -1.9059580302904777E-012
   7.5800000000000006E-002    -3.9159675502276059E-011
   7.6900000000000024E-002    -5.5216532734991830E-011
   7.8000000000000014E-002    -1.7127190291010841E-011
   7.9100000000000004E-002     8.3128094685580578E-011
   8.0200000000000021E-002     2.0579825343869373E-010
   8.1300000000000011E-002     2.6673543929156551E-010
   8.2400000000000029E-002     1.7799095530790510E-010
   8.3500000000000019E-002    -8.8607371440119209E-011
   8.4600000000000009E-002    -4.5324635711274652E-010
   8.5700000000000026E-002    -7.3673966927145784E-010
   8.6800000000000016E-002    -7.4003125849486651E-010
   8.7900000000000006E-002    -3.6231029287847605E-010
   8.9000000000000024E-002     3.1063834837752324E-010
   9.0100000000000013E-002     1.0130336569602605E-009
   9.1200000000000003E-002     1.4164582839981676E-009
   9.2300000000000021E-002     1.3033747414681329E-009
   9.3400000000000011E-002     6.9602001939728098E-010
   9.4500000000000028E-002    -1.4569323525392974E-010
   9.5600000000000018E-002    -8.6888674033502866E-010
   9.6700000000000008E-002    -1.2340856114789744E-009
   9.7800000000000026E-002    -1.2530001480826058E-009
   9.8900000000000016E-002    -1.1606361427496381E-009
  0.10000000000000001         -1.2272189930939703E-009
  0.10110000000000002         -1.5248388107735877E-009
  0.10220000000000001         -1.8058317063918139E-009
  0.10330000000000003         -1.5893690807899929E-009
  0.10440000000000002         -4.2164921554288526E-010
  0.10550000000000001          1.8426016268335843E-009
  0.10660000000000003          4.9115356226536733E-009
  0.10770000000000002          8.1578708233109865E-009
  0.10880000000000001          1.0870447653132942E-008
  0.10990000000000003          1.2462781917577104E-008
  0.11100000000000002          1.2463221565894855E-008
  0.11210000000000001          1.0260288618724189E-008
  0.11320000000000002          4.7660591029341504E-009
  0.11430000000000001         -5.7411653209271662E-009
  0.11540000000000003         -2.3409793215023456E-008
  0.11650000000000002         -5.0283347263757605E-008
  0.11760000000000001         -8.7727045183783048E-008
  0.11870000000000003         -1.3619583683066594E-007
  0.11980000000000002         -1.9559915642730630E-007
  0.12090000000000001         -2.6621091819833964E-007
  0.12200000000000003         -3.4975846574525349E-007
  0.12310000000000001         -4.5019135086477036E-007
  0.12420000000000003         -5.7377519624424167E-007
  0.12530000000000002         -7.2851628374337452E-007
  0.12640000000000001         -9.2329821654857369E-007
  0.12750000000000003         -1.1672910886773025E-006
  0.12860000000000002         -1.4700627843922121E-006
  0.12970000000000001         -1.8424558447804884E-006
  0.13080000000000003         -2.2978838387643918E-006
  0.13190000000000002         -2.8535039291455178E-006
  0.13300000000000001         -3.5308396491018357E-006
  0.13410000000000000         -4.3557956814765930E-006
  0.13520000000000004         -5.3584290071739815E-006
  0.13630000000000003         -6.5730419009923935E-006
  0.13740000000000002         -8.0390391303808428E-006
  0.13850000000000001         -9.8025720944860950E-006
  0.13960000000000000         -1.1918548807443585E-005
  0.14070000000000005         -1.4452347386395559E-005
  0.14180000000000004         -1.7480730093666352E-005
  0.14290000000000003         -2.1091915186843835E-005
  0.14400000000000002         -2.5385341359651648E-005
  0.14510000000000001         -3.0471937861875631E-005
  0.14620000000000000         -3.6475626984611154E-005
  0.14730000000000004         -4.3536136217880994E-005
  0.14840000000000003         -5.1812625315506011E-005
  0.14950000000000002         -6.1487080529332161E-005
  0.15060000000000001         -7.2766568337101489E-005
  0.15170000000000000         -8.5884006693959236E-005
  0.15280000000000005         -1.0109788854606450E-004
  0.15390000000000004         -1.1869180889334530E-004
  0.15500000000000003         -1.3897470489609987E-004
  0.15610000000000002         -1.6228230379056185E-004
  0.15720000000000001         -1.8897916015703231E-004
  0.15830000000000000         -2.1946051856502891E-004
  0.15940000000000004         -2.5415266281925142E-004
  0.16050000000000003         -2.9351207194849849E-004
  0.16160000000000002         -3.3802315010689199E-004
  0.16270000000000001         -3.8819602923467755E-004
  0.16380000000000000         -4.4456432806327939E-004
  0.16490000000000005         -5.0768337678164244E-004
  0.16600000000000004         -5.7812727754935622E-004
  0.16710000000000003         -6.5648416057229042E-004
  0.16820000000000002         -7.4334879172965884E-004
  0.16930000000000001         -8.3931256085634232E-004
  0.17040000000000000         -9.4495248049497604E-004
  0.17150000000000004         -1.0608205338940024E-003
  0.17260000000000003         -1.1874334886670113E-003
  0.17370000000000002         -1.3252639910206199E-003
  0.17480000000000001         -1.4747309032827616E-003
  0.17590000000000000         -1.6361868474632502E-003
  0.17700000000000005         -1.8099027220159769E-003
  0.17810000000000004         -1.9960496574640274E-003
  0.17920000000000003         -2.1946791093796492E-003
  0.18030000000000002         -2.4057058617472649E-003
  0.18140000000000001         -2.6288907974958420E-003
  0.18250000000000000         -2.8638290241360664E-003
  0.18360000000000004         -3.1099361367523670E-003
  0.18470000000000003         -3.3664386719465256E-003
  0.18580000000000002         -3.6323601379990578E-003
  0.18690000000000001         -3.9065070450305939E-003
  0.18800000000000000         -4.1874591261148453E-003
  0.18910000000000005         -4.4735628180205822E-003
  0.19020000000000004         -4.7629280015826225E-003
  0.19130000000000003         -5.0534331239759922E-003
  0.19240000000000002         -5.3427345119416714E-003
  0.19350000000000001         -5.6282710283994675E-003
  0.19460000000000005         -5.9072817675769329E-003
  0.19570000000000004         -6.1768209561705589E-003
  0.19680000000000003         -6.4337779767811298E-003
  0.19790000000000002         -6.6749076358973980E-003
  0.19900000000000001         -6.8968641571700573E-003
  0.20010000000000000         -7.0962361060082912E-003
  0.20120000000000005         -7.2695873677730560E-003
  0.20230000000000004         -7.4135060422122478E-003
  0.20340000000000003         -7.5246514752507210E-003
  0.20450000000000002         -7.5997998937964439E-003
  0.20560000000000000         -7.6358960941433907E-003
  0.20670000000000005         -7.6301065273582935E-003
  0.20780000000000004         -7.5798737816512585E-003
  0.20890000000000003         -7.4829696677625179E-003
