 -0.12000000000000000          0.0000000000000000
 -0.11889999999999999          0.0000000000000000
 -0.11780000000000000          0.0000000000000000
 -0.11670000000000000          0.0000000000000000
 -0.11559999999999999          0.0000000000000000
 -0.11449999999999999          0.0000000000000000
 -0.11340000000000000          0.0000000000000000
 -0.11230000000000000          0.0000000000000000
 -0.11119999999999999          0.0000000000000000
 -0.11009999999999999          0.0000000000000000
 -0.10900000000000000         -2.9863963237216728E-029
 -0.10790000000000000          9.2556777610864806E-030
 -0.10679999999999999         -4.4720873310299093E-028
 -0.10569999999999999         -8.7702473954561073E-027
 -0.10460000000000000         -3.0322364897377515E-026
 -0.10349999999999999          2.0764483028888981E-026
 -0.10239999999999999          3.2710289998312272E-025
 -0.10130000000000000          3.2367300672293162E-025
 -0.10020000000000000         -2.6251082115220654E-024
  -9.9099999999999994E-002    -9.0343687747539357E-024
  -9.7999999999999990E-002    -1.1476238008628549E-024
  -9.6899999999999986E-002     5.9742436903642865E-023
  -9.5799999999999996E-002     1.4648451550180146E-022
  -9.4699999999999993E-002    -6.8070365749414185E-024
  -9.3599999999999989E-002    -7.9868715860483647E-022
  -9.2499999999999999E-002    -1.7712806601406899E-021
  -9.1399999999999995E-002    -2.3434727514546600E-022
  -9.0299999999999991E-002     7.2437175593548969E-021
  -8.9200000000000002E-002     1.6736057759275576E-020
  -8.8099999999999984E-002     7.5195629065957249E-021
  -8.6999999999999994E-002    -4.6644087894057280E-020
  -8.5899999999999990E-002    -1.2482266595819999E-019
  -8.4799999999999986E-002    -9.9483461308104102E-020
  -8.3699999999999997E-002     2.0613848805416346E-019
  -8.2599999999999993E-002     7.3412444800203717E-019
  -8.1499999999999989E-002     8.4852368181448575E-019
  -8.0399999999999999E-002    -4.7448780826176230E-019
  -7.9299999999999995E-002    -3.3620944180807166E-018
  -7.8199999999999992E-002    -5.2721042900975638E-018
  -7.7100000000000002E-002    -1.1998808996092077E-018
  -7.5999999999999984E-002     1.1469736004497035E-017
  -7.4899999999999994E-002     2.4979196829153880E-017
  -7.3799999999999991E-002     1.8967168727779669E-017
  -7.2699999999999987E-002    -2.4639771536598870E-017
  -7.1599999999999997E-002    -9.0803030441514467E-017
  -7.0499999999999993E-002    -1.1186048126849319E-016
  -6.9399999999999989E-002    -1.8896974180998419E-018
  -6.8300000000000000E-002     2.4284328718662384E-016
  -6.7199999999999996E-002     4.4615888191711930E-016
  -6.6099999999999992E-002     2.9468742103098099E-016
  -6.5000000000000002E-002    -3.9249622127456637E-016
  -6.3899999999999985E-002    -1.2984121461649071E-015
  -6.2799999999999995E-002    -1.5264711085319176E-015
  -6.1699999999999991E-002    -1.6504871081635510E-016
  -6.0599999999999994E-002     2.6291006945431761E-015
  -5.9499999999999990E-002     4.8981166717802348E-015
  -5.8399999999999994E-002     3.6547443030114386E-015
  -5.7299999999999990E-002    -2.5573841089650490E-015
  -5.6199999999999986E-002    -1.0881826344145366E-014
  -5.5099999999999996E-002    -1.4094729039232281E-014
  -5.3999999999999992E-002    -5.2376184884680727E-015
  -5.2899999999999989E-002     1.4920354922810623E-014
  -5.1799999999999985E-002     3.3678019818435614E-014
  -5.0699999999999995E-002     3.1837464657897066E-014
  -4.9599999999999991E-002    -1.1039786977379978E-015
  -4.8499999999999988E-002    -5.1803813382001948E-014
  -4.7399999999999998E-002    -8.3006897796250589E-014
  -4.6299999999999994E-002    -5.6384926702722840E-014
  -4.5199999999999990E-002     3.2447358873106263E-014
  -4.4099999999999986E-002     1.3424412406357056E-013
  -4.2999999999999997E-002     1.6696085974269442E-013
  -4.1899999999999993E-002     7.4912176613838033E-014
  -4.0799999999999989E-002    -1.1239995750551152E-013
  -3.9699999999999985E-002    -2.7486823581113207E-013
  -3.8599999999999995E-002    -2.7345083120598745E-013
  -3.7499999999999992E-002    -6.1271469939828266E-014
  -3.6399999999999988E-002     2.5078875608153250E-013
  -3.5299999999999984E-002     4.4422175356564897E-013
  -3.4199999999999994E-002     3.4679721659484908E-013
  -3.3099999999999991E-002    -1.6178586790573102E-014
  -3.1999999999999987E-002    -4.0428730784143607E-013
  -3.0899999999999997E-002    -5.2314413651749492E-013
  -2.9799999999999993E-002    -2.6211148594461331E-013
  -2.8699999999999989E-002     1.8417860010548626E-013
  -2.7599999999999986E-002     4.4177647109087947E-013
  -2.6499999999999996E-002     2.6821736021434561E-013
  -2.5399999999999992E-002    -1.9609646209357151E-013
  -2.4299999999999988E-002    -4.8184058739492164E-013
  -2.3199999999999985E-002    -1.7371550703991490E-013
  -2.2099999999999995E-002     6.5157140750546350E-013
  -2.0999999999999991E-002     1.3281270614534657E-012
  -1.9899999999999987E-002     1.0342883233899203E-012
  -1.8799999999999983E-002    -4.8275668402056326E-013
  -1.7699999999999994E-002    -2.4565289039046867E-012
  -1.6599999999999990E-002    -3.4028585071260720E-012
  -1.5499999999999986E-002    -2.1291596957739856E-012
  -1.4399999999999996E-002     1.2027639084352670E-012
  -1.3299999999999992E-002     4.8165828964163993E-012
  -1.2199999999999989E-002     6.2599977285193731E-012
  -1.1099999999999985E-002     4.0612634782943857E-012
  -9.9999999999999950E-003    -1.0350651542465061E-012
  -8.8999999999999913E-003    -6.2600011979663250E-012
  -7.7999999999999875E-003    -8.4970554897756401E-012
  -6.6999999999999837E-003    -6.3651289100574715E-012
  -5.5999999999999939E-003    -1.1866134160334885E-012
  -4.4999999999999901E-003     3.9718081254469517E-012
  -3.3999999999999864E-003     6.5518090085203706E-012
  -2.2999999999999826E-003     6.3101004456334042E-012
  -1.1999999999999927E-003     5.1395710604085210E-012
  -9.9999999999988987E-005     4.9022708635548806E-012
   1.0000000000000148E-003     5.0581483446165976E-012
   2.1000000000000185E-003     2.4133876320997505E-012
   3.2000000000000084E-003    -6.1173002427472589E-012
   4.3000000000000121E-003    -1.9428573333479804E-011
   5.4000000000000159E-003    -3.0290495806051254E-011
   6.5000000000000058E-003    -2.8262022930269914E-011
   7.6000000000000234E-003    -6.8452526633122623E-012
   8.7000000000000133E-003     2.9470328954950276E-011
   9.8000000000000032E-003     6.3880851997044630E-011
   1.0900000000000021E-002     7.4457842669239938E-011
   1.2000000000000011E-002     4.7054131424584256E-011
   1.3100000000000001E-002    -1.3616675495486952E-011
   1.4200000000000018E-002    -8.2515043409170374E-011
   1.5300000000000008E-002    -1.2506719271332400E-010
   1.6400000000000026E-002    -1.1520322890090640E-010
   1.7500000000000016E-002    -5.0467831302913879E-011
   1.8600000000000005E-002     4.4924793052292245E-011
   1.9700000000000023E-002     1.3127333942097863E-010
   2.0800000000000013E-002     1.7250383066436115E-010
   2.1900000000000003E-002     1.5240828044049692E-010
   2.3000000000000020E-002     7.9548569120735380E-011
   2.4100000000000010E-002    -2.0224719468608932E-011
   2.5200000000000000E-002    -1.1735333538265280E-010
   2.6300000000000018E-002    -1.8949651570121517E-010
   2.7400000000000008E-002    -2.2455005910249071E-010
   2.8500000000000025E-002    -2.1687712736806475E-010
   2.9600000000000015E-002    -1.6232168387197987E-010
   3.0700000000000005E-002    -5.7294398392304657E-011
   3.1800000000000023E-002     9.6789132264518685E-011
   3.2900000000000013E-002     2.8657906603335448E-010
   3.4000000000000002E-002     4.8150383680223285E-010
   3.5100000000000020E-002     6.3265470640061494E-010
   3.6200000000000010E-002     6.7647815127358513E-010
   3.7300000000000028E-002     5.4405885352437622E-010
   3.8400000000000017E-002     1.7837245569474192E-010
   3.9500000000000007E-002    -4.3845677089038304E-010
   4.0600000000000025E-002    -1.2511458535868769E-009
   4.1700000000000015E-002    -2.1028006003120936E-009
   4.2800000000000005E-002    -2.7311266581619975E-009
   4.3900000000000022E-002    -2.8057982603968412E-009
   4.5000000000000012E-002    -2.0091768249130837E-009
   4.6100000000000002E-002    -1.4259843306163589E-010
   4.7200000000000020E-002     2.7735587160293562E-009
   4.8300000000000010E-002     6.4363603335948483E-009
   4.9400000000000027E-002     1.0246863801910422E-008
   5.0500000000000017E-002     1.3338716797761663E-008
   5.1600000000000007E-002     1.4628675160111015E-008
   5.2700000000000025E-002     1.2872870769342626E-008
   5.3800000000000014E-002     6.7262178049531940E-009
   5.4900000000000004E-002    -5.1898307873443628E-009
   5.6000000000000022E-002    -2.4215474070388154E-008
   5.7100000000000012E-002    -5.1604288842099777E-008
   5.8200000000000002E-002    -8.8544481968710897E-008
   5.9300000000000019E-002    -1.3628813633204118E-007
   6.0400000000000009E-002    -1.9638783044229058E-007
   6.1500000000000027E-002    -2.7098897703581315E-007
   6.2600000000000017E-002    -3.6309580764282146E-007
   6.3700000000000007E-002    -4.7674726033619663E-007
   6.4800000000000024E-002    -6.1710022691841004E-007
   6.5900000000000014E-002    -7.9048857060115552E-007
   6.7000000000000004E-002    -1.0045580438600155E-006
   6.8100000000000022E-002    -1.2685463843808975E-006
   6.9200000000000012E-002    -1.5936968793539563E-006
   7.0300000000000029E-002    -1.9937224351451732E-006
   7.1400000000000019E-002    -2.4852190563251497E-006
   7.2500000000000009E-002    -3.0879964469932020E-006
   7.3600000000000027E-002    -3.8253901948337443E-006
   7.4700000000000016E-002    -4.7247021939256229E-006
   7.5800000000000006E-002    -5.8179057305096649E-006
   7.6900000000000024E-002    -7.1426406975660939E-006
   7.8000000000000014E-002    -8.7434036686317995E-006
   7.9100000000000004E-002    -1.0672739335859660E-005
   8.0200000000000021E-002    -1.2992285519430880E-005
   8.1300000000000011E-002    -1.5773655832163058E-005
   8.2400000000000029E-002    -1.9099299606750719E-005
   8.3500000000000019E-002    -2.3063590560923330E-005
   8.4600000000000009E-002    -2.7774323825724423E-005
   8.5700000000000026E-002    -3.3354670449625701E-005
   8.6800000000000016E-002    -3.9945436583366245E-005
   8.7900000000000006E-002    -4.7707380872452632E-005
   8.9000000000000024E-002    -5.6823311751941219E-005
   9.0100000000000013E-002    -6.7499873694032431E-005
   9.1200000000000003E-002    -7.9969038779381663E-005
   9.2300000000000021E-002    -9.4489536422770470E-005
   9.3400000000000011E-002    -1.1134825035696849E-004
   9.4500000000000028E-002    -1.3086185208521783E-004
   9.5600000000000018E-002    -1.5337852528318763E-004
   9.6700000000000008E-002    -1.7927968292497098E-004
   9.7800000000000026E-002    -2.0898162620142102E-004
   9.8900000000000016E-002    -2.4293671594932675E-004
  0.10000000000000001         -2.8163404203951359E-004
  0.10110000000000002         -3.2559933606535196E-004
  0.10220000000000001         -3.7539380718953907E-004
  0.10330000000000003         -4.3161213397979736E-004
  0.10440000000000002         -4.9487949581816792E-004
  0.10550000000000001         -5.6584749836474657E-004
  0.10660000000000003         -6.4518931321799755E-004
  0.10770000000000002         -7.3359464295208454E-004
  0.10880000000000001         -8.3176314365118742E-004
  0.10990000000000003         -9.4039726536720991E-004
  0.11100000000000002         -1.0601937538012862E-003
  0.11210000000000001         -1.1918334057554603E-003
  0.11320000000000002         -1.3359690783545375E-003
  0.11430000000000001         -1.4932113699615002E-003
  0.11540000000000003         -1.6641136026009917E-003
  0.11650000000000002         -1.8491555238142610E-003
  0.11760000000000001         -2.0487254951149225E-003
  0.11870000000000003         -2.2631031461060047E-003
  0.11980000000000002         -2.4924410972744226E-003
  0.12090000000000001         -2.7367472648620605E-003
  0.12200000000000003         -2.9958663508296013E-003
  0.12310000000000001         -3.2694609835743904E-003
  0.12420000000000003         -3.5569937899708748E-003
  0.12530000000000002         -3.8577092345803976E-003
  0.12640000000000001         -4.1706170886754990E-003
  0.12750000000000003         -4.4944779947400093E-003
  0.12860000000000002         -4.8277927562594414E-003
  0.12970000000000001         -5.1687927916646004E-003
  0.13080000000000003         -5.5154371075332165E-003
  0.13190000000000002         -5.8654122985899448E-003
  0.13300000000000001         -6.2161348760128021E-003
  0.13410000000000000         -6.5647591836750507E-003
  0.13520000000000004         -6.9081895053386688E-003
  0.13630000000000003         -7.2430982254445553E-003
  0.13740000000000002         -7.5659481808543205E-003
  0.13850000000000001         -7.8730210661888123E-003
  0.13960000000000000         -8.1604523584246635E-003
  0.14070000000000005         -8.4242727607488632E-003
  0.14180000000000004         -8.6604543030261993E-003
  0.14290000000000003         -8.8649550452828407E-003
  0.14400000000000002         -9.0337786823511124E-003
  0.14510000000000001         -9.1630257666110992E-003
  0.14620000000000000         -9.2489561066031456E-003
  0.14730000000000004         -9.2880493029952049E-003
  0.14840000000000003         -9.2770652845501900E-003
  0.14950000000000002         -9.2131085693836212E-003
  0.15060000000000001         -9.0936832129955292E-003
  0.15170000000000000         -8.9167533442378044E-003
  0.15280000000000005         -8.6807962507009506E-003
  0.15390000000000004         -8.3848480135202408E-003
  0.15500000000000003         -8.0285482108592987E-003
  0.15610000000000002         -7.6121757738292217E-003
  0.15720000000000001         -7.1366699412465096E-003
  0.15830000000000000         -6.6036512143909931E-003
  0.15940000000000004         -6.0154246166348457E-003
  0.16050000000000003         -5.3749782964587212E-003
  0.16160000000000002         -4.6859658323228359E-003
  0.16270000000000001         -3.9526820182800293E-003
  0.16380000000000000         -3.1800253782421350E-003
  0.16490000000000005         -2.3734502028673887E-003
  0.16600000000000004         -1.5389095060527325E-003
  0.16710000000000003         -6.8278796970844269E-004
  0.16820000000000002          1.8817145610228181E-004
  0.16930000000000001          1.0669496841728687E-003
  0.17040000000000000          1.9463385688140988E-003
  0.17150000000000004          2.8190335724502802E-003
  0.17260000000000003          3.6777283530682325E-003
  0.17370000000000002          4.5152120292186737E-003
  0.17480000000000001          5.3244652226567268E-003
  0.17590000000000000          6.0987533070147038E-003
  0.17700000000000005          6.8317148834466934E-003
  0.17810000000000004          7.5174439698457718E-003
  0.17920000000000003          8.1505663692951202E-003
  0.18030000000000002          8.7263081222772598E-003
  0.18140000000000001          9.2405490577220917E-003
  0.18250000000000000          9.6898740157485008E-003
  0.18360000000000004          1.0071607306599617E-002
  0.18470000000000003          1.0383836925029755E-002
  0.18580000000000002          1.0625429451465607E-002
  0.18690000000000001          1.0796028189361095E-002
  0.18800000000000000          1.0896043851971626E-002
  0.18910000000000005          1.0926629416644573E-002
  0.19020000000000004          1.0889647528529167E-002
  0.19130000000000003          1.0787622071802616E-002
  0.19240000000000002          1.0623690672218800E-002
  0.19350000000000001          1.0401535779237747E-002
  0.19460000000000005          1.0125326924026012E-002
  0.19570000000000004          9.7996434196829796E-003
  0.19680000000000003          9.4294035807251930E-003
  0.19790000000000002          9.0197874233126640E-003
  0.19900000000000001          8.5761584341526031E-003
  0.20010000000000000          8.1039881333708763E-003
  0.20120000000000005          7.6087829656898975E-003
  0.20230000000000004          7.0960111916065216E-003
  0.20340000000000003          6.5710381604731083E-003
  0.20450000000000002          6.0390653088688850E-003
  0.20560000000000000          5.5050775408744812E-003
  0.20670000000000005          4.9737934023141861E-003
  0.20780000000000004          4.4496250338852406E-003
  0.20890000000000003          3.9366488344967365E-003
