 -0.12000000000000000          0.0000000000000000
 -0.11889999999999999          0.0000000000000000
 -0.11780000000000000          0.0000000000000000
 -0.11670000000000000          0.0000000000000000
 -0.11559999999999999          0.0000000000000000
 -0.11449999999999999          0.0000000000000000
 -0.11340000000000000          0.0000000000000000
 -0.11230000000000000          0.0000000000000000
 -0.11119999999999999          4.2404345899076671E-026
 -0.11009999999999999         -9.8943464520048499E-026
 -0.10900000000000000         -6.7846953438522674E-025
 -0.10790000000000000          1.6961732196654846E-025
 -0.10679999999999999          1.1873216481962919E-024
 -0.10569999999999999          6.3889213625125569E-024
 -0.10460000000000000          1.5435180637690889E-023
 -0.10349999999999999         -2.4368364590714841E-023
 -0.10239999999999999         -1.5463450888179113E-022
 -0.10130000000000000         -1.8358253603800690E-022
 -0.10020000000000000         -7.0464716368941000E-022
  -9.9099999999999994E-002     1.0589779863302318E-022
  -9.7999999999999990E-002     5.6906633410667130E-022
  -9.6899999999999986E-002     5.6906633410667130E-022
  -9.5799999999999996E-002     3.3480775469485600E-021
  -9.4699999999999993E-002     1.4954036070023593E-021
  -9.3599999999999989E-002    -4.2968775798467860E-020
  -9.2499999999999999E-002    -2.4442036802902636E-020
  -9.1399999999999995E-002     5.2007494674108434E-021
  -9.0299999999999991E-002    -5.4084823073216116E-020
  -8.9200000000000002E-002     1.5341468081897824E-019
  -8.8099999999999984E-002     3.9055697098148608E-019
  -8.6999999999999994E-002     2.7198582590023216E-019
  -8.5899999999999990E-002    -4.3944104458729135E-019
  -8.4799999999999986E-002    -6.7658338644858747E-019
  -8.3699999999999997E-002    -7.9515455737923553E-019
  -8.2599999999999993E-002    -2.2180082983542826E-018
  -8.1499999999999989E-002     1.1019838673184037E-018
  -8.0399999999999999E-002     5.3705454004362745E-018
  -7.9299999999999995E-002     5.3705454004362745E-018
  -7.8199999999999992E-002     5.3705454004362745E-018
  -7.7100000000000002E-002    -6.0122845273641017E-018
  -7.5999999999999984E-002    -1.8343684649790275E-017
  -7.4899999999999994E-002    -1.5497976547454721E-017
  -7.3799999999999991E-002    -3.2086997705421986E-019
  -7.2699999999999987E-002    -3.2086997705421986E-019
  -7.1599999999999997E-002    -7.9094232622544706E-018
  -7.0499999999999993E-002     7.2676833081460309E-018
  -6.9399999999999989E-002     3.4734074927265181E-018
  -6.8300000000000000E-002     3.4734074927265181E-018
  -6.7199999999999996E-002    -1.9292254017235459E-017
  -6.6099999999999992E-002    -6.4823577037159414E-017
  -6.5000000000000002E-002    -4.2057918835919887E-017
  -6.3899999999999985E-002     4.9004720586483122E-017
  -6.2799999999999995E-002     7.9358933727284125E-017
  -6.1699999999999991E-002     1.8650507445682119E-017
  -6.0599999999999994E-002    -1.3312055825832290E-016
  -5.9499999999999990E-002    -8.0091327382572457E-016
  -5.8399999999999994E-002    -1.3472891235950324E-015
  -5.7299999999999990E-002    -5.5807962163887575E-016
  -5.6199999999999986E-002     1.2935273071580915E-015
  -5.5099999999999996E-002     3.5093849789331281E-015
  -5.3999999999999992E-002     4.6628452238673540E-015
  -5.2899999999999989E-002     1.2631732462185232E-015
  -5.1799999999999985E-002    -7.4788401383321657E-015
  -5.0699999999999995E-002    -1.5249518702377222E-014
  -4.9599999999999991E-002    -1.1607012754904188E-014
  -4.8499999999999988E-002     5.1485123164828148E-015
  -4.7399999999999998E-002     2.4089542481012943E-014
  -4.6299999999999994E-002     3.1374554375959013E-014
  -4.5199999999999990E-002     1.5833198941934794E-014
  -4.4099999999999986E-002    -2.0106188781498883E-014
  -4.2999999999999997E-002    -5.3617239771305836E-014
  -4.1899999999999993E-002    -4.8153477461964495E-014
  -4.0799999999999989E-002     5.3913545448782546E-015
  -3.9699999999999985E-002     6.6585449719040735E-014
  -3.8599999999999995E-002     8.0184130006339532E-014
  -3.7499999999999992E-002     2.4332373274463595E-014
  -3.6399999999999988E-002    -6.5516101116318282E-014
  -3.5299999999999984E-002    -1.1796818947043541E-013
  -3.4199999999999994E-002    -7.0372784747967099E-014
  -3.3099999999999991E-002     6.5614085887656659E-014
  -3.1999999999999987E-002     1.8800226945971804E-013
  -3.0899999999999997E-002     1.7731757902261780E-013
  -2.9799999999999993E-002    -2.1806056851696176E-014
  -2.8699999999999989E-002    -2.8212379806456800E-013
  -2.7599999999999986E-002    -3.7925728096216416E-013
  -2.6499999999999996E-002    -2.1995836955220754E-013
  -2.5399999999999992E-002     1.5594819814841732E-013
  -2.4299999999999988E-002     5.5128145971805598E-013
  -2.3199999999999985E-002     7.2223639829144259E-013
  -2.2099999999999995E-002     5.2796948670635890E-013
  -2.0999999999999991E-002    -1.0728345837575370E-013
  -1.9899999999999987E-002    -1.0494782126668767E-012
  -1.8799999999999983E-002    -1.8382021165636031E-012
  -1.7699999999999994E-002    -1.7682658722678601E-012
  -1.6599999999999990E-002    -2.8795162868716639E-013
  -1.5499999999999986E-002     2.3424229136231878E-012
  -1.4399999999999996E-002     4.5648367898165620E-012
  -1.3299999999999992E-002     4.2928629401250973E-012
  -1.2199999999999989E-002     3.7644084897869856E-013
  -1.1099999999999985E-002    -5.6302939741015301E-012
  -9.9999999999999950E-003    -9.3291372890713653E-012
  -8.8999999999999913E-003    -6.6016298330695555E-012
  -7.7999999999999875E-003     2.6143950285911766E-012
  -6.6999999999999837E-003     1.2405449931196522E-011
  -5.5999999999999939E-003     1.3866336898149534E-011
  -4.4999999999999901E-003     2.3035670593252178E-012
  -3.3999999999999864E-003    -1.5817656212613329E-011
  -2.2999999999999826E-003    -2.3976869101272058E-011
  -1.1999999999999927E-003    -8.8706698236906689E-012
  -9.9999999999988987E-005     2.3214461603027203E-011
   1.0000000000000148E-003     4.6005862314180135E-011
   2.1000000000000185E-003     3.1816604906254042E-011
   3.2000000000000084E-003    -2.0153691215885061E-011
   4.3000000000000121E-003    -7.4548436868049350E-011
   5.4000000000000159E-003    -8.1479878399903782E-011
   6.5000000000000058E-003    -2.7473662234100971E-011
   7.6000000000000234E-003     5.8065968699949622E-011
   8.7000000000000133E-003     1.2035572538593442E-010
   9.8000000000000032E-003     1.2375928060137653E-010
   1.0900000000000021E-002     6.2060093175553277E-011
   1.2000000000000011E-002    -5.1578311066613480E-011
   1.3100000000000001E-002    -1.6820066173206527E-010
   1.4200000000000018E-002    -2.2464687055023802E-010
   1.5300000000000008E-002    -1.8660162304229289E-010
   1.6400000000000026E-002    -4.3123810078427027E-011
   1.7500000000000016E-002     2.1896563728862617E-010
   1.8600000000000005E-002     4.7061127217418175E-010
   1.9700000000000023E-002     4.6364875827542562E-010
   2.0800000000000013E-002     1.6823864523729526E-010
   2.1900000000000003E-002    -2.1867897770366795E-010
   2.3000000000000020E-002    -5.5486959471551245E-010
   2.4100000000000010E-002    -7.2395955896809028E-010
   2.5200000000000000E-002    -3.9572609078497578E-010
   2.6300000000000018E-002     1.8116907973819707E-010
   2.7400000000000008E-002     4.2784151221830768E-010
   2.8500000000000025E-002     7.7725853531163125E-011
   2.9600000000000015E-002    -5.9465543600367710E-010
   3.0700000000000005E-002    -5.8669830105273491E-010
   3.1800000000000023E-002     1.0445225795407964E-009
   3.2900000000000013E-002     2.9940303569730986E-009
   3.4000000000000002E-002     2.9383300237384447E-009
   3.5100000000000020E-002    -1.3313949942528325E-010
   3.6200000000000010E-002    -4.6528150221547548E-009
   3.7300000000000028E-002    -6.7853376251036934E-009
   3.8400000000000017E-002    -4.7483008636106661E-009
   3.9500000000000007E-002     9.4903618297337289E-010
   4.0600000000000025E-002     7.5694055468034094E-009
   4.1700000000000015E-002     1.0656789228846719E-008
   4.2800000000000005E-002     6.2644289755553473E-009
   4.3900000000000022E-002    -1.9473755941135096E-009
   4.5000000000000012E-002    -1.0413810258569356E-008
   4.6100000000000002E-002    -1.3533023590639459E-008
   4.7200000000000020E-002    -6.5307101948519630E-009
   4.8300000000000010E-002     2.8905846605198349E-009
   4.9400000000000027E-002     9.0016953890881268E-009
   5.0500000000000017E-002     1.0020213991879245E-008
   5.1600000000000007E-002     1.1802621102674493E-008
   5.2700000000000025E-002     3.6544740567023837E-009
   5.3800000000000014E-002    -1.5188117430398052E-008
   5.4900000000000004E-002    -1.8498303333558397E-008
   5.6000000000000022E-002    -7.2946013673913512E-009
   5.7100000000000012E-002     3.9091005987756944E-009
   5.8200000000000002E-002     6.4553966616642811E-009
   5.9300000000000019E-002     1.2057247644747804E-008
   6.0400000000000009E-002     2.1223911517154193E-008
   6.1500000000000027E-002     2.3813200300537574E-009
   6.2600000000000017E-002    -6.0766822684854560E-008
   6.3700000000000007E-002    -9.0813117026300461E-008
   6.4800000000000024E-002     8.4924209886594326E-009
   6.5900000000000014E-002     1.8062202400415117E-007
   6.7000000000000004E-002     2.6210346959487651E-007
   6.8100000000000022E-002     1.3886273109164904E-007
   6.9200000000000012E-002    -1.2391501513775438E-007
   7.0300000000000029E-002    -2.9706313853239408E-007
   7.1400000000000019E-002    -1.7585945499831723E-007
   7.2500000000000009E-002     1.5821457566289610E-007
   7.3600000000000027E-002     3.7210344316918054E-007
   7.4700000000000016E-002     2.1117753590260691E-007
   7.5800000000000006E-002    -2.7363722665540990E-007
   7.6900000000000024E-002    -6.7289641947354539E-007
   7.8000000000000014E-002    -6.3622974266763777E-007
   7.9100000000000004E-002    -1.7789648154575843E-007
   8.0200000000000021E-002     4.8006637598518864E-007
   8.1300000000000011E-002     6.1043670029903296E-007
   8.2400000000000029E-002     2.3770127199895796E-008
   8.3500000000000019E-002    -6.0160016346344491E-007
   8.4600000000000009E-002    -5.3845207048652810E-007
   8.5700000000000026E-002     3.2728854648667038E-007
   8.6800000000000016E-002     1.2561772564367857E-006
   8.7900000000000006E-002     1.3621032621813356E-006
   8.9000000000000024E-002     4.2302940528315958E-007
   9.0100000000000013E-002    -7.8900740163589944E-007
   9.1200000000000003E-002    -1.1373406323400559E-006
   9.2300000000000021E-002    -4.2845186953854864E-007
   9.3400000000000011E-002     5.1877020723622991E-007
   9.4500000000000028E-002     6.6441833723729360E-007
   9.5600000000000018E-002    -9.4377867299044738E-008
   9.6700000000000008E-002    -6.6576671997609083E-007
   9.7800000000000026E-002    -6.0567413129319903E-007
   9.8900000000000016E-002     1.0576096087788756E-007
  0.10000000000000001          7.2502007242292166E-007
  0.10110000000000002          4.8108489636433660E-007
  0.10220000000000001         -4.1317423438158585E-007
  0.10330000000000003         -1.2412297110131476E-006
  0.10440000000000002         -9.6215569556079572E-007
  0.10550000000000001          5.7173292589141056E-007
  0.10660000000000003          1.6533994084966253E-006
  0.10770000000000002          8.7117729208330275E-007
  0.10880000000000001         -1.2758594039041782E-006
  0.10990000000000003         -2.7425257940194570E-006
  0.11100000000000002         -1.7688221305434126E-006
  0.11210000000000001          6.6747384153131861E-007
  0.11320000000000002          2.5415477011847543E-006
  0.11430000000000001          2.6067327780765481E-006
  0.11540000000000003          1.0748809700089623E-006
  0.11650000000000002         -3.6734110153702204E-007
  0.11760000000000001         -3.9178556221486360E-007
  0.11870000000000003          5.7784393447946059E-007
  0.11980000000000002          1.0341402685298817E-006
  0.12090000000000001          3.1918204967951169E-008
  0.12200000000000003         -1.8014147826761473E-006
  0.12310000000000001         -2.8606739306269446E-006
  0.12420000000000003         -2.2251185782806715E-006
  0.12530000000000002         -3.4289666928088991E-007
  0.12640000000000001          1.5148809779930161E-006
  0.12750000000000003          2.0200661765557015E-006
  0.12860000000000002          1.0178441698371898E-006
  0.12970000000000001         -2.3697043616266456E-007
  0.13080000000000003         -5.8734076446853578E-007
  0.13190000000000002         -2.5118623625530745E-008
  0.13300000000000001          2.7636281174636679E-007
  0.13410000000000000         -1.4326676023301843E-007
  0.13520000000000004         -7.0956298259261530E-007
  0.13630000000000003         -1.0151185279028141E-006
  0.13740000000000002         -3.9993346945266239E-007
  0.13850000000000001          8.1821451658470323E-007
  0.13960000000000000          1.1522885188242071E-006
  0.14070000000000005          5.4677934713254217E-007
  0.14180000000000004          1.1390903154051557E-007
  0.14290000000000003          3.9756639580446063E-007
  0.14400000000000002          8.4265894884083536E-007
  0.14510000000000001          9.4858489774196642E-007
  0.14620000000000000          3.9451094835385447E-007
  0.14730000000000004         -8.9289625293531572E-007
  0.14840000000000003         -1.4632665852332138E-006
  0.14950000000000002         -8.3178525756011368E-007
  0.15060000000000001          1.8265905055159237E-007
  0.15170000000000000          1.1482145509944530E-006
  0.15280000000000005          1.2541404430521652E-006
  0.15390000000000004          3.8228870380407898E-007
  0.15500000000000003         -8.0734076846056269E-007
  0.15610000000000002         -1.7688221305434126E-006
  0.15720000000000001         -1.7362294784106780E-006
  0.15830000000000000         -5.7919260143535212E-007
  0.15940000000000004          4.9636275889497483E-007
  0.16050000000000003          6.2673308320881915E-007
  0.16160000000000002          5.4525162340723909E-007
  0.16270000000000001          9.2006638396924245E-007
  0.16380000000000000          1.7267329894821160E-006
  0.16490000000000005          2.6637699193088338E-006
  0.16600000000000004          2.6067327780765481E-006
  0.16710000000000003          5.4525150972040137E-007
  0.16820000000000002         -2.8199331154610263E-006
  0.16930000000000001         -5.3825251598027535E-006
  0.17040000000000000         -5.1340066420380026E-006
  0.17150000000000004         -1.9236365460528759E-006
  0.17260000000000003          2.1341406863939483E-006
  0.17370000000000002          4.2730293898785021E-006
  0.17480000000000001          3.3359924600517843E-006
  0.17590000000000000          5.8599266594683286E-007
  0.17700000000000005         -1.4836366517556598E-006
  0.17810000000000004         -1.3654885151481722E-006
  0.17920000000000003          4.1895560798366205E-007
  0.18030000000000002          1.8489553212930332E-006
  0.18140000000000001          1.2561777111841366E-006
  0.18250000000000000         -9.2752571845267084E-007
  0.18360000000000004         -2.7975254397460958E-006
  0.18470000000000003         -2.6936365884466795E-006
  0.18580000000000002         -6.8104429828963475E-007
  0.18690000000000001          1.5576590612909058E-006
  0.18800000000000000          2.3541404061688809E-006
  0.18910000000000005          1.2806219729100121E-006
  0.19020000000000004         -5.9548887065830058E-007
  0.19130000000000003         -1.7708591713017086E-006
  0.19240000000000002         -1.5345628980867332E-006
  0.19350000000000001         -2.6956303145198035E-007
  0.19460000000000005          9.2006644081266131E-007
  0.19570000000000004          1.1889553661603713E-006
  0.19680000000000003          7.1432577897212468E-007
  0.19790000000000002          2.4580731405876577E-007
  0.19900000000000001          3.2321472076546343E-007
  0.20010000000000000          7.2043690124701243E-007
  0.20120000000000005          8.5284432316257153E-007
  0.20230000000000004          6.2673325373907574E-007
  0.20340000000000003          2.5395553393536829E-007
  0.20450000000000002         -9.8451835128798848E-008
  0.20560000000000000         -3.8974809513092623E-007
  0.20670000000000005         -7.9104432870735764E-007
  0.20780000000000004         -1.3227108865976334E-006
  0.20890000000000003         -1.5895627711870475E-006
