 -0.12000000000000000          0.0000000000000000
 -0.11889999999999999          0.0000000000000000
 -0.11780000000000000          0.0000000000000000
 -0.11670000000000000          0.0000000000000000
 -0.11559999999999999          0.0000000000000000
 -0.11449999999999999          0.0000000000000000
 -0.11340000000000000          0.0000000000000000
 -0.11230000000000000          0.0000000000000000
 -0.11119999999999999          0.0000000000000000
 -0.11009999999999999          0.0000000000000000
 -0.10900000000000000          0.0000000000000000
 -0.10790000000000000         -1.3979438614086154E-025
 -0.10679999999999999         -1.7076262967179359E-024
 -0.10569999999999999         -8.7932274066632611E-024
 -0.10460000000000000         -1.8991872047128362E-023
 -0.10349999999999999          3.0642847479428796E-023
 -0.10239999999999999          3.5618930320287556E-022
 -0.10130000000000000          1.1820492742481419E-021
 -0.10020000000000000          1.6663761446724231E-021
  -9.9099999999999994E-002    -2.2508945599728188E-021
  -9.7999999999999990E-002    -1.7763723041621876E-020
  -9.6899999999999986E-002    -4.4154713689973086E-020
  -9.5799999999999996E-002    -4.5040546577834952E-020
  -9.4699999999999993E-002     7.3048914430623146E-020
  -9.3599999999999989E-002     4.0122426631157578E-019
  -9.2499999999999999E-002     8.0686914091299980E-019
  -9.1399999999999995E-002     6.3208034571019860E-019
  -9.0299999999999991E-002    -1.2446971316070245E-018
  -8.9200000000000002E-002    -5.3009017559429849E-018
  -8.8099999999999984E-002    -9.1233472071229911E-018
  -8.6999999999999994E-002    -5.8062466580766370E-018
  -8.5899999999999990E-002     1.3111777201559725E-017
  -8.4799999999999986E-002     4.7104018357513875E-017
  -8.3699999999999997E-002     7.2475474159307751E-017
  -8.2599999999999993E-002     4.0049342328906374E-017
  -8.1499999999999989E-002    -9.4696410766123958E-017
  -8.0399999999999999E-002    -3.0581806923261293E-016
  -7.9299999999999995E-002    -4.3626514004649504E-016
  -7.8199999999999992E-002    -2.2669026300336593E-016
  -7.7100000000000002E-002     4.9686158592549207E-016
  -7.5999999999999984E-002     1.5247926068678148E-015
  -7.4899999999999994E-002     2.0858097387677684E-015
  -7.3799999999999991E-002     1.1104085248406052E-015
  -7.2699999999999987E-002    -1.9332364468359299E-015
  -7.1599999999999997E-002    -6.0054585138353059E-015
  -7.0499999999999993E-002    -8.1623779390744937E-015
  -6.9399999999999989E-002    -4.8191465195582955E-015
  -6.8300000000000000E-002     5.4154666082712691E-015
  -6.7199999999999996E-002     1.8892695499944483E-014
  -6.6099999999999992E-002     2.6657138207431853E-014
  -6.5000000000000002E-002     1.8588812265721635E-014
  -6.3899999999999985E-002    -9.0538555521041744E-015
  -6.2799999999999995E-002    -4.7094371181640240E-014
  -6.1699999999999991E-002    -7.3560257819911545E-014
  -6.0599999999999994E-002    -6.3337722111360406E-014
  -5.9499999999999990E-002    -4.2591357686787984E-015
  -5.8399999999999994E-002     8.8984538054032170E-014
  -5.7299999999999990E-002     1.7276210030701261E-013
  -5.6199999999999986E-002     1.8924513106761964E-013
  -5.5099999999999996E-002     9.5016808548779863E-014
  -5.3999999999999992E-002    -1.0683450380865461E-013
  -5.2899999999999989E-002    -3.4618266369842998E-013
  -5.1799999999999985E-002    -4.9325685680043363E-013
  -5.0699999999999995E-002    -4.0606754070360296E-013
  -4.9599999999999991E-002    -1.4779179941491749E-014
  -4.8499999999999988E-002     5.8866881638350299E-013
  -4.7399999999999998E-002     1.1177298236270117E-012
  -4.6299999999999994E-002     1.1800512823845200E-012
  -4.5199999999999990E-002     4.9913572624030178E-013
  -4.4099999999999986E-002    -8.2379421209935466E-013
  -4.2999999999999997E-002    -2.1916257871013034E-012
  -4.1899999999999993E-002    -2.7060591181043980E-012
  -4.0799999999999989E-002    -1.6759186269657556E-012
  -3.9699999999999985E-002     8.1182028330642475E-013
  -3.8599999999999995E-002     3.6633166118626992E-012
  -3.7499999999999992E-002     5.1820258153978394E-012
  -3.6399999999999988E-002     4.0122566727363029E-012
  -3.5299999999999984E-002     1.0507404408360843E-013
  -3.4199999999999994E-002    -4.9453236644625420E-012
  -3.3099999999999991E-002    -8.5264625221403989E-012
  -3.1999999999999987E-002    -8.3248182652928548E-012
  -3.0899999999999997E-002    -3.6096058867590708E-012
  -2.9799999999999993E-002     4.2150666637597034E-012
  -2.8699999999999989E-002     1.2019957945641480E-011
  -2.7599999999999986E-002     1.6048442089133808E-011
  -2.6499999999999996E-002     1.3273648673262084E-011
  -2.5399999999999992E-002     2.7568555077683854E-012
  -2.4299999999999988E-002    -1.3174867447007799E-011
  -2.3199999999999985E-002    -2.8452434852610509E-011
  -2.2099999999999995E-002    -3.4469000570469532E-011
  -2.0999999999999991E-002    -2.3694443976318702E-011
  -1.9899999999999987E-002     5.0666875209270934E-012
  -1.8799999999999983E-002     4.2640755509859574E-011
  -1.7699999999999994E-002     7.0450950628853093E-011
  -1.6599999999999990E-002     6.8358117777389538E-011
  -1.5499999999999986E-002     2.6817008683122090E-011
  -1.4399999999999996E-002    -4.3467278387776531E-011
  -1.3299999999999992E-002    -1.1173203334768900E-010
  -1.2199999999999989E-002    -1.3982544289081744E-010
  -1.1099999999999985E-002    -1.0227592384115525E-010
  -9.9999999999999950E-003    -3.0198309131090895E-012
  -8.8999999999999913E-003     1.2136783245075833E-010
  -7.7999999999999875E-003     2.1515340897781954E-010
  -6.6999999999999837E-003     2.2785046072115733E-010
  -5.5999999999999939E-003     1.3824684452767855E-010
  -4.4999999999999901E-003    -3.2574932334883400E-011
  -3.3999999999999864E-003    -2.2459165083255073E-010
  -2.2999999999999826E-003    -3.5787342533843969E-010
  -1.1999999999999927E-003    -3.6213726462008822E-010
  -9.9999999999988987E-005    -2.0841880998823115E-010
   1.0000000000000148E-003     6.8565743360782250E-011
   2.1000000000000185E-003     3.7013384024398022E-010
   3.2000000000000084E-003     5.6376159296434025E-010
   4.3000000000000121E-003     5.3920334863732933E-010
   5.4000000000000159E-003     2.6905630501339317E-010
   6.5000000000000058E-003    -1.5863042823749396E-010
   7.6000000000000234E-003    -5.6185406327458054E-010
   8.7000000000000133E-003    -7.4140449335402536E-010
   9.8000000000000032E-003    -5.8184079776424369E-010
   1.0900000000000021E-002    -1.2565064266834014E-010
   1.2000000000000011E-002     4.2390668753000682E-010
   1.3100000000000001E-002     7.8330464337028616E-010
   1.4200000000000018E-002     7.2245887050570445E-010
   1.5300000000000008E-002     1.9165935505327525E-010
   1.6400000000000026E-002    -6.2054222871310571E-010
   1.7500000000000016E-002    -1.3343285365507995E-009
   1.8600000000000005E-002    -1.5227742400369948E-009
   1.9700000000000023E-002    -9.0241591976791824E-010
   2.0800000000000013E-002     5.0615123203812118E-010
   2.1900000000000003E-002     2.3210351418612163E-009
   2.3000000000000020E-002     3.8847618455406518E-009
   2.4100000000000010E-002     4.4775747554126610E-009
   2.5200000000000000E-002     3.5875284964959064E-009
   2.6300000000000018E-002     1.1353301632155421E-009
   2.7400000000000008E-002    -2.4384276819944262E-009
   2.8500000000000025E-002    -6.2666631883701029E-009
   2.9600000000000015E-002    -9.3034326908991716E-009
   3.0700000000000005E-002    -1.0637937641888584E-008
   3.1800000000000023E-002    -9.7571852819555716E-009
   3.2900000000000013E-002    -6.6528849096414433E-009
   3.4000000000000002E-002    -1.7244760064372144E-009
   3.5100000000000020E-002     4.4823105227465021E-009
   3.6200000000000010E-002     1.1568893398816726E-008
   3.7300000000000028E-002     1.9420102859157851E-008
   3.8400000000000017E-002     2.8019055520189795E-008
   3.9500000000000007E-002     3.6903802680399167E-008
   4.0600000000000025E-002     4.4421867073651811E-008
   4.1700000000000015E-002     4.7102549416422335E-008
   4.2800000000000005E-002     3.9491403924785118E-008
   4.3900000000000022E-002     1.4623569910554579E-008
   4.5000000000000012E-002    -3.4988808295111085E-008
   4.6100000000000002E-002    -1.1626487861349233E-007
   4.7200000000000020E-002    -2.3487423561618925E-007
   4.8300000000000010E-002    -3.9533523477075505E-007
   4.9400000000000027E-002    -6.0193582385181799E-007
   5.0500000000000017E-002    -8.6018928868725197E-007
   5.1600000000000007E-002    -1.1783653235397651E-006
   5.2700000000000025E-002    -1.5687040786360740E-006
   5.3800000000000014E-002    -2.0481527371885022E-006
   5.4900000000000004E-002    -2.6387285743112443E-006
   5.6000000000000022E-002    -3.3677727060421603E-006
   5.7100000000000012E-002    -4.2683695937739685E-006
   5.8200000000000002E-002    -5.3801004469278269E-006
   5.9300000000000019E-002    -6.7501659941626713E-006
   6.0400000000000009E-002    -8.4348530435818247E-006
   6.1500000000000027E-002    -1.0501318683964200E-005
   6.2600000000000017E-002    -1.3029708497924730E-005
   6.3700000000000007E-002    -1.6115674952743575E-005
   6.4800000000000024E-002    -1.9873223209287971E-005
   6.5900000000000014E-002    -2.4437744286842644E-005
   6.7000000000000004E-002    -2.9969000024721026E-005
   6.8100000000000022E-002    -3.6653938877861947E-005
   6.9200000000000012E-002    -4.4709562644129619E-005
   7.0300000000000029E-002    -5.4386313422583044E-005
   7.1400000000000019E-002    -6.5972686570603400E-005
   7.2500000000000009E-002    -7.9801342508289963E-005
   7.3600000000000027E-002    -9.6256670076400042E-005
   7.4700000000000016E-002    -1.1578275734791532E-004
   7.5800000000000006E-002    -1.3889084220863879E-004
   7.6900000000000024E-002    -1.6616540960967541E-004
   7.8000000000000014E-002    -1.9826923380605876E-004
   7.9100000000000004E-002    -2.3594827507622540E-004
   8.0200000000000021E-002    -2.8003755141980946E-004
   8.1300000000000011E-002    -3.3146896748803556E-004
   8.2400000000000029E-002    -3.9128077332861722E-004
   8.3500000000000019E-002    -4.6062728506512940E-004
   8.4600000000000009E-002    -5.4078776156529784E-004
   8.5700000000000026E-002    -6.3317280728369951E-004
   8.6800000000000016E-002    -7.3932815575972199E-004
   8.7900000000000006E-002    -8.6093600839376450E-004
   8.9000000000000024E-002    -9.9981448147445917E-004
   9.0100000000000013E-002    -1.1579166166484356E-003
   9.1200000000000003E-002    -1.3373289257287979E-003
   9.2300000000000021E-002    -1.5402671415358782E-003
   9.3400000000000011E-002    -1.7690703971311450E-003
   9.4500000000000028E-002    -2.0261919125914574E-003
   9.5600000000000018E-002    -2.3141845595091581E-003
   9.6700000000000008E-002    -2.6356824673712254E-003
   9.7800000000000026E-002    -2.9933771584182978E-003
   9.8900000000000016E-002    -3.3899857662618160E-003
  0.10000000000000001         -3.8282168097794056E-003
  0.10110000000000002         -4.3107303790748119E-003
  0.10220000000000001         -4.8400927335023880E-003
  0.10330000000000003         -5.4187234491109848E-003
  0.10440000000000002         -6.0488423332571983E-003
  0.10550000000000001         -6.7324098199605942E-003
  0.10660000000000003         -7.4710678309202194E-003
  0.10770000000000002         -8.2660745829343796E-003
  0.10880000000000001         -9.1182356700301170E-003
  0.10990000000000003         -1.0027816519141197E-002
  0.11100000000000002         -1.0994468815624714E-002
  0.11210000000000001         -1.2017153203487396E-002
  0.11320000000000002         -1.3094071298837662E-002
  0.11430000000000001         -1.4222595840692520E-002
  0.11540000000000003         -1.5399207361042500E-002
  0.11650000000000002         -1.6619442030787468E-002
  0.11760000000000001         -1.7877833917737007E-002
  0.11870000000000003         -1.9167875871062279E-002
  0.11980000000000002         -2.0481990650296211E-002
  0.12090000000000001         -2.1811522543430328E-002
  0.12200000000000003         -2.3146724328398705E-002
  0.12310000000000001         -2.4476781487464905E-002
  0.12420000000000003         -2.5789866223931313E-002
  0.12530000000000002         -2.7073198929429054E-002
  0.12640000000000001         -2.8313143178820610E-002
  0.12750000000000003         -2.9495310038328171E-002
  0.12860000000000002         -3.0604662373661995E-002
  0.12970000000000001         -3.1625658273696899E-002
  0.13080000000000003         -3.2542418688535690E-002
  0.13190000000000002         -3.3338941633701324E-002
  0.13300000000000001         -3.3999301493167877E-002
  0.13410000000000000         -3.4507878124713898E-002
  0.13520000000000004         -3.4849572926759720E-002
  0.13630000000000003         -3.5010054707527161E-002
  0.13740000000000002         -3.4975998103618622E-002
  0.13850000000000001         -3.4735351800918579E-002
  0.13960000000000000         -3.4277573227882385E-002
  0.14070000000000005         -3.3593878149986267E-002
  0.14180000000000004         -3.2677449285984039E-002
  0.14290000000000003         -3.1523615121841431E-002
  0.14400000000000002         -3.0130049213767052E-002
  0.14510000000000001         -2.8496943414211273E-002
  0.14620000000000000         -2.6627127081155777E-002
  0.14730000000000004         -2.4526149034500122E-002
  0.14840000000000003         -2.2202314808964729E-002
  0.14950000000000002         -1.9666675478219986E-002
  0.15060000000000001         -1.6933010891079903E-002
  0.15170000000000000         -1.4017755165696144E-002
  0.15280000000000005         -1.0939870029687881E-002
  0.15390000000000004         -7.7206580899655819E-003
  0.15500000000000003         -4.3835262767970562E-003
  0.15610000000000002         -9.5373723888769746E-004
  0.15720000000000001          2.5418624281883240E-003
  0.15830000000000000          6.0751368291676044E-003
  0.15940000000000004          9.6170017495751381E-003
  0.16050000000000003          1.3137813657522202E-002
  0.16160000000000002          1.6607770696282387E-002
  0.16270000000000001          1.9997309893369675E-002
  0.16380000000000000          2.3277493193745613E-002
  0.16490000000000005          2.6420377194881439E-002
  0.16600000000000004          2.9399376362562180E-002
  0.16710000000000003          3.2189644873142242E-002
  0.16820000000000002          3.4768383949995041E-002
  0.16930000000000001          3.7115156650543213E-002
  0.17040000000000000          3.9212118834257126E-002
  0.17150000000000004          4.1044231504201889E-002
  0.17260000000000003          4.2599439620971680E-002
  0.17370000000000002          4.3868806213140488E-002
  0.17480000000000001          4.4846612960100174E-002
  0.17590000000000000          4.5530360192060471E-002
  0.17700000000000005          4.5920722186565399E-002
  0.17810000000000004          4.6021480113267899E-002
  0.17920000000000003          4.5839406549930573E-002
  0.18030000000000002          4.5384109020233154E-002
  0.18140000000000001          4.4667806476354599E-002
  0.18250000000000000          4.3705109506845474E-002
  0.18360000000000004          4.2512740939855576E-002
  0.18470000000000003          4.1109237819910049E-002
  0.18580000000000002          3.9514679461717606E-002
  0.18690000000000001          3.7750378251075745E-002
  0.18800000000000000          3.5838525742292404E-002
  0.18910000000000005          3.3801887184381485E-002
  0.19020000000000004          3.1663443893194199E-002
  0.19130000000000003          2.9446093365550041E-002
  0.19240000000000002          2.7172399684786797E-002
  0.19350000000000001          2.4864299222826958E-002
  0.19460000000000005          2.2542860358953476E-002
  0.19570000000000004          2.0228071138262749E-002
  0.19680000000000003          1.7938634380698204E-002
  0.19790000000000002          1.5691807493567467E-002
  0.19900000000000001          1.3503287918865681E-002
  0.20010000000000000          1.1387134902179241E-002
  0.20120000000000005          9.3556828796863556E-003
  0.20230000000000004          7.4195121414959431E-003
  0.20340000000000003          5.5874306708574295E-003
  0.20450000000000002          3.8665062747895718E-003
  0.20560000000000000          2.2621189709752798E-003
  0.20670000000000005          7.7803106978535652E-004
  0.20780000000000004         -5.8352953055873513E-004
  0.20890000000000003         -1.8217712640762329E-003
