 -0.12000000000000000          0.0000000000000000
 -0.11889999999999999          0.0000000000000000
 -0.11780000000000000          0.0000000000000000
 -0.11670000000000000          0.0000000000000000
 -0.11559999999999999          0.0000000000000000
 -0.11449999999999999          0.0000000000000000
 -0.11340000000000000          0.0000000000000000
 -0.11230000000000000          0.0000000000000000
 -0.11119999999999999          0.0000000000000000
 -0.11009999999999999          0.0000000000000000
 -0.10900000000000000         -5.1763117552583827E-030
 -0.10790000000000000         -1.0352623510516765E-029
 -0.10679999999999999         -3.2783307106218344E-028
 -0.10569999999999999         -1.0870254828982717E-027
 -0.10460000000000000          1.1215341993453049E-027
 -0.10349999999999999          2.3811042274437152E-028
 -0.10239999999999999          7.3055014059238167E-027
 -0.10130000000000000          4.6176151813410765E-026
 -0.10020000000000000          1.7906587880692984E-026
  -9.9099999999999994E-002    -3.7786730717735595E-025
  -9.7999999999999990E-002    -2.6478905144648482E-025
  -9.6899999999999986E-002     1.9967761617785508E-024
  -9.5799999999999996E-002     1.9967761617785508E-024
  -9.4699999999999993E-002    -1.6217280216093251E-024
  -9.3599999999999989E-002    -1.0667988480079015E-023
  -9.2499999999999999E-002    -3.4309801133032631E-024
  -9.1399999999999995E-002     5.4465089976346373E-023
  -9.0299999999999991E-002     6.8939103554454255E-023
  -8.9200000000000002E-002    -1.7904996846854767E-023
  -8.8099999999999984E-002    -7.5801063781060782E-023
  -8.6999999999999994E-002    -3.6528142369563982E-022
  -8.5899999999999990E-002    -4.2317750325162032E-022
  -8.4799999999999986E-002    -6.5476177098844438E-022
  -8.3699999999999997E-002     2.5874179268399945E-021
  -8.2599999999999993E-002     7.2191032815764757E-021
  -8.1499999999999989E-002     4.4400922706829787E-021
  -8.0399999999999999E-002    -1.7791999047639265E-020
  -7.9299999999999995E-002    -3.2613392182796005E-020
  -7.8199999999999992E-002    -2.8908043091213253E-020
  -7.7100000000000002E-002     7.3474317910022683E-022
  -7.5999999999999984E-002     7.4841712086058194E-020
  -7.4899999999999994E-002     8.9663101990040666E-020
  -7.3799999999999991E-002     7.3474317910022683E-022
  -7.2699999999999987E-002    -5.8550829361526732E-020
  -7.1599999999999997E-002     7.3474317910022683E-022
  -7.0499999999999993E-002    -1.7712197444278065E-019
  -6.9399999999999989E-002    -2.3640754698340761E-019
  -6.8300000000000000E-002     4.1573373803879187E-019
  -6.7199999999999996E-002     1.6014452405501193E-018
  -6.6099999999999992E-002     1.4828740696194713E-018
  -6.5000000000000002E-002    -9.4783441747093112E-019
  -6.3899999999999985E-002    -3.4971140754919816E-018
  -6.2799999999999995E-002    -2.0742600243242049E-018
  -6.1699999999999991E-002     2.1943013019985128E-018
  -6.0599999999999994E-002     5.5142932608760459E-018
  -5.9499999999999990E-002     2.1943008884082065E-018
  -5.8399999999999994E-002    -4.4456834429371661E-018
  -5.7299999999999990E-002    -6.3428217642372288E-018
  -5.6199999999999986E-002     1.2457315209630220E-018
  -5.5099999999999996E-002     8.8342848061632728E-018
  -5.3999999999999992E-002     1.2457315209630220E-018
  -5.2899999999999989E-002    -2.5314204977237856E-017
  -5.1799999999999985E-002    -3.6697034077857619E-017
  -5.0699999999999995E-002     5.0400114722855976E-018
  -4.9599999999999991E-002     6.9542715223668342E-017
  -4.8499999999999988E-002     8.4719825102791294E-017
  -4.7399999999999998E-002     3.9188502082867339E-017
  -4.6299999999999994E-002    -5.5668414809316409E-017
  -4.5199999999999990E-002    -1.8846809978186264E-016
  -4.4099999999999986E-002    -2.5676506776813632E-016
  -4.2999999999999997E-002    -1.0499399544668640E-016
  -4.1899999999999993E-002     1.8337103931709048E-016
  -4.0799999999999989E-002     4.1102763456437555E-016
  -3.9699999999999985E-002     1.9854812272643383E-016
  -3.8599999999999995E-002    -4.0853616655936583E-016
  -3.7499999999999992E-002    -7.4243253096051157E-016
  -3.6399999999999988E-002    -2.2641090094944962E-016
  -3.5299999999999984E-002     1.1091743978364557E-015
  -3.4199999999999994E-002     2.2626344310124448E-015
  -3.3099999999999991E-002     1.5948418080892718E-015
  -3.1999999999999987E-002    -1.9262467309551874E-015
  -3.0899999999999997E-002    -6.0544195592854462E-015
  -2.9799999999999993E-002    -5.8722939230986156E-015
  -2.8699999999999989E-002     1.0484666994737928E-015
  -2.7599999999999986E-002     1.1247481997145575E-014
  -2.6499999999999996E-002     1.6043447766036362E-014
  -2.5399999999999992E-002     6.3908076828591773E-015
  -2.4299999999999988E-002    -1.6071310067803345E-014
  -2.3199999999999985E-002    -3.4526672292685065E-014
  -2.2099999999999995E-002    -2.6513161241123462E-014
  -2.0999999999999991E-002     1.3918649524222951E-014
  -1.9899999999999987E-002     6.0421299582537336E-014
  -1.8799999999999983E-002     6.5277969661658997E-014
  -1.7699999999999994E-002     2.1412078111005678E-015
  -1.6599999999999990E-002    -9.5235099103682663E-014
  -1.5499999999999986E-002    -1.4015934138127129E-013
  -1.4399999999999996E-002    -5.4681885647105133E-014
  -1.3299999999999992E-002     1.3764240669542765E-013
  -1.2199999999999989E-002     2.7557193723118378E-013
  -1.1099999999999985E-002     1.7940979105991739E-013
  -9.9999999999999950E-003    -1.5958604880281224E-013
  -8.8999999999999913E-003    -4.8983988523362831E-013
  -7.7999999999999875E-003    -4.5875716420118451E-013
  -6.6999999999999837E-003     7.7419651635726727E-014
  -5.5999999999999939E-003     7.9912140273086241E-013
  -4.4999999999999901E-003     1.0099010386635521E-012
  -3.3999999999999864E-003     2.4448916198863135E-013
  -2.2999999999999826E-003    -1.1114942516723958E-012
  -1.1999999999999927E-003    -1.9011894922954520E-012
  -9.9999999999988987E-005    -1.0804115848500606E-012
   1.0000000000000148E-003     1.1750277400385256E-012
   2.1000000000000185E-003     3.1215826364755506E-012
   3.2000000000000084E-003     2.6398007044181604E-012
   4.3000000000000121E-003    -6.8022182938415332E-013
   5.4000000000000159E-003    -4.4820262952438572E-012
   6.5000000000000058E-003    -5.1036804990522988E-012
   7.6000000000000234E-003    -8.0649527854637082E-013
   8.7000000000000133E-003     5.7985812332295161E-012
   9.8000000000000032E-003     8.7757223363182923E-012
   1.0900000000000021E-002     3.8423123190078901E-012
   1.2000000000000011E-002    -6.6558742024824813E-012
   1.3100000000000001E-002    -1.3991394848256178E-011
   1.4200000000000018E-002    -9.6708977631587700E-012
   1.5300000000000008E-002     5.9054267552427486E-012
   1.6400000000000026E-002     2.0937803574261338E-011
   1.7500000000000016E-002     2.0222901478406108E-011
   1.8600000000000005E-002    -1.0376751541363305E-012
   1.9700000000000023E-002    -2.8794539669307895E-011
   2.0800000000000013E-002    -3.7699739163787882E-011
   2.1900000000000003E-002    -1.2258537934739522E-011
   2.3000000000000020E-002     3.4489865824438581E-011
   2.4100000000000010E-002     6.3800867367014291E-011
   2.5200000000000000E-002     4.0488834507357296E-011
   2.6300000000000018E-002    -3.1218989199333080E-011
   2.7400000000000008E-002    -9.7829251644032666E-011
   2.8500000000000025E-002    -9.2731683443147972E-011
   2.9600000000000015E-002     3.5314806634545448E-012
   3.0700000000000005E-002     1.2912118596553057E-010
   3.1800000000000023E-002     1.7433099408492581E-010
   3.2900000000000013E-002     7.1540461055175086E-011
   3.4000000000000002E-002    -1.2875654709088025E-010
   3.5100000000000020E-002    -2.7015181758294204E-010
   3.6200000000000010E-002    -2.0462169458834722E-010
   3.7300000000000028E-002     6.3474475675562303E-011
   3.8400000000000017E-002     3.3613203886950771E-010
   3.9500000000000007E-002     3.6336050834862021E-010
   4.0600000000000025E-002     6.9815334069467383E-011
   4.1700000000000015E-002    -3.4230260292922310E-010
   4.2800000000000005E-002    -5.2475040979160781E-010
   4.3900000000000022E-002    -2.5336724385205400E-010
   4.5000000000000012E-002     3.1463828764621837E-010
   4.6100000000000002E-002     7.1429984149773418E-010
   4.7200000000000020E-002     5.4147997197162567E-010
   4.8300000000000010E-002    -1.4805895398595226E-010
   4.9400000000000027E-002    -7.7021056199555460E-010
   5.0500000000000017E-002    -8.5376089531408184E-010
   5.1600000000000007E-002    -4.1910022674507275E-010
   5.2700000000000025E-002     2.6024357668852360E-010
   5.3800000000000014E-002     6.5263178194996385E-010
   5.4900000000000004E-002     6.4865318671891714E-010
   5.6000000000000022E-002     7.3717676407625277E-010
   5.7100000000000012E-002     9.2118646044525576E-010
   5.8200000000000002E-002     9.7887598027313061E-010
   5.9300000000000019E-002     1.6326556773194056E-010
   6.0400000000000009E-002    -2.0528077016024326E-009
   6.1500000000000027E-002    -4.0798981970624482E-009
   6.2600000000000017E-002    -3.6840288597517201E-009
   6.3700000000000007E-002     3.5821612343056586E-010
   6.4800000000000024E-002     6.0754468123036531E-009
   6.5900000000000014E-002     7.0143935104738375E-009
   6.7000000000000004E-002    -2.5846436102483494E-010
   6.8100000000000022E-002    -9.6081453904162117E-009
   6.9200000000000012E-002    -9.2978158505729880E-009
   7.0300000000000029E-002     4.3726107179509199E-009
   7.1400000000000019E-002     1.9976630127871431E-008
   7.2500000000000009E-002     1.9515113081070012E-008
   7.3600000000000027E-002    -1.8260299938788194E-009
   7.4700000000000016E-002    -3.0424114783045297E-008
   7.5800000000000006E-002    -3.8429032400699725E-008
   7.6900000000000024E-002    -9.8786880897705487E-009
   7.8000000000000014E-002     2.5801284664339619E-008
   7.9100000000000004E-002     3.7482418946410689E-008
   8.0200000000000021E-002     2.8793184725373067E-008
   8.1300000000000011E-002     1.1733001237246299E-008
   8.2400000000000029E-002    -3.2901450452982317E-009
   8.3500000000000019E-002    -1.6785513423656084E-008
   8.4600000000000009E-002    -2.5888521548722565E-008
   8.5700000000000026E-002    -1.7995004597537445E-008
   8.6800000000000016E-002     2.6183228030163264E-008
   8.7900000000000006E-002     3.5222576855176158E-008
   8.9000000000000024E-002    -1.2647786817865381E-008
   9.0100000000000013E-002    -5.1096854747356701E-008
   9.1200000000000003E-002    -8.3180182741671160E-008
   9.2300000000000021E-002    -3.1999633165469277E-008
   9.3400000000000011E-002     1.3503739637599210E-007
   9.4500000000000028E-002     2.6820868015420274E-007
   9.5600000000000018E-002     1.7450499001370190E-007
   9.6700000000000008E-002    -1.0355053348121146E-007
   9.7800000000000026E-002    -2.7975420380244032E-007
   9.8900000000000016E-002    -2.1864309474040056E-007
  0.10000000000000001          2.0199465211589995E-008
  0.10110000000000002          1.3987538238779962E-007
  0.10220000000000001         -1.3920882224738307E-008
  0.10330000000000003         -2.8484674885476124E-007
  0.10440000000000002         -3.9484675085077470E-007
  0.10550000000000001         -4.7542130232613999E-009
  0.10660000000000003          5.7274570508525358E-007
  0.10770000000000002          7.8256050528580090E-007
  0.10880000000000001          4.0367169162891514E-007
  0.10990000000000003         -2.6243932893521560E-007
  0.11100000000000002         -6.7392073788141715E-007
  0.11210000000000001         -3.0521707117259211E-007
  0.11320000000000002          2.6719024504018307E-007
  0.11430000000000001          1.7144951414138632E-007
  0.11540000000000003         -3.5003188258997397E-007
  0.11650000000000002         -1.0039207154477481E-006
  0.11760000000000001         -1.2442910701793153E-006
  0.11870000000000003         -2.3799498194421176E-007
  0.11980000000000002          1.0942270591840497E-006
  0.12090000000000001          1.5912639810267137E-006
  0.12200000000000003          8.2533807699292083E-007
  0.12310000000000001         -3.3984696301558870E-007
  0.12420000000000003          1.8163444792662631E-007
  0.12530000000000002          2.2471897409559460E-006
  0.12640000000000001          3.0090413929428905E-006
  0.12750000000000003          1.1644920050457586E-007
  0.12860000000000002         -4.1165130824083462E-006
  0.12970000000000001         -4.9720683819032274E-006
  0.13080000000000003         -1.7128095350926742E-006
  0.13190000000000002          2.4427454263786785E-006
  0.13300000000000001          3.1923750611895230E-006
  0.13410000000000000         -1.8095784071192611E-007
  0.13520000000000004         -3.3505871215311345E-006
  0.13630000000000003         -2.2668834844807861E-006
  0.13740000000000002          2.8990416467422619E-006
  0.13850000000000001          6.3701522776682395E-006
  0.13960000000000000          4.3575601011980325E-006
  0.14070000000000005         -1.7046613720594905E-006
  0.14180000000000004         -6.7076239247398917E-006
  0.14290000000000003         -4.9965128710027784E-006
  0.14400000000000002          1.4812640074524097E-006
  0.14510000000000001          5.4820038712932728E-006
  0.14620000000000000          2.7645967293210560E-006
  0.14730000000000004         -4.0228096622740850E-006
  0.14840000000000003         -7.5591055974655319E-006
  0.14950000000000002         -3.5176244637113996E-006
  0.15060000000000001          4.4960779632674530E-006
  0.15170000000000000          8.1016323747462593E-006
  0.15280000000000005          3.5060770642303396E-006
  0.15390000000000004         -4.2937367652484681E-006
  0.15500000000000003         -7.2433658715453930E-006
  0.15610000000000002         -2.2465146685135551E-006
  0.15720000000000001          5.5950581554498058E-006
  0.15830000000000000          7.8574421422672458E-006
  0.15940000000000004          1.5693640307290480E-006
  0.16050000000000003         -7.5881353041040711E-006
  0.16160000000000002         -1.0891190868278500E-005
  0.16270000000000001         -4.2810070226551034E-006
  0.16380000000000000          6.4175096667895559E-006
  0.16490000000000005          1.1076213013438974E-005
  0.16600000000000004          6.8962140176154207E-006
  0.16710000000000003         -1.7448955986765213E-006
  0.16820000000000002         -7.3426722337899264E-006
  0.16930000000000001         -3.7778577279823367E-006
  0.17040000000000000          5.8410300880495925E-006
  0.17150000000000004          1.0864362593565602E-005
  0.17260000000000003          6.2036224335315637E-006
  0.17370000000000002         -3.3541537050041370E-006
  0.17480000000000001         -1.0899338121816982E-005
  0.17590000000000000         -1.1078597708547022E-005
  0.17700000000000005         -3.4926729313156102E-006
  0.17810000000000004          5.6902886171883438E-006
  0.17920000000000003          6.4236219259328209E-006
  0.18030000000000002         -1.3171177215554053E-006
  0.18140000000000001         -6.3282277551479638E-006
  0.18250000000000000         -3.1423023756360635E-006
  0.18360000000000004          4.4028815864294302E-006
  0.18470000000000003          8.9332515926798806E-006
  0.18580000000000002          5.5599193728994578E-006
  0.18690000000000001         -3.2563752938585822E-006
  0.18800000000000000         -8.7808184616733342E-006
  0.18910000000000005         -5.9697072174458299E-006
  0.19020000000000004          1.0743658549472457E-006
  0.19130000000000003          4.3214022298343480E-006
  0.19240000000000002          1.0499211384740192E-006
  0.19350000000000001         -4.3645222831401043E-006
  0.19460000000000005         -4.5274855438037775E-006
  0.19570000000000004          4.0565873860032298E-006
  0.19680000000000003          1.3989179024065379E-005
  0.19790000000000002          1.4033994375495240E-005
  0.19900000000000001          2.1519590518437326E-006
  0.20010000000000000         -1.2386371963657439E-005
  0.20120000000000005         -1.7104148355429061E-005
  0.20230000000000004         -7.7826680353609845E-006
  0.20340000000000003          6.5275148699583951E-006
  0.20450000000000002          1.2188439541205298E-005
  0.20560000000000000          4.6575141823268496E-006
  0.20670000000000005         -7.5422990448714700E-006
  0.20780000000000004         -1.1520122825459111E-005
  0.20890000000000003         -2.7389669412514195E-006
