 -0.12000000000000000          0.0000000000000000
 -0.11889999999999999          0.0000000000000000
 -0.11780000000000000          0.0000000000000000
 -0.11670000000000000          0.0000000000000000
 -0.11559999999999999          0.0000000000000000
 -0.11449999999999999          0.0000000000000000
 -0.11340000000000000          0.0000000000000000
 -0.11230000000000000         -1.5905967474294408E-020
 -0.11119999999999999         -4.0088413352110310E-020
 -0.11009999999999999          3.4155269769291919E-020
 -0.10900000000000000         -2.5104125089887151E-019
 -0.10790000000000000         -2.9753504653797644E-018
 -0.10679999999999999         -7.2506491777917264E-018
 -0.10569999999999999          4.0178734883405594E-018
 -0.10460000000000000          5.5987170512724943E-017
 -0.10349999999999999          1.0102213884300278E-016
 -0.10239999999999999         -6.9934355465210149E-017
 -0.10130000000000000         -6.2755072287383170E-016
 -0.10020000000000000         -1.0369686507312893E-015
  -9.9099999999999994E-002     3.0687188409811569E-016
  -9.7999999999999990E-002     4.4209177910549489E-015
  -9.6899999999999986E-002     7.8581296336513798E-015
  -9.5799999999999996E-002     1.3577425689553346E-015
  -9.4699999999999993E-002    -2.1259849349725135E-014
  -9.3599999999999989E-002    -4.4893830406650403E-014
  -9.2499999999999999E-002    -2.6838769176377487E-014
  -9.1399999999999995E-002     6.7755683333912964E-014
  -9.0299999999999991E-002     1.9338103709500010E-013
  -8.9200000000000002E-002     1.9031405954200026E-013
  -8.8099999999999984E-002    -1.0633597409721862E-013
  -8.6999999999999994E-002    -6.1945500812177201E-013
  -8.5899999999999990E-002    -8.6889344460758244E-013
  -8.4799999999999986E-002    -2.2389441646161745E-013
  -8.3699999999999997E-002     1.3820318587459690E-012
  -8.2599999999999993E-002     2.8270682236181122E-012
  -8.1499999999999989E-002     2.1799857925774990E-012
  -8.0399999999999999E-002    -1.5765925891197963E-012
  -7.9299999999999995E-002    -6.5930321098417455E-012
  -7.8199999999999992E-002    -8.1869988219351875E-012
  -7.7100000000000002E-002    -2.2022553052003513E-012
  -7.5999999999999984E-002     1.0035181886858258E-011
  -7.4899999999999994E-002     1.9790545938147552E-011
  -7.3799999999999991E-002     1.5884583579039990E-011
  -7.2699999999999987E-002    -5.1223912264641847E-012
  -7.1599999999999997E-002    -3.1675596173785792E-011
  -7.0499999999999993E-002    -4.1752452190069178E-011
  -6.9399999999999989E-002    -1.9618409327626374E-011
  -6.8300000000000000E-002     2.7044845529733408E-011
  -6.7199999999999996E-002     6.6246411134507355E-011
  -6.6099999999999992E-002     6.3195296218232500E-011
  -6.5000000000000002E-002     1.0416943349578212E-011
  -6.3899999999999985E-002    -5.9475625813210087E-011
  -6.2799999999999995E-002    -9.4270910522276097E-011
  -6.1699999999999991E-002    -6.3865517041516995E-011
  -6.0599999999999994E-002     1.1311576675332446E-011
  -5.9499999999999990E-002     7.3337398653894326E-011
  -5.8399999999999994E-002     7.4907448299743606E-011
  -5.7299999999999990E-002     2.2028469326418332E-011
  -5.6199999999999986E-002    -2.9457956907119609E-011
  -5.5099999999999996E-002    -2.5248409266098726E-011
  -5.3999999999999992E-002     3.2256704252109358E-011
  -5.2899999999999989E-002     7.8076115017644554E-011
  -5.1799999999999985E-002     4.0150827107510167E-011
  -5.0699999999999995E-002    -8.8624357852395974E-011
  -4.9599999999999991E-002    -2.2688181888774750E-010
  -4.8499999999999988E-002    -2.5654112167927678E-010
  -4.7399999999999998E-002    -1.1225575330398030E-010
  -4.6299999999999994E-002     1.6167206462469608E-010
  -4.5199999999999990E-002     4.2947242984148204E-010
  -4.4099999999999986E-002     5.3957566192863737E-010
  -4.2999999999999997E-002     4.0293929304269227E-010
  -4.1899999999999993E-002     3.2633673541226926E-011
  -4.0799999999999989E-002    -4.5761638922670045E-010
  -3.9699999999999985E-002    -8.7929180603296686E-010
  -3.8599999999999995E-002    -1.0172215292314490E-009
  -3.7499999999999992E-002    -7.1223493769423385E-010
  -3.6399999999999988E-002     3.2807020988734337E-011
  -3.5299999999999984E-002     9.8431274242472000E-010
  -3.4199999999999994E-002     1.7242798300287632E-009
  -3.3099999999999991E-002     1.8307853011378938E-009
  -3.1999999999999987E-002     1.1093583829335785E-009
  -3.0899999999999997E-002    -2.6549487608384936E-010
  -2.9799999999999993E-002    -1.7916552685903753E-009
  -2.8699999999999989E-002    -2.8393469797549642E-009
  -2.7599999999999986E-002    -2.8994135981008640E-009
  -2.6499999999999996E-002    -1.7783943206950426E-009
  -2.5399999999999992E-002     2.9708302484721116E-010
  -2.4299999999999988E-002     2.6758135707183328E-009
  -2.3199999999999985E-002     4.4195451742723435E-009
  -2.2099999999999995E-002     4.6338413106639109E-009
  -2.0999999999999991E-002     2.9333719897550736E-009
  -1.9899999999999987E-002    -2.0521501165049472E-010
  -1.8799999999999983E-002    -3.5204774651020898E-009
  -1.7699999999999994E-002    -5.5780211560829684E-009
  -1.6599999999999990E-002    -5.6057825048583254E-009
  -1.5499999999999986E-002    -3.9598542223018285E-009
  -1.4399999999999996E-002    -1.7972412447164743E-009
  -1.3299999999999992E-002    -1.1538497934893144E-010
  -1.2199999999999989E-002     1.1238562303006461E-009
  -1.1099999999999985E-002     3.0349394108952765E-009
  -9.9999999999999950E-003     6.8548344778207593E-009
  -8.8999999999999913E-003     1.2612773048203962E-008
  -7.7999999999999875E-003     1.8375542865101124E-008
  -6.6999999999999837E-003     2.0633688535554029E-008
  -5.5999999999999939E-003     1.5601706593315612E-008
  -4.4999999999999901E-003     6.2596505756573606E-010
  -3.3999999999999864E-003    -2.5086956512154757E-008
  -2.2999999999999826E-003    -6.0721554007159284E-008
  -1.1999999999999927E-003    -1.0486503754236765E-007
  -9.9999999999988987E-005    -1.5681654019772395E-007
   1.0000000000000148E-003    -2.1773458058760298E-007
   2.1000000000000185E-003    -2.9124043976480607E-007
   3.2000000000000084E-003    -3.8322014006553218E-007
   4.3000000000000121E-003    -5.0087157887901412E-007
   5.4000000000000159E-003    -6.5151920125572360E-007
   6.5000000000000058E-003    -8.4202520156395622E-007
   7.6000000000000234E-003    -1.0793485216709087E-006
   8.7000000000000133E-003    -1.3719588878302602E-006
   9.8000000000000032E-003    -1.7310669591097394E-006
   1.0900000000000021E-002    -2.1707662654080195E-006
   1.2000000000000011E-002    -2.7072746888734400E-006
   1.3100000000000001E-002    -3.3586138670216314E-006
   1.4200000000000018E-002    -4.1460789361735806E-006
   1.5300000000000008E-002    -5.0974635996681172E-006
   1.6400000000000026E-002    -6.2502585933543742E-006
   1.7500000000000016E-002    -7.6525684562511742E-006
   1.8600000000000005E-002    -9.3609596660826355E-006
   1.9700000000000023E-002    -1.1436812201282009E-005
   2.0800000000000013E-002    -1.3944138117949478E-005
   2.1900000000000003E-002    -1.6951056750258431E-005
   2.3000000000000020E-002    -2.0534811483230442E-005
   2.4100000000000010E-002    -2.4788163500488736E-005
   2.5200000000000000E-002    -2.9824619559803978E-005
   2.6300000000000018E-002    -3.5781027690973133E-005
   2.7400000000000008E-002    -4.2817500798264518E-005
   2.8500000000000025E-002    -5.1115595852024853E-005
   2.9600000000000015E-002    -6.0875881899846718E-005
   3.0700000000000005E-002    -7.2316564910579473E-005
   3.1800000000000023E-002    -8.5674873844254762E-005
   3.2900000000000013E-002    -1.0121236118720844E-004
   3.4000000000000002E-002    -1.1922328121727332E-004
   3.5100000000000020E-002    -1.4004258264321834E-004
   3.6200000000000010E-002    -1.6404957568738610E-004
   3.7300000000000028E-002    -1.9166526908520609E-004
   3.8400000000000017E-002    -2.2334545792546123E-004
   3.9500000000000007E-002    -2.5957429897971451E-004
   4.0600000000000025E-002    -3.0086230253800750E-004
   4.1700000000000015E-002    -3.4774953383021057E-004
   4.2800000000000005E-002    -4.0081032784655690E-004
   4.3900000000000022E-002    -4.6065601054579020E-004
   4.5000000000000012E-002    -5.2793399663642049E-004
   4.6100000000000002E-002    -6.0332339489832520E-004
   4.7200000000000020E-002    -6.8752962397411466E-004
   4.8300000000000010E-002    -7.8127684537321329E-004
   4.9400000000000027E-002    -8.8529736967757344E-004
   5.0500000000000017E-002    -1.0003186762332916E-003
   5.1600000000000007E-002    -1.1270490940660238E-003
   5.2700000000000025E-002    -1.2661651708185673E-003
   5.3800000000000014E-002    -1.4183005550876260E-003
   5.4900000000000004E-002    -1.5840365085750818E-003
   5.6000000000000022E-002    -1.7638886347413063E-003
   5.7100000000000012E-002    -1.9582880195230246E-003
   5.8200000000000002E-002    -2.1675608586519957E-003
   5.9300000000000019E-002    -2.3919076193124056E-003
   6.0400000000000009E-002    -2.6313858106732368E-003
   6.1500000000000027E-002    -2.8858899604529142E-003
   6.2600000000000017E-002    -3.1551285646855831E-003
   6.3700000000000007E-002    -3.4385991748422384E-003
   6.4800000000000024E-002    -3.7355634849518538E-003
   6.5900000000000014E-002    -4.0450259111821651E-003
   6.7000000000000004E-002    -4.3657268397510052E-003
   6.8100000000000022E-002    -4.6961307525634766E-003
   6.9200000000000012E-002    -5.0344211049377918E-003
   7.0300000000000029E-002    -5.3784893825650215E-003
   7.1400000000000019E-002    -5.7259253226220608E-003
   7.2500000000000009E-002    -6.0740164481103420E-003
   7.3600000000000027E-002    -6.4197536557912827E-003
   7.4700000000000016E-002    -6.7598442547023296E-003
   7.5800000000000006E-002    -7.0907264016568661E-003
   7.6900000000000024E-002    -7.4085886590182781E-003
   7.8000000000000014E-002    -7.7093965373933315E-003
   7.9100000000000004E-002    -7.9889278858900070E-003
   8.0200000000000021E-002    -8.2428203895688057E-003
   8.1300000000000011E-002    -8.4666218608617783E-003
   8.2400000000000029E-002    -8.6558433249592781E-003
   8.3500000000000019E-002    -8.8060181587934494E-003
   8.4600000000000009E-002    -8.9127561077475548E-003
   8.5700000000000026E-002    -8.9718131348490715E-003
   8.6800000000000016E-002    -8.9791668578982353E-003
   8.7900000000000006E-002    -8.9310854673385620E-003
   8.9000000000000024E-002    -8.8241947814822197E-003
   9.0100000000000013E-002    -8.6555378511548042E-003
   9.1200000000000003E-002    -8.4226476028561592E-003
   9.2300000000000021E-002    -8.1236176192760468E-003
   9.3400000000000011E-002    -7.7571691945195198E-003
   9.4500000000000028E-002    -7.3227114044129848E-003
   9.5600000000000018E-002    -6.8203872069716454E-003
   9.6700000000000008E-002    -6.2511027790606022E-003
   9.7800000000000026E-002    -5.6165489368140697E-003
   9.8900000000000016E-002    -4.9192211590707302E-003
  0.10000000000000001         -4.1624242439866066E-003
  0.10110000000000002         -3.3502685837447643E-003
  0.10220000000000001         -2.4876447860151529E-003
  0.10330000000000003         -1.5801861882209778E-003
  0.10440000000000002         -6.3422182574868202E-004
  0.10550000000000001          3.4327644971199334E-004
  0.10660000000000003          1.3447543606162071E-003
  0.10770000000000002          2.3621523287147284E-003
  0.10880000000000001          3.3870001789182425E-003
  0.10990000000000003          4.4105257838964462E-003
  0.11100000000000002          5.4237609729170799E-003
  0.11210000000000001          6.4176470041275024E-003
  0.11320000000000002          7.3831388726830482E-003
  0.11430000000000001          8.3113163709640503E-003
  0.11540000000000003          9.1934958472847939E-003
  0.11650000000000002          1.0021348483860493E-002
  0.11760000000000001          1.0786997154355049E-002
  0.11870000000000003          1.1483105830848217E-002
  0.11980000000000002          1.2102955020964146E-002
  0.12090000000000001          1.2640519998967648E-002
  0.12200000000000003          1.3090535067021847E-002
  0.12310000000000001          1.3448552228510380E-002
  0.12420000000000003          1.3710970990359783E-002
  0.12530000000000002          1.3875069096684456E-002
  0.12640000000000001          1.3938995078206062E-002
  0.12750000000000003          1.3901773840188980E-002
  0.12860000000000002          1.3763290829956532E-002
  0.12970000000000001          1.3524266891181469E-002
  0.13080000000000003          1.3186212629079819E-002
  0.13190000000000002          1.2751363217830658E-002
  0.13300000000000001          1.2222614139318466E-002
  0.13410000000000000          1.1603462509810925E-002
  0.13520000000000004          1.0897945612668991E-002
  0.13630000000000003          1.0110574774444103E-002
  0.13740000000000002          9.2462552711367607E-003
  0.13850000000000001          8.3102071657776833E-003
  0.13960000000000000          7.3078903369605541E-003
  0.14070000000000005          6.2449472025036812E-003
  0.14180000000000004          5.1271580159664154E-003
  0.14290000000000003          3.9603966288268566E-003
  0.14400000000000002          2.7505741454660892E-003
  0.14510000000000001          1.5035894466564059E-003
  0.14620000000000000          2.2530643036589026E-004
  0.14730000000000004         -1.0784439509734511E-003
  0.14840000000000003         -2.4018494877964258E-003
  0.14950000000000002         -3.7391055375337601E-003
  0.15060000000000001         -5.0844158977270126E-003
  0.15170000000000000         -6.4319805242121220E-003
  0.15280000000000005         -7.7759693376719952E-003
  0.15390000000000004         -9.1104721650481224E-003
  0.15500000000000003         -1.0429447516798973E-002
  0.15610000000000002         -1.1726696975529194E-002
  0.15720000000000001         -1.2995842844247818E-002
  0.15830000000000000         -1.4230310916900635E-002
  0.15940000000000004         -1.5423302538692951E-002
  0.16050000000000003         -1.6567766666412354E-002
  0.16160000000000002         -1.7656372860074043E-002
  0.16270000000000001         -1.8681533634662628E-002
  0.16380000000000000         -1.9635429605841637E-002
  0.16490000000000005         -2.0510042086243629E-002
  0.16600000000000004         -2.1297203376889229E-002
  0.16710000000000003         -2.1988635882735252E-002
  0.16820000000000002         -2.2576032206416130E-002
  0.16930000000000001         -2.3051161319017410E-002
  0.17040000000000000         -2.3405985906720161E-002
  0.17150000000000004         -2.3632770404219627E-002
  0.17260000000000003         -2.3724203929305077E-002
  0.17370000000000002         -2.3673519492149353E-002
  0.17480000000000001         -2.3474633693695068E-002
  0.17590000000000000         -2.3122310638427734E-002
  0.17700000000000005         -2.2612314671278000E-002
  0.17810000000000004         -2.1941559389233589E-002
  0.17920000000000003         -2.1108200773596764E-002
  0.18030000000000002         -2.0111760124564171E-002
  0.18140000000000001         -1.8953235819935799E-002
  0.18250000000000000         -1.7635215073823929E-002
  0.18360000000000004         -1.6161955893039703E-002
  0.18470000000000003         -1.4539415016770363E-002
  0.18580000000000002         -1.2775257229804993E-002
  0.18690000000000001         -1.0878833010792732E-002
  0.18800000000000000         -8.8611552491784096E-003
  0.18910000000000005         -6.7348703742027283E-003
  0.19020000000000004         -4.5141736045479774E-003
  0.19130000000000003         -2.2146720439195633E-003
  0.19240000000000002          1.4679197920486331E-004
  0.19350000000000001          2.5523281656205654E-003
  0.19460000000000005          4.9831760115921497E-003
  0.19570000000000004          7.4198921211063862E-003
  0.19680000000000003          9.8425764590501785E-003
  0.19790000000000002          1.2231134809553623E-002
  0.19900000000000001          1.4565564692020416E-002
  0.20010000000000000          1.6826214268803596E-002
  0.20120000000000005          1.8994018435478210E-002
  0.20230000000000004          2.1050734445452690E-002
  0.20340000000000003          2.2979170083999634E-002
  0.20450000000000002          2.4763436987996101E-002
  0.20560000000000000          2.6389174163341522E-002
  0.20670000000000005          2.7843749150633812E-002
  0.20780000000000004          2.9116392135620117E-002
  0.20890000000000003          3.0198298394680023E-002
