 -0.12000000000000000          0.0000000000000000
 -0.11889999999999999          0.0000000000000000
 -0.11780000000000000          0.0000000000000000
 -0.11670000000000000          0.0000000000000000
 -0.11559999999999999          0.0000000000000000
 -0.11449999999999999          0.0000000000000000
 -0.11340000000000000         -3.9378747006309635E-017
 -0.11230000000000000         -1.9050821833999402E-016
 -0.11119999999999999          1.4723311977631460E-017
 -0.11009999999999999          2.1967342089248762E-015
 -0.10900000000000000          5.2250688483215530E-015
 -0.10790000000000000         -5.4889945738070996E-015
 -0.10679999999999999         -5.3176799579392545E-014
 -0.10569999999999999         -1.0413050359047576E-013
 -0.10460000000000000          2.9821427987609950E-014
 -0.10349999999999999          5.8846802214115868E-013
 -0.10239999999999999          1.2876018610705198E-012
 -0.10130000000000000          6.3865948120300775E-013
 -0.10020000000000000         -3.3250932389428112E-012
  -9.9099999999999994E-002    -9.5498210034294928E-012
  -9.7999999999999990E-002    -9.8796387737465352E-012
  -9.6899999999999986E-002     8.1537467749859260E-012
  -9.5799999999999996E-002     4.5249082258891349E-011
  -9.4699999999999993E-002     6.9528452439904243E-011
  -9.3599999999999989E-002     2.0763057939632290E-011
  -9.2499999999999999E-002    -1.3239921659025100E-010
  -9.1399999999999995E-002    -3.0500968417612739E-010
  -9.0299999999999991E-002    -2.7625907117467818E-010
  -8.9200000000000002E-002     1.5502499284281157E-010
  -8.8099999999999984E-002     8.7306406548748328E-010
  -8.6999999999999994E-002     1.2724274967013116E-009
  -8.5899999999999990E-002     5.5900184481316728E-010
  -8.4799999999999986E-002    -1.4407773862856743E-009
  -8.3699999999999997E-002    -3.5505509643485311E-009
  -8.2599999999999993E-002    -3.5464373659976900E-009
  -8.1499999999999989E-002     1.0583134368857827E-010
  -8.0399999999999999E-002     6.0978990745752526E-009
  -7.9299999999999995E-002     9.8772598988716709E-009
  -7.8199999999999992E-002     6.5032876861437217E-009
  -7.7100000000000002E-002    -4.5016608218872989E-009
  -7.5999999999999984E-002    -1.6441820349655245E-008
  -7.4899999999999994E-002    -1.8795759615386487E-008
  -7.3799999999999991E-002    -5.9269336105671755E-009
  -7.2699999999999987E-002     1.5536901543100612E-008
  -7.1599999999999997E-002     2.8796897311167413E-008
  -7.0499999999999993E-002     1.9955535890403553E-008
  -6.9399999999999989E-002    -7.3249371013162090E-009
  -6.8300000000000000E-002    -3.0146455998192323E-008
  -6.7199999999999996E-002    -2.3990928355033247E-008
  -6.6099999999999992E-002     1.1980725744820120E-008
  -6.5000000000000002E-002     4.5711818330573806E-008
  -6.3899999999999985E-002     3.4503855772527459E-008
  -6.2799999999999995E-002    -3.3092554474478675E-008
  -6.1699999999999991E-002    -1.1184499726368813E-007
  -6.0599999999999994E-002    -1.2255023307261581E-007
  -5.9499999999999990E-002    -1.7042623312590877E-008
  -5.8399999999999994E-002     1.6351575027329091E-007
  -5.7299999999999990E-002     2.9420218083942018E-007
  -5.6199999999999986E-002     2.4892119654396083E-007
  -5.5099999999999996E-002     6.1019136410322972E-009
  -5.3999999999999992E-002    -3.0911257908883272E-007
  -5.2899999999999989E-002    -4.9411886493544444E-007
  -5.1799999999999985E-002    -4.0970689951791428E-007
  -5.0699999999999995E-002    -8.6800383769514156E-008
  -4.9599999999999991E-002     2.8916176120219461E-007
  -4.8499999999999988E-002     5.0962017894562450E-007
  -4.7399999999999998E-002     4.8734943902672967E-007
  -4.6299999999999994E-002     2.9804334644722985E-007
  -4.5199999999999990E-002     8.9416431592326262E-008
  -4.4099999999999986E-002    -5.7342735004795031E-008
  -4.2999999999999997E-002    -1.8697883774621005E-007
  -4.1899999999999993E-002    -3.9459931144847360E-007
  -4.0799999999999989E-002    -6.8366813366083079E-007
  -3.9699999999999985E-002    -8.9392261770626646E-007
  -3.8599999999999995E-002    -7.8334971931326436E-007
  -3.7499999999999992E-002    -2.1717232812079601E-007
  -3.6399999999999988E-002     6.8198897906768252E-007
  -3.5299999999999984E-002     1.5498927723456291E-006
  -3.4199999999999994E-002     1.9672277176141506E-006
  -3.3099999999999991E-002     1.6947225276453537E-006
  -3.1999999999999987E-002     8.0124527812586166E-007
  -3.0899999999999997E-002    -3.9097477610994247E-007
  -2.9799999999999993E-002    -1.4941865629225504E-006
  -2.8699999999999989E-002    -2.2465787878900301E-006
  -2.7599999999999986E-002    -2.5911201646522386E-006
  -2.6499999999999996E-002    -2.6099996830453165E-006
  -2.5399999999999992E-002    -2.3777449769113446E-006
  -2.4299999999999988E-002    -1.8449486560712103E-006
  -2.3199999999999985E-002    -8.4123524857204757E-007
  -2.2099999999999995E-002     7.9932044627639698E-007
  -2.0999999999999991E-002     3.0893315852154046E-006
  -1.9899999999999987E-002     5.8638106565922499E-006
  -1.8799999999999983E-002     8.9661789388628677E-006
  -1.7699999999999994E-002     1.2567299563670531E-005
  -1.6599999999999990E-002     1.7383041267748922E-005
  -1.5499999999999986E-002     2.4550985472160392E-005
  -1.4399999999999996E-002     3.5136428778059781E-005
  -1.3299999999999992E-002     4.9546113586984575E-005
  -1.2199999999999989E-002     6.7290740844327956E-005
  -1.1099999999999985E-002     8.7372260168194771E-005
  -9.9999999999999950E-003     1.0914322774624452E-004
  -8.8999999999999913E-003     1.3310366193763912E-004
  -7.7999999999999875E-003     1.6109069110825658E-004
  -6.6999999999999837E-003     1.9573348981793970E-004
  -5.5999999999999939E-003     2.3959139070939273E-004
  -4.4999999999999901E-003     2.9463312239386141E-004
  -3.3999999999999864E-003     3.6244437796995044E-004
  -2.2999999999999826E-003     4.4497833005152643E-004
  -1.1999999999999927E-003     5.4525083396583796E-004
  -9.9999999999988987E-005     6.6746119409799576E-004
   1.0000000000000148E-003     8.1651017535477877E-004
   2.1000000000000185E-003     9.9737523123621941E-004
   3.2000000000000084E-003     1.2149001704528928E-003
   4.3000000000000121E-003     1.4742055209353566E-003
   5.4000000000000159E-003     1.7814513994380832E-003
   6.5000000000000058E-003     2.1444687154144049E-003
   7.6000000000000234E-003     2.5729371700435877E-003
   8.7000000000000133E-003     3.0781642999500036E-003
   9.8000000000000032E-003     3.6727772094309330E-003
   1.0900000000000021E-002     4.3706344440579414E-003
   1.2000000000000011E-002     5.1870378665626049E-003
   1.3100000000000001E-002     6.1390846967697144E-003
   1.4200000000000018E-002     7.2459513321518898E-003
   1.5300000000000008E-002     8.5289515554904938E-003
   1.6400000000000026E-002     1.0011357255280018E-002
   1.7500000000000016E-002     1.1718133464455605E-002
   1.8600000000000005E-002     1.3675808906555176E-002
   1.9700000000000023E-002     1.5912646427750587E-002
   2.0800000000000013E-002     1.8459089100360870E-002
   2.1900000000000003E-002     2.1348211914300919E-002
   2.3000000000000020E-002     2.4615796282887459E-002
   2.4100000000000010E-002     2.8299726545810699E-002
   2.5200000000000000E-002     3.2438866794109344E-002
   2.6300000000000018E-002     3.7071879953145981E-002
   2.7400000000000008E-002     4.2236600071191788E-002
   2.8500000000000025E-002     4.7970026731491089E-002
   2.9600000000000015E-002     5.4308649152517319E-002
   3.0700000000000005E-002     6.1288539320230484E-002
   3.1800000000000023E-002     6.8944498896598816E-002
   3.2900000000000013E-002     7.7308632433414459E-002
   3.4000000000000002E-002     8.6408622562885284E-002
   3.5100000000000020E-002     9.6265994012355804E-002
   3.6200000000000010E-002    0.10689470171928406
   3.7300000000000028E-002    0.11829973012208939
   3.8400000000000017E-002    0.13047571480274200
   3.9500000000000007E-002    0.14340583980083466
   4.0600000000000025E-002    0.15706074237823486
   4.1700000000000015E-002    0.17139777541160583
   4.2800000000000005E-002    0.18636009097099304
   4.3900000000000022E-002    0.20187500119209290
   4.5000000000000012E-002    0.21785269677639008
   4.6100000000000002E-002    0.23418451845645905
   4.7200000000000020E-002    0.25074169039726257
   4.8300000000000010E-002    0.26737502217292786
   4.9400000000000027E-002    0.28391453623771667
   5.0500000000000017E-002    0.30016970634460449
   5.1600000000000007E-002    0.31593051552772522
   5.2700000000000025E-002    0.33096933364868164
   5.3800000000000014E-002    0.34504270553588867
   5.4900000000000004E-002    0.35789349675178528
   5.6000000000000022E-002    0.36925345659255981
   5.7100000000000012E-002    0.37884438037872314
   5.8200000000000002E-002    0.38638055324554443
   5.9300000000000019E-002    0.39157244563102722
   6.0400000000000009E-002    0.39413189888000488
   6.1500000000000027E-002    0.39377731084823608
   6.2600000000000017E-002    0.39023935794830322
   6.3700000000000007E-002    0.38326692581176758
   6.4800000000000024E-002    0.37263220548629761
   6.5900000000000014E-002    0.35813620686531067
   6.7000000000000004E-002    0.33961492776870728
   6.8100000000000022E-002    0.31694400310516357
   6.9200000000000012E-002    0.29004174470901489
   7.0300000000000029E-002    0.25887483358383179
   7.1400000000000019E-002    0.22346414625644684
   7.2500000000000009E-002    0.18388766050338745
   7.3600000000000027E-002    0.14028197526931763
   7.4700000000000016E-002     9.2845976352691650E-002
   7.5800000000000006E-002     4.1841320693492889E-002
   7.6900000000000024E-002    -1.2408323585987091E-002
   7.8000000000000014E-002    -6.9517672061920166E-002
   7.9100000000000004E-002   -0.12904310226440430
   8.0200000000000021E-002   -0.19048695266246796
   8.1300000000000011E-002   -0.25330311059951782
   8.2400000000000029E-002   -0.31690505146980286
   8.3500000000000019E-002   -0.38067328929901123
   8.4600000000000009E-002   -0.44396314024925232
   8.5700000000000026E-002   -0.50611162185668945
   8.6800000000000016E-002   -0.56644690036773682
   8.7900000000000006E-002   -0.62430119514465332
   8.9000000000000024E-002   -0.67902284860610962
   9.0100000000000013E-002   -0.72998911142349243
   9.1200000000000003E-002   -0.77661705017089844
   9.2300000000000021E-002   -0.81837183237075806
   9.3400000000000011E-002   -0.85477501153945923
   9.4500000000000028E-002   -0.88541513681411743
   9.5600000000000018E-002   -0.90995913743972778
   9.6700000000000008E-002   -0.92816221714019775
   9.7800000000000026E-002   -0.93987303972244263
   9.8900000000000016E-002   -0.94503527879714966
  0.10000000000000001        -0.94368726015090942
  0.10110000000000002        -0.93596303462982178
  0.10220000000000001        -0.92209368944168091
  0.10330000000000003        -0.90240699052810669
  0.10440000000000002        -0.87732344865798950
  0.10550000000000001        -0.84734636545181274
  0.10660000000000003        -0.81305211782455444
  0.10770000000000002        -0.77508002519607544
  0.10880000000000001        -0.73412209749221802
  0.10990000000000003        -0.69091355800628662
  0.11100000000000002        -0.64621901512145996
  0.11210000000000001        -0.60081648826599121
  0.11320000000000002        -0.55548071861267090
  0.11430000000000001        -0.51096707582473755
  0.11540000000000003        -0.46799761056900024
  0.11650000000000002        -0.42724949121475220
  0.11760000000000001        -0.38934266567230225
  0.11870000000000003        -0.35482361912727356
  0.11980000000000002        -0.32415375113487244
  0.12090000000000001        -0.29769831895828247
  0.12200000000000003        -0.27571853995323181
  0.12310000000000001        -0.25836732983589172
  0.12420000000000003        -0.24568563699722290
  0.12530000000000002        -0.23759384453296661
  0.12640000000000001        -0.23388864099979401
  0.12750000000000003        -0.23424941301345825
  0.12860000000000002        -0.23824265599250793
  0.12970000000000001        -0.24533258378505707
  0.13080000000000003        -0.25488910079002380
  0.13190000000000002        -0.26619020104408264
  0.13300000000000001        -0.27843195199966431
  0.13410000000000000        -0.29074454307556152
  0.13520000000000004        -0.30221074819564819
  0.13630000000000003        -0.31189021468162537
  0.13740000000000002        -0.31883698701858521
  0.13850000000000001        -0.32210776209831238
  0.13960000000000000        -0.32077679038047791
  0.14070000000000005        -0.31395721435546875
  0.14180000000000004        -0.30082443356513977
  0.14290000000000003        -0.28064250946044922
  0.14400000000000002        -0.25278234481811523
  0.14510000000000001        -0.21673099696636200
  0.14620000000000000        -0.17210176587104797
  0.14730000000000004        -0.11864333599805832
  0.14840000000000003         -5.6253984570503235E-002
  0.14950000000000002          1.5000231564044952E-002
  0.15060000000000001          9.4875767827033997E-002
  0.15170000000000000         0.18295496702194214
  0.15280000000000005         0.27865552902221680
  0.15390000000000004         0.38123425841331482
  0.15500000000000003         0.48978900909423828
  0.15610000000000002         0.60326403379440308
  0.15720000000000001         0.72046083211898804
  0.15830000000000000         0.84005618095397949
  0.15940000000000004         0.96062558889389038
  0.16050000000000003          1.0806677341461182
  0.16160000000000002          1.1986225843429565
  0.16270000000000001          1.3128904104232788
  0.16380000000000000          1.4218602180480957
  0.16490000000000005          1.5239403247833252
  0.16600000000000004          1.6175882816314697
  0.16710000000000003          1.7013372182846069
  0.16820000000000002          1.7738180160522461
  0.16930000000000001          1.8337807655334473
  0.17040000000000000          1.8801186084747314
  0.17150000000000004          1.9118945598602295
  0.17260000000000003          1.9283609390258789
  0.17370000000000002          1.9289727210998535
  0.17480000000000001          1.9133944511413574
  0.17590000000000000          1.8815053701400757
  0.17700000000000005          1.8334050178527832
  0.17810000000000004          1.7694170475006104
  0.17920000000000003          1.6900883913040161
  0.18030000000000002          1.5961800813674927
  0.18140000000000001          1.4886517524719238
  0.18250000000000000          1.3686414957046509
  0.18360000000000004          1.2374453544616699
  0.18470000000000003          1.0965024232864380
  0.18580000000000002         0.94737964868545532
  0.18690000000000001         0.79174363613128662
  0.18800000000000000         0.63132888078689575
  0.18910000000000005         0.46790778636932373
  0.19020000000000004         0.30325713753700256
  0.19130000000000003         0.13913634419441223
  0.19240000000000002         -2.2727191448211670E-002
  0.19350000000000001        -0.18066218495368958
  0.19460000000000005        -0.33308625221252441
  0.19570000000000004        -0.47852969169616699
  0.19680000000000003        -0.61565458774566650
  0.19790000000000002        -0.74327027797698975
  0.19900000000000001        -0.86033940315246582
  0.20010000000000000        -0.96598291397094727
  0.20120000000000005         -1.0594871044158936
  0.20230000000000004         -1.1403136253356934
  0.20340000000000003         -1.2081043720245361
  0.20450000000000002         -1.2626770734786987
  0.20560000000000000         -1.3040136098861694
  0.20670000000000005         -1.3322480916976929
  0.20780000000000004         -1.3476570844650269
  0.20890000000000003         -1.3506536483764648
