 -0.12000000000000000          0.0000000000000000
 -0.11889999999999999          0.0000000000000000
 -0.11780000000000000          0.0000000000000000
 -0.11670000000000000          0.0000000000000000
 -0.11559999999999999          0.0000000000000000
 -0.11449999999999999          0.0000000000000000
 -0.11340000000000000          0.0000000000000000
 -0.11230000000000000          0.0000000000000000
 -0.11119999999999999          0.0000000000000000
 -0.11009999999999999          0.0000000000000000
 -0.10900000000000000          0.0000000000000000
 -0.10790000000000000          0.0000000000000000
 -0.10679999999999999          0.0000000000000000
 -0.10569999999999999          1.6218098398964287E-036
 -0.10460000000000000         -2.0851841311143235E-036
 -0.10349999999999999         -2.0620153986168085E-035
 -0.10239999999999999         -3.1741134105538307E-035
 -0.10130000000000000          4.9094503194993606E-034
 -0.10020000000000000          2.5557405321036243E-033
  -9.9099999999999994E-002    -1.0088816182466596E-032
  -9.7999999999999990E-002    -4.9305111375042651E-032
  -9.6899999999999986E-002     2.9153417762328290E-032
  -9.5799999999999996E-002     1.6834734199821115E-031
  -9.4699999999999993E-002     1.8607048191454193E-031
  -9.3599999999999989E-002     8.2322837511320620E-032
  -9.2499999999999999E-002    -1.4790741364419211E-030
  -9.1399999999999995E-002    -2.0687049240008225E-030
  -9.0299999999999991E-002     4.1440279752363225E-030
  -8.9200000000000002E-002     3.5622680345397926E-029
  -8.8099999999999984E-002     8.7953579348863954E-030
  -8.6999999999999994E-002    -1.8031961466359597E-029
  -8.5899999999999990E-002     3.2882021849224127E-029
  -8.4799999999999986E-002     2.3927859555213960E-028
  -8.3699999999999997E-002     2.5909607764214398E-028
  -8.2599999999999993E-002     3.0141393445705710E-029
  -8.1499999999999989E-002    -1.9402184186446448E-027
  -8.0399999999999999E-002    -4.4081227679379371E-027
  -7.9299999999999995E-002    -4.8858496906431910E-027
  -7.8199999999999992E-002    -3.3733995719463952E-027
  -7.7100000000000002E-002    -1.8609494532495994E-027
  -7.5999999999999984E-002     2.7513983096935780E-026
  -7.4899999999999994E-002     6.4849623427543370E-026
  -7.3799999999999991E-002     3.0538882563957394E-026
  -7.2699999999999987E-002     1.2149560342703749E-026
  -7.1599999999999997E-002    -6.2397611081779183E-027
  -7.0499999999999993E-002    -1.8384326975275487E-025
  -6.9399999999999989E-002     2.0667243596368848E-026
  -6.8300000000000000E-002     1.6149209162062697E-025
  -6.7199999999999996E-002     5.5705965024815403E-025
  -6.6099999999999992E-002     6.9788448594646052E-025
  -6.5000000000000002E-002     5.8396661104149807E-025
  -6.3899999999999985E-002    -8.0366471827219589E-025
  -6.2799999999999995E-002    -4.2292375351968150E-024
  -6.1699999999999991E-002    -7.6548104014252407E-024
  -6.0599999999999994E-002    -9.0424419772579675E-024
  -5.9499999999999990E-002    -2.2783072082165411E-024
  -5.8399999999999994E-002     6.5237696400814893E-024
  -5.7299999999999990E-002     5.1361388531096677E-024
  -5.6199999999999986E-002     1.1900274411011999E-023
  -5.5099999999999996E-002     2.3608776735964771E-024
  -5.3999999999999992E-002    -7.1785198526799504E-024
  -5.2899999999999989E-002     1.5889148000540235E-023
  -5.1799999999999985E-002     5.5260343810343296E-023
  -5.0699999999999995E-002     6.2024478973815175E-023
  -4.9599999999999991E-002     5.2485080658677842E-023
  -4.8499999999999988E-002     4.2945685498984130E-023
  -4.7399999999999998E-002     3.3406290339290418E-023
  -4.6299999999999994E-002    -4.1347232423952898E-023
  -4.5199999999999990E-002    -8.3493681919090550E-023
  -4.4099999999999986E-002    -2.7818946319791036E-023
  -4.2999999999999997E-002     9.3069923193945325E-023
  -4.1899999999999993E-002     6.0524357095075380E-022
  -4.0799999999999989E-002     5.3049005134295410E-022
  -3.9699999999999985E-002    -1.3119064825122825E-022
  -3.8599999999999995E-002    -1.1841559998707379E-021
  -3.7499999999999992E-002    -2.7588345490234871E-021
  -3.6399999999999988E-002     1.0104770508288163E-022
  -3.5299999999999984E-002     6.0912085890306107E-021
  -3.4199999999999994E-002     9.4728037125040825E-021
  -3.3099999999999991E-002     3.9852774314077101E-021
  -3.1999999999999987E-002    -9.8496571829430118E-021
  -3.0899999999999997E-002    -2.0554313773297548E-020
  -2.9799999999999993E-002    -1.2477300604087840E-020
  -2.8699999999999989E-002     6.0339743953285469E-021
  -2.7599999999999986E-002     2.3501823252113944E-020
  -2.6499999999999996E-002     1.9579442647312592E-020
  -2.5399999999999992E-002    -9.3851653806325097E-021
  -2.4299999999999988E-002    -4.8784033219300373E-020
  -2.3199999999999985E-002    -6.3140680097173023E-020
  -2.2099999999999995E-002    -2.3706479367886928E-021
  -2.0999999999999991E-002     1.1474440077243047E-019
  -1.9899999999999987E-002     1.7134073159346511E-019
  -1.8799999999999983E-002     4.0120359972095903E-020
  -1.7699999999999994E-002    -2.5804819447023164E-019
  -1.6599999999999990E-002    -5.1030607295380379E-019
  -1.5499999999999986E-002    -3.9110428020366062E-019
  -1.4399999999999996E-002     2.2894208685875168E-019
  -1.3299999999999992E-002     9.8254694847914236E-019
  -1.2199999999999989E-002     1.1351385070404479E-018
  -1.1099999999999985E-002     2.8186732549779063E-019
  -9.9999999999999950E-003    -1.2725863531398623E-018
  -8.8999999999999913E-003    -2.4597539003244363E-018
  -7.7999999999999875E-003    -2.0776084514438195E-018
  -6.6999999999999837E-003     2.4113565966597243E-019
  -5.5999999999999939E-003     3.3278412825052020E-018
  -4.4999999999999901E-003     4.6782862175967712E-018
  -3.3999999999999864E-003     2.5562093636027135E-018
  -2.2999999999999826E-003    -2.1702588839043528E-018
  -1.1999999999999927E-003    -6.2122393104268513E-018
  -9.9999999999988987E-005    -5.8801779932750953E-018
   1.0000000000000148E-003    -6.0645098161085559E-019
   2.1000000000000185E-003     6.5370954708529642E-018
   3.2000000000000084E-003     9.7406654808264152E-018
   4.3000000000000121E-003     4.3964893575474124E-018
   5.4000000000000159E-003    -7.0913805139283163E-018
   6.5000000000000058E-003    -1.7377225020056794E-017
   7.6000000000000234E-003    -1.6711268526335251E-017
   8.7000000000000133E-003    -1.6209894504732160E-018
   9.8000000000000032E-003     2.0147214663480468E-017
   1.0900000000000021E-002     3.4169024542107757E-017
   1.2000000000000011E-002     2.6554350547524307E-017
   1.3100000000000001E-002    -5.3679778318149099E-018
   1.4200000000000018E-002    -4.6772960824035452E-017
   1.5300000000000008E-002    -7.0681782631823263E-017
   1.6400000000000026E-002    -5.0783403748933448E-017
   1.7500000000000016E-002     2.0935688186449689E-017
   1.8600000000000005E-002     1.1188721574589090E-016
   1.9700000000000023E-002     1.6143561237050308E-016
   2.0800000000000013E-002     1.1321916182055849E-016
   2.1900000000000003E-002    -4.3981064129268923E-017
   2.3000000000000020E-002    -2.3857765573403078E-016
   2.4100000000000010E-002    -3.2365626546443328E-016
   2.5200000000000000E-002    -1.7580876886867349E-016
   2.6300000000000018E-002     1.8039002597323718E-016
   2.7400000000000008E-002     5.1949335336406131E-016
   2.8500000000000025E-002     5.3912466540565981E-016
   2.9600000000000015E-002     1.1534164109792055E-016
   3.0700000000000005E-002    -5.1572426850701649E-016
   3.1800000000000023E-002    -8.5616692704101709E-016
   3.2900000000000013E-002    -4.8287273092246889E-016
   3.4000000000000002E-002     4.7273681703826871E-016
   3.5100000000000020E-002     1.2792950360618512E-015
   3.6200000000000010E-002     1.0772192328683400E-015
   3.7300000000000028E-002    -3.0444555822070575E-016
   3.8400000000000017E-002    -1.9724600015244348E-015
   3.9500000000000007E-002    -2.4384477659180996E-015
   4.0600000000000025E-002    -8.1878524549631668E-016
   4.1700000000000015E-002     2.1642426603429117E-015
   4.2800000000000005E-002     4.4207119620487661E-015
   4.3900000000000022E-002     3.9504502811614928E-015
   4.5000000000000012E-002     4.3932793177442779E-016
   4.6100000000000002E-002    -4.2300135054027747E-015
   4.7200000000000020E-002    -7.1043287558684130E-015
   4.8300000000000010E-002    -6.2518256698407444E-015
   4.9400000000000027E-002    -1.8520078930183738E-015
   5.0500000000000017E-002     4.1676079294973405E-015
   5.1600000000000007E-002     9.2384231842779392E-015
   5.2700000000000025E-002     1.0975617455361887E-014
   5.3800000000000014E-002     7.5499731182096345E-015
   5.4900000000000004E-002    -1.1923693386410627E-015
   5.6000000000000022E-002    -1.2110111362057668E-014
   5.7100000000000012E-002    -1.8322318759856487E-014
   5.8200000000000002E-002    -1.3046356360415633E-014
   5.9300000000000019E-002     3.7947080272157391E-015
   6.0400000000000009E-002     2.0746892973131509E-014
   6.1500000000000027E-002     2.0415538766363310E-014
   6.2600000000000017E-002    -3.8666029132292633E-015
   6.3700000000000007E-002    -3.4508267960807124E-014
   6.4800000000000024E-002    -3.5882450168719243E-014
   6.5900000000000014E-002     1.4252084890942554E-014
   6.7000000000000004E-002     8.9123803823087933E-014
   6.8100000000000022E-002     1.1429037241345724E-013
   6.9200000000000012E-002     2.7131010789773272E-014
   7.0300000000000029E-002    -1.4567677847441424E-013
   7.1400000000000019E-002    -2.7547232615658668E-013
   7.2500000000000009E-002    -2.1591818502413040E-013
   7.3600000000000027E-002     6.6697928918172528E-014
   7.4700000000000016E-002     4.0976372143487760E-013
   7.5800000000000006E-002     5.2559627657100538E-013
   7.6900000000000024E-002     2.4260807121936900E-013
   7.8000000000000014E-002    -3.1240358607312335E-013
   7.9100000000000004E-002    -7.4227624914657842E-013
   8.0200000000000021E-002    -6.6885765589302926E-013
   8.1300000000000011E-002    -5.5495023723942105E-014
   8.2400000000000029E-002     6.7274934538105735E-013
   8.3500000000000019E-002     9.1794345562223878E-013
   8.4600000000000009E-002     4.1038881819742412E-013
   8.5700000000000026E-002    -4.5384621625080279E-013
   8.6800000000000016E-002    -8.6840137945159990E-013
   8.7900000000000006E-002    -4.0329089893986758E-013
   8.9000000000000024E-002     5.1696998461595034E-013
   9.0100000000000013E-002     1.0236566368865274E-012
   9.1200000000000003E-002     5.8940748332361736E-013
   9.2300000000000021E-002    -4.2253258726067389E-013
   9.3400000000000011E-002    -1.3775789320033538E-012
   9.4500000000000028E-002    -1.6017587646868781E-012
   9.5600000000000018E-002    -1.1694717460056236E-012
   9.6700000000000008E-002     2.7815092893887505E-013
   9.7800000000000026E-002     1.3143875094226432E-012
   9.8900000000000016E-002     1.8079448528551811E-012
  0.10000000000000001          1.1111088178000772E-012
  0.10110000000000002         -4.9602802334319795E-013
  0.10220000000000001         -2.6283385190506436E-012
  0.10330000000000003         -4.4455446268631960E-012
  0.10440000000000002         -5.7025655898768068E-012
  0.10550000000000001         -4.0886382821070377E-012
  0.10660000000000003          3.6173019874602419E-012
  0.10770000000000002          1.5244538270620112E-011
  0.10880000000000001          1.7558697551489644E-011
  0.10990000000000003          3.4174199928238558E-012
  0.11100000000000002         -1.5905568528928882E-011
  0.11210000000000001         -2.5145226179024149E-011
  0.11320000000000002         -1.3097850061483118E-011
  0.11430000000000001          9.4529991473413233E-012
  0.11540000000000003          2.3881164407102418E-011
  0.11650000000000002          1.4221369741551637E-011
  0.11760000000000001         -2.4287957062218979E-011
  0.11870000000000003         -5.4954693573527891E-011
  0.11980000000000002         -2.2880697336802314E-011
  0.12090000000000001          6.2971072800621641E-011
  0.12200000000000003          1.3537838905453015E-010
  0.12310000000000001          1.2095703605385921E-010
  0.12420000000000003         -3.2606105315746703E-012
  0.12530000000000002         -1.5212639481454460E-010
  0.12640000000000001         -2.4945512322460672E-010
  0.12750000000000003         -2.4707091927922420E-010
  0.12860000000000002         -1.5841820910633686E-010
  0.12970000000000001         -1.9348833299459578E-011
  0.13080000000000003          1.1187793053091255E-010
  0.13190000000000002          1.2210470134998985E-010
  0.13300000000000001         -4.5807392601293628E-011
  0.13410000000000000         -1.5770100503242901E-010
  0.13520000000000004         -5.6724264174690120E-011
  0.13630000000000003          1.8541912449876463E-010
  0.13740000000000002          3.3121069775710055E-010
  0.13850000000000001          2.7533561541837059E-010
  0.13960000000000000          4.4682778310711768E-011
  0.14070000000000005         -8.5136744876201931E-011
  0.14180000000000004          4.2728875992992243E-011
  0.14290000000000003          3.0503893855282627E-010
  0.14400000000000002          4.0601572104392858E-010
  0.14510000000000001         -7.5600040116974299E-011
  0.14620000000000000         -8.5299356467061216E-010
  0.14730000000000004         -1.2225722656467042E-009
  0.14840000000000003         -8.3029927377964441E-010
  0.14950000000000002          6.8381050821741951E-011
  0.15060000000000001          7.5643175057038547E-010
  0.15170000000000000          1.0187417576190683E-009
  0.15280000000000005          9.0908891525742774E-010
  0.15390000000000004          5.8432503280414494E-010
  0.15500000000000003          3.8952407965808789E-010
  0.15610000000000002          3.7846381584216715E-010
  0.15720000000000001          2.9569985349198191E-010
  0.15830000000000000          1.0089888646813705E-010
  0.15940000000000004         -5.3308724101697180E-010
  0.16050000000000003         -9.6540664351607575E-010
  0.16160000000000002         -9.9439279033219918E-010
  0.16270000000000001         -2.8393462581099982E-010
  0.16380000000000000          6.5507904656314508E-010
  0.16490000000000005          9.8012986615714226E-010
  0.16600000000000004          6.6096789153036184E-010
  0.16710000000000003          7.7678585785889709E-011
  0.16820000000000002          3.1029886993216849E-010
  0.16930000000000001          1.3383819608137060E-009
  0.17040000000000000          2.4023167899400732E-009
  0.17150000000000004          1.9627148795109406E-009
  0.17260000000000003         -2.3362750622979434E-010
  0.17370000000000002         -2.6405995168232721E-009
  0.17480000000000001         -3.1967195557314199E-009
  0.17590000000000000         -1.3776546570198889E-009
  0.17700000000000005          1.0419287654883647E-009
  0.17810000000000004          1.7854382416970793E-009
  0.17920000000000003          3.7783709494476625E-010
  0.18030000000000002         -1.8364306741958103E-009
  0.18140000000000001         -2.7152173842637239E-009
  0.18250000000000000         -1.5056338398267144E-009
  0.18360000000000004          2.1483842482794557E-010
  0.18470000000000003          3.2197761123953228E-010
  0.18580000000000002         -1.5785865947748334E-009
  0.18690000000000001         -3.2998914711868110E-009
  0.18800000000000000         -2.4398636444544763E-009
  0.18910000000000005          1.2345342526032255E-009
  0.19020000000000004          5.2136730488427929E-009
  0.19130000000000003          6.2708860326665672E-009
  0.19240000000000002          3.5815812537975944E-009
  0.19350000000000001         -5.2387155724531453E-010
  0.19460000000000005         -2.7471023233971437E-009
  0.19570000000000004         -1.8870740525755991E-009
  0.19680000000000003          8.1932444162546858E-010
  0.19790000000000002          2.3874267007784056E-009
  0.19900000000000001          1.2487146872075527E-009
  0.20010000000000000         -1.1537750754797571E-009
  0.20120000000000005         -1.7547093777992018E-009
  0.20230000000000004          5.7524468521918948E-010
  0.20340000000000003          3.2637175184646594E-009
  0.20450000000000002          3.4201534937494671E-009
  0.20560000000000000          4.7988646389995893E-010
  0.20670000000000005         -2.7830473481316176E-009
  0.20780000000000004         -3.1688707213817224E-009
  0.20890000000000003         -5.2185178400776522E-010
