 -0.12000000000000000          0.0000000000000000
 -0.11889999999999999          0.0000000000000000
 -0.11780000000000000          0.0000000000000000
 -0.11670000000000000          0.0000000000000000
 -0.11559999999999999          0.0000000000000000
 -0.11449999999999999          0.0000000000000000
 -0.11340000000000000          0.0000000000000000
 -0.11230000000000000          0.0000000000000000
 -0.11119999999999999          0.0000000000000000
 -0.11009999999999999          0.0000000000000000
 -0.10900000000000000          0.0000000000000000
 -0.10790000000000000          0.0000000000000000
 -0.10679999999999999          0.0000000000000000
 -0.10569999999999999          0.0000000000000000
 -0.10460000000000000          0.0000000000000000
 -0.10349999999999999          0.0000000000000000
 -0.10239999999999999          0.0000000000000000
 -0.10130000000000000          0.0000000000000000
 -0.10020000000000000          0.0000000000000000
  -9.9099999999999994E-002    -1.7776758813249019E-038
  -9.7999999999999990E-002    -3.5553517626498038E-038
  -9.6899999999999986E-002     5.4435053142528421E-038
  -9.5799999999999996E-002     1.5727913882586768E-037
  -9.4699999999999993E-002     9.9288726914197134E-037
  -9.3599999999999989E-002     5.3123383521643854E-036
  -9.2499999999999999E-002     1.5391058054087595E-035
  -9.1399999999999995E-002    -9.2915208956179969E-036
  -9.0299999999999991E-002    -8.0048249513994763E-035
  -8.9200000000000002E-002    -2.2485269202261426E-034
  -8.8099999999999984E-002    -1.4228027502009499E-035
  -8.6999999999999994E-002     1.2495200055393672E-033
  -8.5899999999999990E-002     2.6185804397176683E-033
  -8.4799999999999986E-002     2.1973312025119550E-033
  -8.3699999999999997E-002    -3.3016477173530221E-034
  -8.2599999999999993E-002     1.3548325444295359E-033
  -8.1499999999999989E-002     4.7248271767592121E-033
  -8.0399999999999999E-002    -1.0311499922108050E-031
  -7.9299999999999995E-002    -5.0751432571328288E-031
  -7.8199999999999992E-002    -2.1095482745563014E-031
  -7.7100000000000002E-002    -4.9195096858749193E-032
  -7.5999999999999984E-002    -2.6487475332784847E-031
  -7.4899999999999994E-002     5.1271166583996335E-030
  -7.3799999999999991E-002     8.5779911619052220E-030
  -7.2699999999999987E-002     1.6762417787358528E-030
  -7.1599999999999997E-002    -1.0401818983533707E-029
  -7.0499999999999993E-002    -5.8714062784928330E-029
  -6.9399999999999989E-002    -7.9419314319860168E-029
  -6.8300000000000000E-002     1.0692790736480884E-028
  -6.7199999999999996E-002     2.7256988353307709E-028
  -6.6099999999999992E-002     3.8299786764525592E-028
  -6.5000000000000002E-002    -2.2435600886054120E-028
  -6.3899999999999985E-002    -1.3838498059272325E-027
  -6.2799999999999995E-002    -3.8999792484349868E-028
  -6.1699999999999991E-002     4.5792612879821758E-027
  -6.0599999999999994E-002     5.4626853534726009E-027
  -5.9499999999999990E-002    -4.2549770558061418E-027
  -5.8399999999999994E-002    -9.5555199080047368E-027
  -5.7299999999999990E-002    -6.0218240312290253E-027
  -5.6199999999999986E-002    -1.1322367268613609E-026
  -5.5099999999999996E-002    -4.2549770558061418E-027
  -5.3999999999999992E-002     2.4014586876911639E-026
  -5.2899999999999989E-002     3.1081976319347129E-026
  -5.1799999999999985E-002    -4.2549785965500973E-027
  -5.0699999999999995E-002    -3.2524544070011834E-026
  -4.9599999999999991E-002    -2.8695061946447186E-025
  -4.8499999999999988E-002    -5.6964627111760131E-025
  -4.7399999999999998E-002    -4.8483756083052050E-025
  -4.6299999999999994E-002     1.9363199820660952E-025
  -4.5199999999999990E-002     8.7210160654754612E-025
  -4.4099999999999986E-002     2.0028843117676771E-024
  -4.2999999999999997E-002     3.4729017595285181E-024
  -4.1899999999999993E-002     2.5682759108967754E-024
  -4.0799999999999989E-002    -3.7641062128167811E-024
  -3.9699999999999985E-002    -1.0548801063630983E-023
  -3.8599999999999995E-002    -2.4071672426539408E-024
  -3.7499999999999992E-002     1.2971474945098853E-023
  -3.6399999999999988E-002     1.6589978339625824E-023
  -3.5299999999999984E-002     1.4780725853501433E-023
  -3.4199999999999994E-002     2.5636237614804156E-023
  -3.3099999999999991E-002     3.0670596450630851E-025
  -3.1999999999999987E-002    -6.4826367758753648E-023
  -3.0899999999999997E-002    -9.0155896253607874E-023
  -2.9799999999999993E-002    -2.8641324347153078E-023
  -2.8699999999999989E-002     1.1609884298836196E-022
  -2.7599999999999986E-002     2.4636499674576911E-022
  -2.6499999999999996E-002     1.7399492254434246E-022
  -2.5399999999999992E-002    -4.3115331614373719E-023
  -2.4299999999999988E-002    -1.4443345190467787E-022
  -2.3199999999999985E-002    -8.6537384970471851E-023
  -2.2099999999999995E-002     3.0671543083717116E-025
  -2.0999999999999991E-002     2.0294294970055822E-022
  -1.9899999999999987E-002     4.9242328437158830E-022
  -1.8799999999999983E-002     7.2400760259551029E-022
  -1.7699999999999994E-002     2.6083906712186217E-022
  -1.6599999999999990E-002    -1.7076271329104954E-021
  -1.5499999999999986E-002    -3.3287169565811659E-021
  -1.4399999999999996E-002    -2.4023798856338697E-021
  -1.3299999999999992E-002     1.0713842818797850E-021
  -1.2199999999999989E-002     7.3241592583385450E-021
  -1.1099999999999985E-002     9.4084169106634925E-021
  -9.9999999999999950E-003    -7.8129147560194135E-022
  -8.8999999999999913E-003    -1.7455359156550057E-020
  -7.7999999999999875E-003    -2.8571403200124045E-020
  -6.6999999999999837E-003    -1.0507828802038830E-020
  -5.5999999999999939E-003     3.8124867523668418E-020
  -4.4999999999999901E-003     8.0736369152172994E-020
  -3.3999999999999864E-003     8.2589046929138637E-020
  -2.2999999999999826E-003    -1.8381691582684343E-020
  -1.1999999999999927E-003    -1.8790136567056836E-019
  -9.9999999999988987E-005    -2.8424042912702284E-019
   1.0000000000000148E-003    -1.8049068041209993E-019
   2.1000000000000185E-003     2.0116019201039256E-019
   3.2000000000000084E-003     6.4580197960274621E-019
   4.3000000000000121E-003     6.3468596463974064E-019
   5.4000000000000159E-003    -9.1562276364719739E-020
   6.5000000000000058E-003    -1.1883454523768494E-018
   7.6000000000000234E-003    -1.6255765805601288E-018
   8.7000000000000133E-003    -5.2138279683771310E-019
   9.8000000000000032E-003     1.8500401047873653E-018
   1.0900000000000021E-002     3.4803934465898347E-018
   1.2000000000000011E-002     2.1020038688643865E-018
   1.3100000000000001E-002    -2.1517360352426059E-018
   1.4200000000000018E-002    -6.1535123820677303E-018
   1.5300000000000008E-002    -5.6792276983451381E-018
   1.6400000000000026E-002     9.0147135772764020E-019
   1.7500000000000016E-002     1.0001806400209406E-017
   1.8600000000000005E-002     1.4003582126649071E-017
   1.9700000000000023E-002     5.9407441577262280E-018
   2.0800000000000013E-002    -1.2912068504729210E-017
   2.1900000000000003E-002    -2.9452745091795813E-017
   2.3000000000000020E-002    -2.5539899553011724E-017
   2.4100000000000010E-002     5.5850242342845365E-018
   2.5200000000000000E-002     4.5899213251718139E-017
   2.6300000000000018E-002     6.1076323130841091E-017
   2.7400000000000008E-002     2.4793554338639829E-017
   2.8500000000000025E-002    -5.0143407491556270E-017
   2.9600000000000015E-002    -1.0871755228281630E-016
   3.0700000000000005E-002    -9.1169028084067130E-017
   3.1800000000000023E-002     1.7442135537085055E-017
   3.2900000000000013E-002     1.5047895003019308E-016
   3.4000000000000002E-002     1.9387599486849752E-016
   3.5100000000000020E-002     8.3841974714635718E-017
   3.6200000000000010E-002    -1.2958607505788791E-016
   3.7300000000000028E-002    -2.9179138891453893E-016
   3.8400000000000017E-002    -2.4151723063791763E-016
   3.9500000000000007E-002     2.5030710328981232E-017
   4.0600000000000025E-002     3.4374995161611421E-016
   4.1700000000000015E-002     4.7560111188896833E-016
   4.2800000000000005E-002     2.6217305549899980E-016
   4.3900000000000022E-002    -2.3298006497188034E-016
   4.5000000000000012E-002    -7.0347039181535304E-016
   4.6100000000000002E-002    -7.9073876700286511E-016
   4.7200000000000020E-002    -3.0886564083727470E-016
   4.8300000000000010E-002     6.0555502423909123E-016
   4.9400000000000027E-002     1.4365015982151707E-015
   5.0500000000000017E-002     1.5199756363758980E-015
   5.1600000000000007E-002     4.4240102024662559E-016
   5.2700000000000025E-002    -1.4926801055297465E-015
   5.3800000000000014E-002    -3.0635106471467270E-015
   5.4900000000000004E-002    -2.8358540254296623E-015
   5.6000000000000022E-002    -2.1021451926720412E-016
   5.7100000000000012E-002     3.8572499754256813E-015
   5.8200000000000002E-002     6.5511865951582010E-015
   5.9300000000000019E-002     4.7223454767637060E-015
   6.0400000000000009E-002    -2.0769980550174819E-015
   6.1500000000000027E-002    -9.8780304682438702E-015
   6.2600000000000017E-002    -1.1759991140343051E-014
   6.3700000000000007E-002    -3.6250617274408061E-015
   6.4800000000000024E-002     1.0702126610319471E-014
   6.5900000000000014E-002     2.0324413267831798E-014
   6.7000000000000004E-002     1.4830301767990335E-014
   6.8100000000000022E-002    -6.1596362979274809E-015
   6.9200000000000012E-002    -2.8697638883301568E-014
   7.0300000000000029E-002    -3.2765104648543875E-014
   7.1400000000000019E-002    -8.5424424695404455E-015
   7.2500000000000009E-002     3.1525116176399359E-014
   7.3600000000000027E-002     5.7083366354106213E-014
   7.4700000000000016E-002     4.1238469887169837E-014
   7.5800000000000006E-002    -1.4734697159233742E-014
   7.6900000000000024E-002    -7.5928792333396222E-014
   7.8000000000000014E-002    -9.3382461865184480E-014
   7.9100000000000004E-002    -4.2114193534413535E-014
   8.0200000000000021E-002     5.3683708140742775E-014
   8.1300000000000011E-002     1.3187615875622644E-013
   8.2400000000000029E-002     1.3466873829189735E-013
   8.3500000000000019E-002     4.9191269005204041E-014
   8.4600000000000009E-002    -8.5460027184243448E-014
   8.5700000000000026E-002    -1.9449237142685205E-013
   8.6800000000000016E-002    -2.0979088420896436E-013
   8.7900000000000006E-002    -9.6630379208244993E-014
   8.9000000000000024E-002     1.2022011804026927E-013
   9.0100000000000013E-002     3.3439944606764027E-013
   9.1200000000000003E-002     3.8636587961111968E-013
   9.2300000000000021E-002     1.5081719781460251E-013
   9.3400000000000011E-002    -3.2246568696520095E-013
   9.4500000000000028E-002    -7.3382603162433502E-013
   9.5600000000000018E-002    -6.6656109885127046E-013
   9.6700000000000008E-002     7.5053028028571056E-014
   9.7800000000000026E-002     1.1250659692069176E-012
   9.8900000000000016E-002     1.5917922362163051E-012
  0.10000000000000001          6.9573578669046565E-013
  0.10110000000000002         -1.3644653983069244E-012
  0.10220000000000001         -3.1109253628008871E-012
  0.10330000000000003         -2.6407992546190195E-012
  0.10440000000000002          6.4789753423388774E-013
  0.10550000000000001          4.8389642987034520E-012
  0.10660000000000003          6.2794539533450600E-012
  0.10770000000000002          2.4213122826188815E-012
  0.10880000000000001         -5.2425190924521026E-012
  0.10990000000000003         -1.0999134762712526E-011
  0.11100000000000002         -8.7946906701663607E-012
  0.11210000000000001          2.1192271028314114E-012
  0.11320000000000002          1.4628076527856138E-011
  0.11430000000000001          1.7825588227715627E-011
  0.11540000000000003          6.0392897280325819E-012
  0.11650000000000002         -1.4370397233287591E-011
  0.11760000000000001         -2.7351315656787278E-011
  0.11870000000000003         -1.9316435603822235E-011
  0.11980000000000002          7.7274679710637173E-012
  0.12090000000000001          3.4246848412688990E-011
  0.12200000000000003          3.6795632513131338E-011
  0.12310000000000001          8.0285812720237715E-012
  0.12420000000000003         -3.3606714633371837E-011
  0.12530000000000002         -5.5088756473198330E-011
  0.12640000000000001         -3.4835453965875729E-011
  0.12750000000000003          1.7514639044646785E-011
  0.12860000000000002          6.5016797501371570E-011
  0.12970000000000001          6.9430544646920112E-011
  0.13080000000000003          2.0588426796752657E-011
  0.13190000000000002         -5.2490439078622941E-011
  0.13300000000000001         -9.9417564458637031E-011
  0.13410000000000000         -8.1358510206630541E-011
  0.13520000000000004          9.6405522453935077E-013
  0.13630000000000003          1.0378567449897957E-010
  0.13740000000000002          1.6037175754046729E-010
  0.13850000000000001          1.1786614739772716E-010
  0.13960000000000000         -2.9683498714572210E-011
  0.14070000000000005         -2.2320448267443282E-010
  0.14180000000000004         -3.3017566458681813E-010
  0.14290000000000003         -2.0946207268668360E-010
  0.14400000000000002          1.5466025682364659E-010
  0.14510000000000001          5.6196813869036077E-010
  0.14620000000000000          6.5397293136371104E-010
  0.14730000000000004          1.9506773973887448E-010
  0.14840000000000003         -6.0985022587445314E-010
  0.14950000000000002         -1.1509381225849324E-009
  0.15060000000000001         -8.5353868417570311E-010
  0.15170000000000000          2.4355675809495381E-010
  0.15280000000000005          1.3779515306566736E-009
  0.15390000000000004          1.5674317399572146E-009
  0.15500000000000003          4.0170572424003126E-010
  0.15610000000000002         -1.4025836048148221E-009
  0.15720000000000001         -2.4041928448070848E-009
  0.15830000000000000         -1.3399207299258364E-009
  0.15940000000000004          1.5246621742903699E-009
  0.16050000000000003          3.9177825428282631E-009
  0.16160000000000002          3.2672833327751505E-009
  0.16270000000000001         -8.9431906324932697E-010
  0.16380000000000000         -5.6686237925873684E-009
  0.16490000000000005         -6.8661782925971693E-009
  0.16600000000000004         -2.6011324205654773E-009
  0.16710000000000003          4.4091388318179270E-009
  0.16820000000000002          9.3744159102016056E-009
  0.16930000000000001          8.7457987518746449E-009
  0.17040000000000000          1.7434844679087291E-009
  0.17150000000000004         -7.5504953400695740E-009
  0.17260000000000003         -1.1099395180735883E-008
  0.17370000000000002         -4.4790255948612412E-009
  0.17480000000000001          6.8201631009401353E-009
  0.17590000000000000          1.1212524242409927E-008
  0.17700000000000005          2.7142608161057069E-009
  0.17810000000000004         -1.0653793403037071E-008
  0.17920000000000003         -1.6446616513121626E-008
  0.18030000000000002         -7.7892101657539570E-009
  0.18140000000000001          1.1562637958206778E-008
  0.18250000000000000          2.6140181574874077E-008
  0.18360000000000004          1.7610091163078323E-008
  0.18470000000000003         -6.9616650222315002E-009
  0.18580000000000002         -2.6568145017336064E-008
  0.18690000000000001         -2.6440829969942570E-008
  0.18800000000000000         -1.0908424386002480E-008
  0.18910000000000005          4.6239811979376100E-009
  0.19020000000000004          8.9526848157106542E-009
  0.19130000000000003          2.5869453246230023E-009
  0.19240000000000002          2.0776862452720479E-009
  0.19350000000000001          5.8971298955157181E-009
  0.19460000000000005          1.1498981322688451E-008
  0.19570000000000004          2.2702682400677077E-008
  0.19680000000000003          3.5943418907891100E-008
  0.19790000000000002          3.8489712750333638E-008
  0.19900000000000001          1.0989715804043954E-008
  0.20010000000000000         -4.7065832120551931E-008
  0.20120000000000005         -1.1123249521460821E-007
  0.20230000000000004         -1.2243620517438103E-007
  0.20340000000000003         -3.1788069065896707E-008
  0.20450000000000002          9.8582283669657045E-008
  0.20560000000000000          2.0450821125450602E-007
  0.20670000000000005          2.2386007003660779E-007
  0.20780000000000004          8.2286021552135935E-008
  0.20890000000000003         -6.5399134996368957E-008
