 -0.12000000000000000          0.0000000000000000
 -0.11889999999999999          0.0000000000000000
 -0.11780000000000000          0.0000000000000000
 -0.11670000000000000          0.0000000000000000
 -0.11559999999999999         -2.5252040042333945E-012
 -0.11449999999999999         -1.3535426252042626E-011
 -0.11340000000000000         -3.2474245514890754E-011
 -0.11230000000000000         -3.5796580977187631E-011
 -0.11119999999999999          1.9817253740783691E-011
 -0.11009999999999999          1.5391676821963074E-010
 -0.10900000000000000          3.0310889909124228E-010
 -0.10790000000000000          3.1285563029115337E-010
 -0.10679999999999999          2.6572730127405464E-011
 -0.10569999999999999         -5.6357307709475890E-010
 -0.10460000000000000         -1.2109970803919623E-009
 -0.10349999999999999         -1.4538776849093438E-009
 -0.10239999999999999         -8.2394291389675800E-010
 -0.10130000000000000          8.3264040107167148E-010
 -0.10020000000000000          3.0475926227069294E-009
  -9.9099999999999994E-002     4.6390806751617220E-009
  -9.7999999999999990E-002     4.0853298521881243E-009
  -9.6899999999999986E-002     4.5942671889065423E-010
  -9.5799999999999996E-002    -5.4405293603565497E-009
  -9.4699999999999993E-002    -1.0658378180039563E-008
  -9.3599999999999989E-002    -1.1224873475157437E-008
  -9.2499999999999999E-002    -4.7894275212456705E-009
  -9.1399999999999995E-002     6.8428338551029810E-009
  -9.0299999999999991E-002     1.7548137165590560E-008
  -8.9200000000000002E-002     2.0158212876708603E-008
  -8.8099999999999984E-002     1.1514179831806359E-008
  -8.6999999999999994E-002    -4.4500678697545482E-009
  -8.5899999999999990E-002    -1.8583625305268470E-008
  -8.4799999999999986E-002    -2.2670077370889885E-008
  -8.3699999999999997E-002    -1.5362456196044150E-008
  -8.2599999999999993E-002    -2.9861693118249377E-009
  -8.1499999999999989E-002     5.7885505277965876E-009
  -8.0399999999999999E-002     7.1563137638008811E-009
  -7.9299999999999995E-002     5.1167834413945457E-009
  -7.8199999999999992E-002     7.4765953428368448E-009
  -7.7100000000000002E-002     1.8271071766662317E-008
  -7.5999999999999984E-002     3.3104683438978100E-008
  -7.4899999999999994E-002     4.1192723898575423E-008
  -7.3799999999999991E-002     3.1800528432768260E-008
  -7.2699999999999987E-002    -9.3329255435037339E-010
  -7.1599999999999997E-002    -5.8684896941940679E-008
  -7.0499999999999993E-002    -1.4338729670271277E-007
  -6.9399999999999989E-002    -2.6027652211269015E-007
  -6.8300000000000000E-002    -4.1664239347483090E-007
  -6.7199999999999996E-002    -6.1869172895967495E-007
  -6.6099999999999992E-002    -8.7138272419906571E-007
  -6.5000000000000002E-002    -1.1827831940536271E-006
  -6.3899999999999985E-002    -1.5689158772147493E-006
  -6.2799999999999995E-002    -2.0535721887426917E-006
  -6.1699999999999991E-002    -2.6625496047927300E-006
  -6.0599999999999994E-002    -3.4183669868070865E-006
  -5.9499999999999990E-002    -4.3423920033092145E-006
  -5.8399999999999994E-002    -5.4646025091642514E-006
  -5.7299999999999990E-002    -6.8331974034663290E-006
  -5.6199999999999986E-002    -8.5156189015833661E-006
  -5.5099999999999996E-002    -1.0590782949293498E-005
  -5.3999999999999992E-002    -1.3141617273504380E-005
  -5.2899999999999989E-002    -1.6257474271696992E-005
  -5.1799999999999985E-002    -2.0046234567416832E-005
  -5.0699999999999995E-002    -2.4645603843964636E-005
  -4.9599999999999991E-002    -3.0223436624510214E-005
  -4.8499999999999988E-002    -3.6968613130738959E-005
  -4.7399999999999998E-002    -4.5085627789376304E-005
  -4.6299999999999994E-002    -5.4804826504550874E-005
  -4.5199999999999990E-002    -6.6405613324604928E-005
  -4.4099999999999986E-002    -8.0235993664246053E-005
  -4.2999999999999997E-002    -9.6713505627121776E-005
  -4.1899999999999993E-002    -1.1630953667918220E-004
  -4.0799999999999989E-002    -1.3953617599327117E-004
  -3.9699999999999985E-002    -1.6695378872100264E-004
  -3.8599999999999995E-002    -1.9919892656616867E-004
  -3.7499999999999992E-002    -2.3701271857134998E-004
  -3.6399999999999988E-002    -2.8125001699663699E-004
  -3.5299999999999984E-002    -3.3286854159086943E-004
  -3.4199999999999994E-002    -3.9291792199946940E-004
  -3.3099999999999991E-002    -4.6254889457486570E-004
  -3.1999999999999987E-002    -5.4304179502651095E-004
  -3.0899999999999997E-002    -6.3583388691768050E-004
  -2.9799999999999993E-002    -7.4252241756767035E-004
  -2.8699999999999989E-002    -8.6484593339264393E-004
  -2.7599999999999986E-002    -1.0046631796285510E-003
  -2.6499999999999996E-002    -1.1639526346698403E-003
  -2.5399999999999992E-002    -1.3448341051116586E-003
  -2.4299999999999988E-002    -1.5495893312618136E-003
  -2.3199999999999985E-002    -1.7806589603424072E-003
  -2.2099999999999995E-002    -2.0406180992722511E-003
  -2.0999999999999991E-002    -2.3321453481912613E-003
  -1.9899999999999987E-002    -2.6580069679766893E-003
  -1.8799999999999983E-002    -3.0210544355213642E-003
  -1.7699999999999994E-002    -3.4242109395563602E-003
  -1.6599999999999990E-002    -3.8704304024577141E-003
  -1.5499999999999986E-002    -4.3626381084322929E-003
  -1.4399999999999996E-002    -4.9036787822842598E-003
  -1.3299999999999992E-002    -5.4962760768830776E-003
  -1.2199999999999989E-002    -6.1430083587765694E-003
  -1.1099999999999985E-002    -6.8462626077234745E-003
  -9.9999999999999950E-003    -7.6081613078713417E-003
  -8.8999999999999913E-003    -8.4304790943861008E-003
  -7.7999999999999875E-003    -9.3145603314042091E-003
  -6.6999999999999837E-003    -1.0261268354952335E-002
  -5.5999999999999939E-003    -1.1270917952060699E-002
  -4.4999999999999901E-003    -1.2343195267021656E-002
  -3.3999999999999864E-003    -1.3477051630616188E-002
  -2.2999999999999826E-003    -1.4670606702566147E-002
  -1.1999999999999927E-003    -1.5921084210276604E-002
  -9.9999999999988987E-005    -1.7224790528416634E-002
   1.0000000000000148E-003    -1.8577104434370995E-002
   2.1000000000000185E-003    -1.9972415640950203E-002
   3.2000000000000084E-003    -2.1404031664133072E-002
   4.3000000000000121E-003    -2.2864101454615593E-002
   5.4000000000000159E-003    -2.4343602359294891E-002
   6.5000000000000058E-003    -2.5832379236817360E-002
   7.6000000000000234E-003    -2.7319226413965225E-002
   8.7000000000000133E-003    -2.8791923075914383E-002
   9.8000000000000032E-003    -3.0237268656492233E-002
   1.0900000000000021E-002    -3.1641099601984024E-002
   1.2000000000000011E-002    -3.2988395541906357E-002
   1.3100000000000001E-002    -3.4263450652360916E-002
   1.4200000000000018E-002    -3.5450052469968796E-002
   1.5300000000000008E-002    -3.6531664431095123E-002
   1.6400000000000026E-002    -3.7491556257009506E-002
   1.7500000000000016E-002    -3.8312971591949463E-002
   1.8600000000000005E-002    -3.8979317992925644E-002
   1.9700000000000023E-002    -3.9474442601203918E-002
   2.0800000000000013E-002    -3.9782896637916565E-002
   2.1900000000000003E-002    -3.9890170097351074E-002
   2.3000000000000020E-002    -3.9782907813787460E-002
   2.4100000000000010E-002    -3.9449132978916168E-002
   2.5200000000000000E-002    -3.8878478109836578E-002
   2.6300000000000018E-002    -3.8062442094087601E-002
   2.7400000000000008E-002    -3.6994598805904388E-002
   2.8500000000000025E-002    -3.5670749843120575E-002
   2.9600000000000015E-002    -3.4089043736457825E-002
   3.0700000000000005E-002    -3.2250095158815384E-002
   3.1800000000000023E-002    -3.0157128348946571E-002
   3.2900000000000013E-002    -2.7816038578748703E-002
   3.4000000000000002E-002    -2.5235418230295181E-002
   3.5100000000000020E-002    -2.2426493465900421E-002
   3.6200000000000010E-002    -1.9403029233217239E-002
   3.7300000000000028E-002    -1.6181239858269691E-002
   3.8400000000000017E-002    -1.2779717333614826E-002
   3.9500000000000007E-002    -9.2193121090531349E-003
   4.0600000000000025E-002    -5.5229114368557930E-003
   4.1700000000000015E-002    -1.7151208594441414E-003
   4.2800000000000005E-002     2.1780841052532196E-003
   4.3900000000000022E-002     6.1296597123146057E-003
   4.5000000000000012E-002     1.0111741721630096E-002
   4.6100000000000002E-002     1.4095884747803211E-002
   4.7200000000000020E-002     1.8053393810987473E-002
   4.8300000000000010E-002     2.1955722942948341E-002
   4.9400000000000027E-002     2.5774912908673286E-002
   5.0500000000000017E-002     2.9483923688530922E-002
   5.1600000000000007E-002     3.3056881278753281E-002
   5.2700000000000025E-002     3.6469265818595886E-002
   5.3800000000000014E-002     3.9698168635368347E-002
   5.4900000000000004E-002     4.2722590267658234E-002
   5.6000000000000022E-002     4.5523747801780701E-002
   5.7100000000000012E-002     4.8085302114486694E-002
   5.8200000000000002E-002     5.0393421202898026E-002
   5.9300000000000019E-002     5.2436817437410355E-002
   6.0400000000000009E-002     5.4206732660531998E-002
   6.1500000000000027E-002     5.5696994066238403E-002
   6.2600000000000017E-002     5.6904073804616928E-002
   6.3700000000000007E-002     5.7827062904834747E-002
   6.4800000000000024E-002     5.8467555791139603E-002
   6.5900000000000014E-002     5.8829497545957565E-002
   6.7000000000000004E-002     5.8918986469507217E-002
   6.8100000000000022E-002     5.8744154870510101E-002
   6.9200000000000012E-002     5.8315023779869080E-002
   7.0300000000000029E-002     5.7643320411443710E-002
   7.1400000000000019E-002     5.6742243468761444E-002
   7.2500000000000009E-002     5.5626217275857925E-002
   7.3600000000000027E-002     5.4310671985149384E-002
   7.4700000000000016E-002     5.2811849862337112E-002
   7.5800000000000006E-002     5.1146604120731354E-002
   7.6900000000000024E-002     4.9332160502672195E-002
   7.8000000000000014E-002     4.7385904937982559E-002
   7.9100000000000004E-002     4.5325174927711487E-002
   8.0200000000000021E-002     4.3167140334844589E-002
   8.1300000000000011E-002     4.0928706526756287E-002
   8.2400000000000029E-002     3.8626395165920258E-002
   8.3500000000000019E-002     3.6276195198297501E-002
   8.4600000000000009E-002     3.3893395215272903E-002
   8.5700000000000026E-002     3.1492460519075394E-002
   8.6800000000000016E-002     2.9087012633681297E-002
   8.7900000000000006E-002     2.6689879596233368E-002
   8.9000000000000024E-002     2.4313097819685936E-002
   9.0100000000000013E-002     2.1967822685837746E-002
   9.1200000000000003E-002     1.9664200022816658E-002
   9.2300000000000021E-002     1.7411326989531517E-002
   9.3400000000000011E-002     1.5217307955026627E-002
   9.4500000000000028E-002     1.3089393265545368E-002
   9.5600000000000018E-002     1.1034073308110237E-002
   9.6700000000000008E-002     9.0570570901036263E-003
   9.7800000000000026E-002     7.1631954051554203E-003
   9.8900000000000016E-002     5.3564403206110001E-003
  0.10000000000000001          3.6399147938936949E-003
  0.10110000000000002          2.0160467829555273E-003
  0.10220000000000001          4.8667742521502078E-004
  0.10330000000000003         -9.4692496350035071E-004
  0.10440000000000002         -2.2841200698167086E-003
  0.10550000000000001         -3.5249262582510710E-003
  0.10660000000000003         -4.6699712984263897E-003
  0.10770000000000002         -5.7203676551580429E-003
  0.10880000000000001         -6.6776052117347717E-003
  0.10990000000000003         -7.5435121543705463E-003
  0.11100000000000002         -8.3202803507447243E-003
  0.11210000000000001         -9.0104890987277031E-003
  0.11320000000000002         -9.6170650795102119E-003
  0.11430000000000001         -1.0143208317458630E-002
  0.11540000000000003         -1.0592321865260601E-002
  0.11650000000000002         -1.0967980138957500E-002
  0.11760000000000001         -1.1273932643234730E-002
  0.11870000000000003         -1.1514096520841122E-002
  0.11980000000000002         -1.1692506261169910E-002
  0.12090000000000001         -1.1813252232968807E-002
  0.12200000000000003         -1.1880433186888695E-002
  0.12310000000000001         -1.1898153461515903E-002
  0.12420000000000003         -1.1870518326759338E-002
  0.12530000000000002         -1.1801596730947495E-002
  0.12640000000000001         -1.1695367284119129E-002
  0.12750000000000003         -1.1555666103959084E-002
  0.12860000000000002         -1.1386179365217686E-002
  0.12970000000000001         -1.1190478689968586E-002
  0.13080000000000003         -1.0972050018608570E-002
  0.13190000000000002         -1.0734275914728642E-002
  0.13300000000000001         -1.0480356402695179E-002
  0.13410000000000000         -1.0213247500360012E-002
  0.13520000000000004         -9.9356546998023987E-003
  0.13630000000000003         -9.6500748768448830E-003
  0.13740000000000002         -9.3588586896657944E-003
  0.13850000000000001         -9.0642096474766731E-003
  0.13960000000000000         -8.7681319564580917E-003
  0.14070000000000005         -8.4723690524697304E-003
  0.14180000000000004         -8.1784073263406754E-003
  0.14290000000000003         -7.8875375911593437E-003
  0.14400000000000002         -7.6009314507246017E-003
  0.14510000000000001         -7.3196711018681526E-003
  0.14620000000000000         -7.0447125472128391E-003
  0.14730000000000004         -6.7768283188343048E-003
  0.14840000000000003         -6.5165832638740540E-003
  0.14950000000000002         -6.2643764540553093E-003
  0.15060000000000001         -6.0205128975212574E-003
  0.15170000000000000         -5.7852435857057571E-003
  0.15280000000000005         -5.5587538518011570E-003
  0.15390000000000004         -5.3411265835165977E-003
  0.15500000000000003         -5.1323268562555313E-003
  0.15610000000000002         -4.9322368577122688E-003
  0.15720000000000001         -4.7407103702425957E-003
  0.15830000000000000         -4.5576039701700211E-003
  0.15940000000000004         -4.3827653862535954E-003
  0.16050000000000003         -4.2160013690590858E-003
  0.16160000000000002         -4.0570655837655067E-003
  0.16270000000000001         -3.9056809619069099E-003
  0.16380000000000000         -3.7615727633237839E-003
  0.16490000000000005         -3.6244792863726616E-003
  0.16600000000000004         -3.4941304475069046E-003
  0.16710000000000003         -3.3702233340591192E-003
  0.16820000000000002         -3.2524308189749718E-003
  0.16930000000000001         -3.1404423061758280E-003
  0.17040000000000000         -3.0339991208165884E-003
  0.17150000000000004         -2.9328891541808844E-003
  0.17260000000000003         -2.8368958737701178E-003
  0.17370000000000002         -2.7457587420940399E-003
  0.17480000000000001         -2.6591855566948652E-003
  0.17590000000000000         -2.5769099593162537E-003
  0.17700000000000005         -2.4987433571368456E-003
  0.17810000000000004         -2.4245635140687227E-003
  0.17920000000000003         -2.3542467970401049E-003
  0.18030000000000002         -2.2876071743667126E-003
  0.18140000000000001         -2.2244055289775133E-003
  0.18250000000000000         -2.1644250955432653E-003
  0.18360000000000004         -2.1075459662824869E-003
  0.18470000000000003         -2.0537474192678928E-003
  0.18580000000000002         -2.0030343439429998E-003
  0.18690000000000001         -1.9553618039935827E-003
  0.18800000000000000         -1.9106317777186632E-003
  0.18910000000000005         -1.8687690608203411E-003
  0.19020000000000004         -1.8298026407137513E-003
  0.19130000000000003         -1.7938745440915227E-003
  0.19240000000000002         -1.7611633520573378E-003
  0.19350000000000001         -1.7318021273240447E-003
  0.19460000000000005         -1.7058699158951640E-003
  0.19570000000000004         -1.6834700945764780E-003
  0.19680000000000003         -1.6648172168061137E-003
  0.19790000000000002         -1.6502522630617023E-003
  0.19900000000000001         -1.6401746543124318E-003
  0.20010000000000000         -1.6349665820598602E-003
  0.20120000000000005         -1.6349906800314784E-003
  0.20230000000000004         -1.6406619688495994E-003
  0.20340000000000003         -1.6525213140994310E-003
  0.20450000000000002         -1.6712312353774905E-003
  0.20560000000000000         -1.6975002363324165E-003
  0.20670000000000005         -1.7320165643468499E-003
  0.20780000000000004         -1.7754638101905584E-003
  0.20890000000000003         -1.8286048434674740E-003
