 -0.12000000000000000          0.0000000000000000
 -0.11889999999999999          0.0000000000000000
 -0.11780000000000000          0.0000000000000000
 -0.11670000000000000          0.0000000000000000
 -0.11559999999999999          0.0000000000000000
 -0.11449999999999999          0.0000000000000000
 -0.11340000000000000          0.0000000000000000
 -0.11230000000000000          0.0000000000000000
 -0.11119999999999999         -8.0167664087961921E-025
 -0.11009999999999999          2.8495309349040290E-023
 -0.10900000000000000          1.1527350515488353E-022
 -0.10790000000000000         -2.7442297423072936E-022
 -0.10679999999999999         -1.5549022480209654E-021
 -0.10569999999999999          3.2752692952241629E-021
 -0.10460000000000000          2.7797653285263114E-020
 -0.10349999999999999          2.4002837824966790E-020
 -0.10239999999999999         -2.0878447081265867E-019
 -0.10130000000000000         -6.8650686546223301E-019
 -0.10020000000000000         -1.1615430427713297E-019
  -9.9099999999999994E-002     4.0687397193385890E-018
  -9.7999999999999990E-002     9.7588584912189065E-018
  -9.6899999999999986E-002     2.2476978784903421E-020
  -9.5799999999999996E-002    -4.7726488312072279E-017
  -9.4699999999999993E-002    -1.0257586858350808E-016
  -9.3599999999999989E-002    -1.2735014630515298E-017
  -9.2499999999999999E-002     3.8865500626810692E-016
  -9.1399999999999995E-002     8.5403489217321881E-016
  -9.0299999999999991E-002     3.3143149852463572E-016
  -8.9200000000000002E-002    -2.3015994288938003E-015
  -8.8099999999999984E-002    -5.7183638961435124E-015
  -8.6999999999999994E-002    -3.9901147164990436E-015
  -8.5899999999999990E-002     9.7396024147729417E-015
  -8.4799999999999986E-002     3.0774919423806960E-014
  -8.3699999999999997E-002     3.1471465109520272E-014
  -8.2599999999999993E-002    -2.5021004284317763E-014
  -8.1499999999999989E-002    -1.3175102827299445E-013
  -8.0399999999999999E-002    -1.8238904310463600E-013
  -7.9299999999999995E-002    -7.0038240615119540E-015
  -7.8199999999999992E-002     4.3495223156671259E-013
  -7.7100000000000002E-002     8.1414004227467474E-013
  -7.5999999999999984E-002     4.6818408525051147E-013
  -7.4899999999999994E-002    -1.0034513367798703E-012
  -7.3799999999999991E-002    -2.8358177351500702E-012
  -7.2699999999999987E-002    -2.8737056137484451E-012
  -7.1599999999999997E-002     9.2046249094979160E-013
  -7.0499999999999993E-002     7.5544535904636945E-012
  -6.9399999999999989E-002     1.1291757459619411E-011
  -6.8300000000000000E-002     4.5728607532546928E-012
  -6.7199999999999996E-002    -1.4022894824494703E-011
  -6.6099999999999992E-002    -3.2573072711317153E-011
  -6.5000000000000002E-002    -2.9060845743722474E-011
  -6.3899999999999985E-002     1.0482750084639392E-011
  -6.2799999999999995E-002     6.9331027030550274E-011
  -6.1699999999999991E-002     9.6430044504991486E-011
  -6.0599999999999994E-002     3.9561930120779465E-011
  -5.9499999999999990E-002    -9.7561542178326022E-011
  -5.8399999999999994E-002    -2.2293553114671738E-010
  -5.7299999999999990E-002    -1.9996224120966133E-010
  -5.6199999999999986E-002     3.4992966857494423E-011
  -5.5099999999999996E-002     3.6542410764006661E-010
  -5.3999999999999992E-002     5.1723647587209598E-010
  -5.2899999999999989E-002     2.5495944244724456E-010
  -5.1799999999999985E-002    -3.6510328094152555E-010
  -5.0699999999999995E-002    -9.1672669455533651E-010
  -4.9599999999999991E-002    -8.5856699527653291E-010
  -4.8499999999999988E-002    -9.2903462700633099E-012
  -4.7399999999999998E-002     1.1394354348936986E-009
  -4.6299999999999994E-002     1.6442889272383354E-009
  -4.5199999999999990E-002     8.4720952475692002E-010
  -4.4099999999999986E-002    -9.0900009741545773E-010
  -4.2999999999999997E-002    -2.2901647245276990E-009
  -4.1899999999999993E-002    -1.9331909406616887E-009
  -4.0799999999999989E-002     2.7027957649750078E-010
  -3.9699999999999985E-002     2.7126731971804929E-009
  -3.8599999999999995E-002     3.1224693941567239E-009
  -3.7499999999999992E-002     5.5571169887969063E-010
  -3.6399999999999988E-002    -3.3203517713076280E-009
  -3.5299999999999984E-002    -5.0805875062565065E-009
  -3.4199999999999994E-002    -2.3086459410848192E-009
  -3.3099999999999991E-002     3.8222203180282577E-009
  -3.1999999999999987E-002     8.6186844328040024E-009
  -3.0899999999999997E-002     7.1958634606517080E-009
  -2.9799999999999993E-002    -1.1770113772513469E-009
  -2.8699999999999989E-002    -1.1376749320390900E-008
  -2.7599999999999986E-002    -1.5435476896641376E-008
  -2.6499999999999996E-002    -8.5806206584493339E-009
  -2.5399999999999992E-002     6.2828013902560542E-009
  -2.4299999999999988E-002     1.9617958813000769E-008
  -2.3199999999999985E-002     2.1707245778657125E-008
  -2.2099999999999995E-002     9.9232071448795978E-009
  -2.0999999999999991E-002    -8.8430036626618858E-009
  -1.9899999999999987E-002    -2.2768089635860633E-008
  -1.8799999999999983E-002    -2.3424282957762443E-008
  -1.7699999999999994E-002    -1.1559424528684303E-008
  -1.6599999999999990E-002     4.0260537126357576E-009
  -1.5499999999999986E-002     1.3483236749323169E-008
  -1.4399999999999996E-002     1.3252264174923312E-008
  -1.3299999999999992E-002     8.0543349767481232E-009
  -1.2199999999999989E-002     6.1000799966848263E-009
  -1.1099999999999985E-002     1.1314273962170773E-008
  -9.9999999999999950E-003     1.8703071091863421E-008
  -8.8999999999999913E-003     1.6864849072817378E-008
  -7.7999999999999875E-003    -3.3271856381134057E-009
  -6.6999999999999837E-003    -3.9387636263654713E-008
  -5.5999999999999939E-003    -7.4050397813607560E-008
  -4.4999999999999901E-003    -8.2167801451760170E-008
  -3.3999999999999864E-003    -4.5590674346840387E-008
  -2.2999999999999826E-003     3.2046152398379490E-008
  -1.1999999999999927E-003     1.2077018141098961E-007
  -9.9999999999988987E-005     1.7560387277626432E-007
   1.0000000000000148E-003     1.5973540712366230E-007
   2.1000000000000185E-003     6.6498607509402063E-008
   3.2000000000000084E-003    -7.3926898380705097E-008
   4.3000000000000121E-003    -2.0791718213786226E-007
   5.4000000000000159E-003    -2.8312138056207914E-007
   6.5000000000000058E-003    -2.6863418156608532E-007
   7.6000000000000234E-003    -1.6067937735897431E-007
   8.7000000000000133E-003     2.2302515390038025E-008
   9.8000000000000032E-003     2.4303994905494619E-007
   1.0900000000000021E-002     4.4196778503646783E-007
   1.2000000000000011E-002     5.3774840580445016E-007
   1.3100000000000001E-002     4.5006331106378639E-007
   1.4200000000000018E-002     1.4817389626387012E-007
   1.5300000000000008E-002    -3.0087133495726448E-007
   1.6400000000000026E-002    -7.2812599682947621E-007
   1.7500000000000016E-002    -9.2831561460116063E-007
   1.8600000000000005E-002    -7.7129016062826850E-007
   1.9700000000000023E-002    -2.9099314247105212E-007
   2.0800000000000013E-002     3.1540039913124929E-007
   2.1900000000000003E-002     7.9004956887729350E-007
   2.3000000000000020E-002     9.5737948413443519E-007
   2.4100000000000010E-002     8.1203296531384694E-007
   2.5200000000000000E-002     4.9259426759817870E-007
   2.6300000000000018E-002     1.6462153951124492E-007
   2.7400000000000008E-002    -9.6170758467906126E-008
   2.8500000000000025E-002    -3.3052657499865745E-007
   2.9600000000000015E-002    -6.1221237501740688E-007
   3.0700000000000005E-002    -9.2294135356496554E-007
   3.1800000000000023E-002    -1.0950366231554653E-006
   3.2900000000000013E-002    -8.9263659219795954E-007
   3.4000000000000002E-002    -2.0574009340634802E-007
   3.5100000000000020E-002     7.6322311315379920E-007
   3.6200000000000010E-002     1.4713803011545679E-006
   3.7300000000000028E-002     1.2534451343526598E-006
   3.8400000000000017E-002    -2.6580096346151549E-007
   3.9500000000000007E-002    -2.7635685455607018E-006
   4.0600000000000025E-002    -5.0786870815500151E-006
   4.1700000000000015E-002    -5.5139539654192049E-006
   4.2800000000000005E-002    -2.5266879219998373E-006
   4.3900000000000022E-002     4.5059728108753916E-006
   4.5000000000000012E-002     1.4879749869578518E-005
   4.6100000000000002E-002     2.6810563213075511E-005
   4.7200000000000020E-002     3.8281817978713661E-005
   4.8300000000000010E-002     4.8072732170112431E-005
   4.9400000000000027E-002     5.6415748986182734E-005
   5.0500000000000017E-002     6.4938423747662455E-005
   5.1600000000000007E-002     7.5971096521243453E-005
   5.2700000000000025E-002     9.1667723609134555E-005
   5.3800000000000014E-002     1.1345578241162002E-004
   5.4900000000000004E-002     1.4207378262653947E-004
   5.6000000000000022E-002     1.7806806135922670E-004
   5.7100000000000012E-002     2.2236633230932057E-004
   5.8200000000000002E-002     2.7656948077492416E-004
   5.9300000000000019E-002     3.4284350113011897E-004
   6.0400000000000009E-002     4.2356789344921708E-004
   6.1500000000000027E-002     5.2104354836046696E-004
   6.2600000000000017E-002     6.3751882407814264E-004
   6.3700000000000007E-002     7.7561370562762022E-004
   6.4800000000000024E-002     9.3899894272908568E-004
   6.5900000000000014E-002     1.1330122360959649E-003
   6.7000000000000004E-002     1.3648602180182934E-003
   6.8100000000000022E-002     1.6432262491434813E-003
   6.9200000000000012E-002     1.9774301908910275E-003
   7.0300000000000029E-002     2.3766076192259789E-003
   7.1400000000000019E-002     2.8494594153016806E-003
   7.2500000000000009E-002     3.4048366360366344E-003
   7.3600000000000027E-002     4.0529235266149044E-003
   7.4700000000000016E-002     4.8063695430755615E-003
   7.5800000000000006E-002     5.6807352229952812E-003
   7.6900000000000024E-002     6.6940975375473499E-003
   7.8000000000000014E-002     7.8661851584911346E-003
   7.9100000000000004E-002     9.2177055776119232E-003
   8.0200000000000021E-002     1.0770310647785664E-002
   8.1300000000000011E-002     1.2547162361443043E-002
   8.2400000000000029E-002     1.4573623426258564E-002
   8.3500000000000019E-002     1.6877569258213043E-002
   8.4600000000000009E-002     1.9489128142595291E-002
   8.5700000000000026E-002     2.2439876571297646E-002
   8.6800000000000016E-002     2.5761792436242104E-002
   8.7900000000000006E-002     2.9486356303095818E-002
   8.9000000000000024E-002     3.3644154667854309E-002
   9.0100000000000013E-002     3.8265082985162735E-002
   9.1200000000000003E-002     4.3378900736570358E-002
   9.2300000000000021E-002     4.9015637487173080E-002
   9.3400000000000011E-002     5.5205196142196655E-002
   9.4500000000000028E-002     6.1975929886102676E-002
   9.5600000000000018E-002     6.9352313876152039E-002
   9.6700000000000008E-002     7.7352434396743774E-002
   9.7800000000000026E-002     8.5986606776714325E-002
   9.8900000000000016E-002     9.5257326960563660E-002
  0.10000000000000001         0.10515965521335602
  0.10110000000000002         0.11568136513233185
  0.10220000000000001         0.12680192291736603
  0.10330000000000003         0.13849006593227386
  0.10440000000000002         0.15070068836212158
  0.10550000000000001         0.16337269544601440
  0.10660000000000003         0.17642830312252045
  0.10770000000000002         0.18977266550064087
  0.10880000000000001         0.20329472422599792
  0.10990000000000003         0.21686770021915436
  0.11100000000000002         0.23034897446632385
  0.11210000000000001         0.24358037114143372
  0.11320000000000002         0.25638738274574280
  0.11430000000000001         0.26857900619506836
  0.11540000000000003         0.27994880080223083
  0.11650000000000002         0.29027608036994934
  0.11760000000000001         0.29932808876037598
  0.11870000000000003         0.30686357617378235
  0.11980000000000002         0.31263622641563416
  0.12090000000000001         0.31639721989631653
  0.12200000000000003         0.31789830327033997
  0.12310000000000001         0.31689548492431641
  0.12420000000000003         0.31315422058105469
  0.12530000000000002         0.30645582079887390
  0.12640000000000001         0.29660204052925110
  0.12750000000000003         0.28341808915138245
  0.12860000000000002         0.26675665378570557
  0.12970000000000001         0.24650326371192932
  0.13080000000000003         0.22258019447326660
  0.13190000000000002         0.19495102763175964
  0.13300000000000001         0.16362668573856354
  0.13410000000000000         0.12866845726966858
  0.13520000000000004          9.0190082788467407E-002
  0.13630000000000003          4.8360042273998260E-002
  0.13740000000000002          3.4030638635158539E-003
  0.13850000000000001         -4.4401422142982483E-002
  0.13960000000000000         -9.4723343849182129E-002
  0.14070000000000005        -0.14718338847160339
  0.14180000000000004        -0.20135305821895599
  0.14290000000000003        -0.25675761699676514
  0.14400000000000002        -0.31288167834281921
  0.14510000000000001        -0.36917775869369507
  0.14620000000000000        -0.42507439851760864
  0.14730000000000004        -0.47998118400573730
  0.14840000000000003        -0.53329473733901978
  0.14950000000000002        -0.58440750837326050
  0.15060000000000001        -0.63272017240524292
  0.15170000000000000        -0.67765319347381592
  0.15280000000000005        -0.71865665912628174
  0.15390000000000004        -0.75521761178970337
  0.15500000000000003        -0.78686553239822388
  0.15610000000000002        -0.81317859888076782
  0.15720000000000001        -0.83379149436950684
  0.15830000000000000        -0.84840297698974609
  0.15940000000000004        -0.85678142309188843
  0.16050000000000003        -0.85876798629760742
  0.16160000000000002        -0.85427868366241455
  0.16270000000000001        -0.84330564737319946
  0.16380000000000000        -0.82591730356216431
  0.16490000000000005        -0.80225658416748047
  0.16600000000000004        -0.77253556251525879
  0.16710000000000003        -0.73702949285507202
  0.16820000000000002        -0.69607168436050415
  0.16930000000000001        -0.65004569292068481
  0.17040000000000000        -0.59937793016433716
  0.17150000000000004        -0.54453247785568237
  0.17260000000000003        -0.48600232601165771
  0.17370000000000002        -0.42429792881011963
  0.17480000000000001        -0.35993677377700806
  0.17590000000000000        -0.29343590140342712
  0.17700000000000005        -0.22530432045459747
  0.17810000000000004        -0.15603770315647125
  0.17920000000000003         -8.6112320423126221E-002
  0.18030000000000002         -1.5975058078765869E-002
  0.18140000000000001          5.3960263729095459E-002
  0.18250000000000000         0.12331183999776840
  0.18360000000000004         0.19173215329647064
  0.18470000000000003         0.25890782475471497
  0.18580000000000002         0.32456228137016296
  0.18690000000000001         0.38845452666282654
  0.18800000000000000         0.45037153363227844
  0.18910000000000005         0.51012337207794189
  0.19020000000000004         0.56753695011138916
  0.19130000000000003         0.62245064973831177
  0.19240000000000002         0.67470753192901611
  0.19350000000000001         0.72414994239807129
  0.19460000000000005         0.77061593532562256
  0.19570000000000004         0.81393194198608398
  0.19680000000000003         0.85390549898147583
  0.19790000000000002         0.89031988382339478
  0.19900000000000001         0.92293155193328857
  0.20010000000000000         0.95146924257278442
  0.20120000000000005         0.97563183307647705
  0.20230000000000004         0.99508768320083618
  0.20340000000000003          1.0094754695892334
  0.20450000000000002          1.0184087753295898
  0.20560000000000000          1.0214823484420776
  0.20670000000000005          1.0182816982269287
  0.20780000000000004          1.0083922147750854
  0.20890000000000003         0.99140757322311401
