 -0.12000000000000000          0.0000000000000000
 -0.11889999999999999          0.0000000000000000
 -0.11780000000000000          0.0000000000000000
 -0.11670000000000000          0.0000000000000000
 -0.11559999999999999          0.0000000000000000
 -0.11449999999999999          0.0000000000000000
 -0.11340000000000000          0.0000000000000000
 -0.11230000000000000          0.0000000000000000
 -0.11119999999999999          0.0000000000000000
 -0.11009999999999999         -5.7411755351222949E-031
 -0.10900000000000000          5.6548959424838042E-030
 -0.10790000000000000         -3.0819848009452293E-028
 -0.10679999999999999         -1.5156248216171237E-027
 -0.10569999999999999          5.7225657179363480E-028
 -0.10460000000000000          7.1385741242959752E-027
 -0.10349999999999999         -6.4375573490287940E-026
 -0.10239999999999999         -3.7186543154330489E-025
 -0.10130000000000000         -3.1106491404572036E-025
 -0.10020000000000000          2.7416888371087948E-024
  -9.9099999999999994E-002     9.1459192287785233E-024
  -9.7999999999999990E-002     9.0842697490355012E-025
  -9.6899999999999986E-002    -6.0601001558449205E-023
  -9.5799999999999996E-002    -1.4743063109531285E-022
  -9.4699999999999993E-002     7.2022243340209366E-024
  -9.3599999999999989E-002     8.0060642563280298E-022
  -9.2499999999999999E-002     1.7702384044909374E-021
  -9.1399999999999995E-002     2.2363865875104629E-022
  -9.0299999999999991E-002    -7.2556801742878049E-021
  -8.9200000000000002E-002    -1.6702558560054312E-020
  -8.8099999999999984E-002    -7.3758225037061635E-021
  -8.6999999999999994E-002     4.6852123818114367E-020
  -8.5899999999999990E-002     1.2474023224028026E-019
  -8.4799999999999986E-002     9.8478876303552592E-020
  -8.3699999999999997E-002    -2.0823276719347994E-019
  -8.2599999999999993E-002    -7.3554575108955641E-019
  -8.1499999999999989E-002    -8.4485167197899801E-019
  -8.0399999999999999E-002     4.8731691427336519E-019
  -7.9299999999999995E-002     3.3793516804052572E-018
  -7.8199999999999992E-002     5.2717436393504907E-018
  -7.7100000000000002E-002     1.1491983027071649E-018
  -7.5999999999999984E-002    -1.1577037873557414E-017
  -7.4899999999999994E-002    -2.5066985507564132E-017
  -7.3799999999999991E-002    -1.8863900191386099E-017
  -7.2699999999999987E-002     2.5081942587400316E-017
  -7.1599999999999997E-002     9.1443744691663341E-017
  -7.0499999999999993E-002     1.1205531208125148E-016
  -6.9399999999999989E-002     7.1681486650375251E-019
  -6.8300000000000000E-002    -2.4564111642074360E-016
  -6.7199999999999996E-002    -4.4892582091844387E-016
  -6.6099999999999992E-002    -2.9366547578011867E-016
  -6.5000000000000002E-002     4.0072443167309265E-016
  -6.3899999999999985E-002     1.3119997193091685E-015
  -6.2799999999999995E-002     1.5345488382334082E-015
  -6.1699999999999991E-002     1.5131888907651413E-016
  -6.0599999999999994E-002    -2.6720128659587367E-015
  -5.9499999999999990E-002    -4.9501909868280083E-015
  -5.8399999999999994E-002    -3.6644462183892893E-015
  -5.7299999999999990E-002     2.6437505528824129E-015
  -5.6199999999999986E-002     1.1060081886796191E-014
  -5.5099999999999996E-002     1.4253550257941304E-014
  -5.3999999999999992E-002     5.1860333349473386E-015
  -5.2899999999999989E-002    -1.5313030926828244E-014
  -5.1799999999999985E-002    -3.4290041780408315E-014
  -5.0699999999999995E-002    -3.2216769399809331E-014
  -4.9599999999999991E-002     1.5301565488854210E-015
  -4.8499999999999988E-002     5.3233615161362574E-014
  -4.7399999999999998E-002     8.4785592446585262E-014
  -4.6299999999999994E-002     5.7043677778329666E-014
  -4.5199999999999990E-002    -3.4319254252693221E-014
  -4.4099999999999986E-002    -1.3860282008486963E-013
  -4.2999999999999997E-002    -1.7141187557898063E-013
  -4.1899999999999993E-002    -7.5483313989512663E-014
  -4.0799999999999989E-002     1.1855527139430916E-013
  -3.9699999999999985E-002     2.8625211467674105E-013
  -3.8599999999999995E-002     2.8316045797179001E-013
  -3.7499999999999992E-002     6.0197052691949443E-014
  -3.6399999999999988E-002    -2.6721219638023430E-013
  -3.5299999999999984E-002    -4.6994455852808481E-013
  -3.4199999999999994E-002    -3.6536946428425421E-013
  -3.3099999999999991E-002     2.2523080405942308E-014
  -3.1999999999999987E-002     4.4068706474796604E-013
  -3.0899999999999997E-002     5.7311409307550520E-013
  -2.9799999999999993E-002     2.9286704897150961E-013
  -2.8699999999999989E-002    -2.0138679948916022E-013
  -2.7599999999999986E-002    -5.0802434091098969E-013
  -2.6499999999999996E-002    -3.4833087477793845E-013
  -2.5399999999999992E-002     1.5552085986213215E-013
  -2.4299999999999988E-002     5.1518576731079957E-013
  -2.3199999999999985E-002     2.6571892472807002E-013
  -2.2099999999999995E-002    -5.6216977687567615E-013
  -2.0999999999999991E-002    -1.3048906573331909E-012
  -1.9899999999999987E-002    -1.0874778725092349E-012
  -1.8799999999999983E-002     4.1586688519917869E-013
  -1.7699999999999994E-002     2.4647504089786443E-012
  -1.6599999999999990E-002     3.5087974192826721E-012
  -1.5499999999999986E-002     2.2252471133105134E-012
  -1.4399999999999996E-002    -1.3105682988498457E-012
  -1.3299999999999992E-002    -5.2439632497458533E-012
  -1.2199999999999989E-002    -6.8539154386704215E-012
  -1.1099999999999985E-002    -4.3539729113750703E-012
  -9.9999999999999950E-003     1.5989334422455981E-012
  -8.8999999999999913E-003     7.8689858448721672E-012
  -7.7999999999999875E-003     1.0558369283042435E-011
  -6.6999999999999837E-003     7.5046704961501121E-012
  -5.5999999999999939E-003    -1.0848548621933407E-013
  -4.4999999999999901E-003    -8.2386987856897242E-012
  -3.3999999999999864E-003    -1.2388869444213135E-011
  -2.2999999999999826E-003    -1.0373317656242609E-011
  -1.1999999999999927E-003    -3.5687275617285463E-012
  -9.9999999999988987E-005     4.1842102699307659E-012
   1.0000000000000148E-003     9.1713086777800434E-012
   2.1000000000000185E-003     9.9630729014088537E-012
   3.2000000000000084E-003     7.6305316232261333E-012
   4.3000000000000121E-003     4.1194699561264425E-012
   5.4000000000000159E-003     4.0266772663617723E-013
   6.5000000000000058E-003    -3.8436341782965844E-012
   7.6000000000000234E-003    -8.7591236347384083E-012
   8.7000000000000133E-003    -1.2598283527509579E-011
   9.8000000000000032E-003    -1.1943346485410178E-011
   1.0900000000000021E-002    -4.4455407237353750E-012
   1.2000000000000011E-002     7.8407948536640681E-012
   1.3100000000000001E-002     1.7820758757558508E-011
   1.4200000000000018E-002     1.7254498177465827E-011
   1.5300000000000008E-002     3.3617071799885156E-012
   1.6400000000000026E-002    -1.6797936305823491E-011
   1.7500000000000016E-002    -2.8715082395214253E-011
   1.8600000000000005E-002    -1.9681138663241171E-011
   1.9700000000000023E-002     1.0722621575365299E-011
   2.0800000000000013E-002     4.6952816634693306E-011
   2.1900000000000003E-002     6.5095602519438245E-011
   2.3000000000000020E-002     4.8195378243853781E-011
   2.4100000000000010E-002    -9.3700221193149247E-013
   2.5200000000000000E-002    -5.9502021365620550E-011
   2.6300000000000018E-002    -9.8900894418552099E-011
   2.7400000000000008E-002    -1.0405071249053321E-010
   2.8500000000000025E-002    -8.2993445449375258E-011
   2.9600000000000015E-002    -5.7487400256794885E-011
   3.0700000000000005E-002    -3.9505405891038237E-011
   3.1800000000000023E-002    -1.1763020245358913E-011
   3.2900000000000013E-002     6.8239885964160862E-011
   3.4000000000000002E-002     2.3529117543219513E-010
   3.5100000000000020E-002     4.7126336166769534E-010
   3.6200000000000010E-002     6.7911348766713786E-010
   3.7300000000000028E-002     7.0289141174129099E-010
   3.8400000000000017E-002     3.9599704071413555E-010
   3.9500000000000007E-002    -2.9085753250335245E-010
   4.0600000000000025E-002    -1.2477645583430785E-009
   4.1700000000000015E-002    -2.2065669291748691E-009
   4.2800000000000005E-002    -2.8098714466295860E-009
   4.3900000000000022E-002    -2.7182662787339495E-009
   4.5000000000000012E-002    -1.7092294246623396E-009
   4.6100000000000002E-002     2.6677815512243797E-010
   4.7200000000000020E-002     3.0758271485353816E-009
   4.8300000000000010E-002     6.4093619300820137E-009
   4.9400000000000027E-002     9.7799457421388070E-009
   5.0500000000000017E-002     1.2492108680817182E-008
   5.1600000000000007E-002     1.3608127069630882E-008
   5.2700000000000025E-002     1.1946797329187575E-008
   5.3800000000000014E-002     6.1424119124353638E-009
   5.4900000000000004E-002    -5.2441233577837920E-009
   5.6000000000000022E-002    -2.3607228172295436E-008
   5.7100000000000012E-002    -5.0231065529260377E-008
   5.8200000000000002E-002    -8.6317143654923711E-008
   5.9300000000000019E-002    -1.3310616964190558E-007
   6.0400000000000009E-002    -1.9206051149467385E-007
   6.1500000000000027E-002    -2.6506478434384917E-007
   6.2600000000000017E-002    -3.5462247183204454E-007
   6.3700000000000007E-002    -4.6405779130509472E-007
   6.4800000000000024E-002    -5.9774885130536859E-007
   6.5900000000000014E-002    -7.6140776172906044E-007
   6.7000000000000004E-002    -9.6239023150701541E-007
   6.8100000000000022E-002    -1.2099859532099799E-006
   6.9200000000000012E-002    -1.5156379049585667E-006
   7.0300000000000029E-002    -1.8930733176603098E-006
   7.1400000000000019E-002    -2.3583857000630815E-006
   7.2500000000000009E-002    -2.9301636459422298E-006
   7.3600000000000027E-002    -3.6297892620495986E-006
   7.4700000000000016E-002    -4.4820008042734116E-006
   7.5800000000000006E-002    -5.5157597671495751E-006
   7.6900000000000024E-002    -6.7653663791134022E-006
   7.8000000000000014E-002    -8.2717087934724987E-006
   7.9100000000000004E-002    -1.0083489542012103E-005
   8.0200000000000021E-002    -1.2258288734301459E-005
   8.1300000000000011E-002    -1.4863428987155203E-005
   8.2400000000000029E-002    -1.7976684830500744E-005
   8.3500000000000019E-002    -2.1686997570213862E-005
   8.4600000000000009E-002    -2.6095402063219808E-005
   8.5700000000000026E-002    -3.1316336389863864E-005
   8.6800000000000016E-002    -3.7479345337487757E-005
   8.7900000000000006E-002    -4.4731150410370901E-005
   8.9000000000000024E-002    -5.3237785323290154E-005
   9.0100000000000013E-002    -6.3186693296302110E-005
   9.1200000000000003E-002    -7.4788491474464536E-005
   9.2300000000000021E-002    -8.8278575276490301E-005
   9.3400000000000011E-002    -1.0391841351520270E-004
   9.4500000000000028E-002    -1.2199681077618152E-004
   9.5600000000000018E-002    -1.4283103519119322E-004
   9.6700000000000008E-002    -1.6676781524438411E-004
   9.7800000000000026E-002    -1.9418391457293183E-004
   9.8900000000000016E-002    -2.2548639390151948E-004
  0.10000000000000001         -2.6111232000403106E-004
  0.10110000000000002         -3.0152799445204437E-004
  0.10220000000000001         -3.4722784766927361E-004
  0.10330000000000003         -3.9873263449408114E-004
  0.10440000000000002         -4.5658717863261700E-004
  0.10550000000000001         -5.2135693840682507E-004
  0.10660000000000003         -5.9362349566072226E-004
  0.10770000000000002         -6.7397864768281579E-004
  0.10880000000000001         -7.6301745139062405E-004
  0.10990000000000003         -8.6132989963516593E-004
  0.11100000000000002         -9.6949149155989289E-004
  0.11210000000000001         -1.0880531044676900E-003
  0.11320000000000002         -1.2175292940810323E-003
  0.11430000000000001         -1.3583855470642447E-003
  0.11540000000000003         -1.5110240783542395E-003
  0.11650000000000002         -1.6757686389610171E-003
  0.11760000000000001         -1.8528487998992205E-003
  0.11870000000000003         -2.0423829555511475E-003
  0.11980000000000002         -2.2443619091063738E-003
  0.12090000000000001         -2.4586326908320189E-003
  0.12200000000000003         -2.6848809793591499E-003
  0.12310000000000001         -2.9226143378764391E-003
  0.12420000000000003         -3.1711468473076820E-003
  0.12530000000000002         -3.4295830409973860E-003
  0.12640000000000001         -3.6968057975172997E-003
  0.12750000000000003         -3.9714640006422997E-003
  0.12860000000000002         -4.2519648559391499E-003
  0.12970000000000001         -4.5364694669842720E-003
  0.13080000000000003         -4.8228907398879528E-003
  0.13190000000000002         -5.1088947802782059E-003
  0.13300000000000001         -5.3919088095426559E-003
  0.13410000000000000         -5.6691300123929977E-003
  0.13520000000000004         -5.9375418350100517E-003
  0.13630000000000003         -6.1939344741404057E-003
  0.13740000000000002         -6.4349314197897911E-003
  0.13850000000000001         -6.6570187918841839E-003
  0.13960000000000000         -6.8565839901566505E-003
  0.14070000000000005         -7.0299548096954823E-003
  0.14180000000000004         -7.1734455414116383E-003
  0.14290000000000003         -7.2834049351513386E-003
  0.14400000000000002         -7.3562702164053917E-003
  0.14510000000000001         -7.3886220343410969E-003
  0.14620000000000000         -7.3772426694631577E-003
  0.14730000000000004         -7.3191733099520206E-003
  0.14840000000000003         -7.2117750532925129E-003
  0.14950000000000002         -7.0527833886444569E-003
  0.15060000000000001         -6.8403654731810093E-003
  0.15170000000000000         -6.5731699578464031E-003
  0.15280000000000005         -6.2503744848072529E-003
  0.15390000000000004         -5.8717257343232632E-003
  0.15500000000000003         -5.4375752806663513E-003
  0.15610000000000002         -4.9489042721688747E-003
  0.15720000000000001         -4.4073406606912613E-003
  0.15830000000000000         -3.8151689805090427E-003
  0.15940000000000004         -3.1753287184983492E-003
  0.16050000000000003         -2.4914015084505081E-003
  0.16160000000000002         -1.7675887793302536E-003
  0.16270000000000001         -1.0086785769090056E-003
  0.16380000000000000         -2.2000147146172822E-004
  0.16490000000000005          5.9262337163090706E-004
  0.16600000000000004          1.4229516964405775E-003
  0.16710000000000003          2.2643855772912502E-003
  0.16820000000000002          3.1100530177354813E-003
  0.16930000000000001          3.9528920315206051E-003
  0.17040000000000000          4.7857426106929779E-003
  0.17150000000000004          5.6014372967183590E-003
  0.17260000000000003          6.3928980380296707E-003
  0.17370000000000002          7.1532293222844601E-003
  0.17480000000000001          7.8758103772997856E-003
  0.17590000000000000          8.5543869063258171E-003
  0.17700000000000005          9.1831516474485397E-003
  0.17810000000000004          9.7568249329924583E-003
  0.17920000000000003          1.0270723141729832E-002
  0.18030000000000002          1.0720818303525448E-002
  0.18140000000000001          1.1103790253400803E-002
  0.18250000000000000          1.1417059227824211E-002
  0.18360000000000004          1.1658817529678345E-002
  0.18470000000000003          1.1828040704131126E-002
  0.18580000000000002          1.1924492195248604E-002
  0.18690000000000001          1.1948712170124054E-002
  0.18800000000000000          1.1901995167136192E-002
  0.18910000000000005          1.1786356568336487E-002
  0.19020000000000004          1.1604493483901024E-002
  0.19130000000000003          1.1359727010130882E-002
  0.19240000000000002          1.1055944487452507E-002
  0.19350000000000001          1.0697532445192337E-002
  0.19460000000000005          1.0289300233125687E-002
  0.19570000000000004          9.8364055156707764E-003
  0.19680000000000003          9.3442713841795921E-003
  0.19790000000000002          8.8185071945190430E-003
  0.19900000000000001          8.2648294046521187E-003
  0.20010000000000000          7.6889796182513237E-003
  0.20120000000000005          7.0966496132314205E-003
  0.20230000000000004          6.4934100955724716E-003
  0.20340000000000003          5.8846436440944672E-003
  0.20450000000000002          5.2754832431674004E-003
  0.20560000000000000          4.6707578003406525E-003
  0.20670000000000005          4.0749465115368366E-003
  0.20780000000000004          3.4921374171972275E-003
  0.20890000000000003          2.9259966686367989E-003
