 -0.12000000000000000          0.0000000000000000
 -0.11889999999999999          0.0000000000000000
 -0.11780000000000000          0.0000000000000000
 -0.11670000000000000          0.0000000000000000
 -0.11559999999999999          0.0000000000000000
 -0.11449999999999999          0.0000000000000000
 -0.11340000000000000          0.0000000000000000
 -0.11230000000000000          0.0000000000000000
 -0.11119999999999999          0.0000000000000000
 -0.11009999999999999          0.0000000000000000
 -0.10900000000000000          0.0000000000000000
 -0.10790000000000000          0.0000000000000000
 -0.10679999999999999          0.0000000000000000
 -0.10569999999999999          0.0000000000000000
 -0.10460000000000000          0.0000000000000000
 -0.10349999999999999          0.0000000000000000
 -0.10239999999999999          6.6611717715059931E-035
 -0.10130000000000000          5.7718701170793634E-034
 -0.10020000000000000         -1.8141262889576280E-033
  -9.9099999999999994E-002    -5.0984234525531239E-032
  -9.7999999999999990E-002    -3.3491498554927735E-031
  -9.6899999999999986E-002    -9.9528880989207725E-031
  -9.5799999999999996E-002     2.1607429343255734E-031
  -9.4699999999999993E-002     1.4808940273919094E-029
  -9.3599999999999989E-002     6.4005657622160556E-029
  -9.2499999999999999E-002     1.1628712041136659E-028
  -9.1399999999999995E-002    -1.2347579837353778E-028
  -9.0299999999999991E-002    -1.4131663115406950E-027
  -8.9200000000000002E-002    -4.1251932590857525E-027
  -8.8099999999999984E-002    -4.4539810858437416E-027
  -8.6999999999999994E-002     1.1476244448938283E-026
  -8.5899999999999990E-002     6.3035668590866763E-026
  -8.4799999999999986E-002     1.3166304212292458E-025
  -8.3699999999999997E-002     6.7158311148334169E-026
  -8.2599999999999993E-002    -4.5411054110364372E-025
  -8.1499999999999989E-002    -1.6173794258692943E-024
  -8.0399999999999999E-002    -2.5027852701910060E-024
  -7.9299999999999995E-002     4.0248275030054938E-026
  -7.8199999999999992E-002     1.0348400416990447E-023
  -7.7100000000000002E-002     2.7179811214380972E-023
  -7.5999999999999984E-002     3.1469561086325933E-023
  -7.4899999999999994E-002    -1.8558713257236936E-023
  -7.3799999999999991E-002    -1.5711998871308908E-022
  -7.2699999999999987E-002    -3.2582974514084249E-022
  -7.1599999999999997E-002    -2.7866866148795229E-022
  -7.0499999999999993E-002     3.6676170540706895E-022
  -6.9399999999999989E-002     1.7314283664637852E-021
  -6.8300000000000000E-002     2.9589946877512387E-021
  -6.7199999999999996E-002     1.8038212103463801E-021
  -6.6099999999999992E-002    -4.2686982667193606E-021
  -6.5000000000000002E-002    -1.4651517379202197E-020
  -6.3899999999999985E-002    -2.1316883825191942E-020
  -6.2799999999999995E-002    -8.7469486860209660E-021
  -6.1699999999999991E-002     3.5504792320452310E-020
  -6.0599999999999994E-002     9.9156918836601723E-020
  -5.9499999999999990E-002     1.2672412154191212E-019
  -5.8399999999999994E-002     3.3100801896394341E-020
  -5.7299999999999990E-002    -2.2724889984364392E-019
  -5.6199999999999986E-002    -5.5417942245088667E-019
  -5.5099999999999996E-002    -6.4541873648519274E-019
  -5.3999999999999992E-002    -1.1419311074355802E-019
  -5.2899999999999989E-002     1.1645240983013942E-018
  -5.1799999999999985E-002     2.6298154100252852E-018
  -5.0699999999999995E-002     2.9220399156716406E-018
  -4.9599999999999991E-002     5.0967250430337646E-019
  -4.8499999999999988E-002    -4.8982819325404556E-018
  -4.7399999999999998E-002    -1.0874930278344854E-017
  -4.6299999999999994E-002    -1.2146018193805077E-017
  -4.5199999999999990E-002    -3.1004532612222843E-018
  -4.4099999999999986E-002     1.7210802898256025E-017
  -4.2999999999999997E-002     4.0164297272994094E-017
  -4.1899999999999993E-002     4.7275651717173728E-017
  -4.0799999999999989E-002     1.8513857208488359E-017
  -3.9699999999999985E-002    -5.1216608161894819E-017
  -3.8599999999999995E-002    -1.3528602445775812E-016
  -3.7499999999999992E-002    -1.7261123272767831E-016
  -3.6399999999999988E-002    -9.2742424870816495E-017
  -3.5299999999999984E-002     1.3052450815410687E-016
  -3.4199999999999994E-002     4.2082788517344661E-016
  -3.3099999999999991E-002     5.8390761496434989E-016
  -3.1999999999999987E-002     3.8364028005278585E-016
  -3.0899999999999997E-002    -2.8550097814109368E-016
  -2.9799999999999993E-002    -1.2083971078272453E-015
  -2.8699999999999989E-002    -1.7984813399825328E-015
  -2.7599999999999986E-002    -1.3352362682720774E-015
  -2.6499999999999996E-002     5.1424910768981392E-016
  -2.5399999999999992E-002     3.1548309632561077E-015
  -2.4299999999999988E-002     4.9659161534937844E-015
  -2.3199999999999985E-002     4.0118195122559614E-015
  -2.2099999999999995E-002    -5.6496038790677765E-016
  -2.0999999999999991E-002    -7.2586750995170916E-015
  -1.9899999999999987E-002    -1.2148740299617201E-014
  -1.8799999999999983E-002    -1.0732341122580979E-014
  -1.7699999999999994E-002    -1.0373591329199735E-015
  -1.6599999999999990E-002     1.3871048813686102E-014
  -1.5499999999999986E-002     2.6097451023138207E-014
  -1.4399999999999996E-002     2.6551890975603717E-014
  -1.3299999999999992E-002     1.0414316673303722E-014
  -1.2199999999999989E-002    -1.8739463851654391E-014
  -1.1099999999999985E-002    -4.8786146699059466E-014
  -9.9999999999999950E-003    -6.3201356583116042E-014
  -8.8999999999999913E-003    -4.7676204889372797E-014
  -7.7999999999999875E-003     2.8945961838382217E-015
  -6.6999999999999837E-003     7.8133151532912282E-014
  -5.5999999999999939E-003     1.4808765108273447E-013
  -4.4999999999999901E-003     1.6611217338712708E-013
  -3.3999999999999864E-003     8.6282170915375628E-014
  -2.2999999999999826E-003    -1.0217141802743024E-013
  -1.1999999999999927E-003    -3.3750601055246299E-013
  -9.9999999999988987E-005    -4.7834587853234911E-013
   1.0000000000000148E-003    -3.6031822057275287E-013
   2.1000000000000185E-003     8.5511906258196879E-014
   3.2000000000000084E-003     7.1560715252799723E-013
   4.3000000000000121E-003     1.1632754221696517E-012
   5.4000000000000159E-003     1.0070563090033846E-012
   6.5000000000000058E-003     7.2193119537988792E-014
   7.6000000000000234E-003    -1.3203806537714913E-012
   8.7000000000000133E-003    -2.3848412394195107E-012
   9.8000000000000032E-003    -2.2702922441303341E-012
   1.0900000000000021E-002    -6.5017631036001777E-013
   1.2000000000000011E-002     1.8904010301579177E-012
   1.3100000000000001E-002     4.0150929456195250E-012
   1.4200000000000018E-002     4.3502415211782441E-012
   1.5300000000000008E-002     2.3388218445274944E-012
   1.6400000000000026E-002    -1.3403314916282660E-012
   1.7500000000000016E-002    -5.0859663702773616E-012
   1.8600000000000005E-002    -7.1852628014124065E-012
   1.9700000000000023E-002    -6.5443297482536966E-012
   2.0800000000000013E-002    -2.9376904554789807E-012
   2.1900000000000003E-002     3.0760034276655634E-012
   2.3000000000000020E-002     1.0085437693319044E-011
   2.4100000000000010E-002     1.5468619440905940E-011
   2.5200000000000000E-002     1.5436693590054062E-011
   2.6300000000000018E-002     6.5487142618392280E-012
   2.7400000000000008E-002    -1.1164184160472601E-011
   2.8500000000000025E-002    -3.1300080582941092E-011
   2.9600000000000015E-002    -4.1604383133053702E-011
   3.0700000000000005E-002    -2.9920274591255236E-011
   3.1800000000000023E-002     6.3651462572922313E-012
   3.2900000000000013E-002     5.3581063197416512E-011
   3.4000000000000002E-002     8.4615696394063633E-011
   3.5100000000000020E-002     7.3137329525962969E-011
   3.6200000000000010E-002     1.2418715361617316E-011
   3.7300000000000028E-002    -7.3920376764124995E-011
   3.8400000000000017E-002    -1.3943285415152218E-010
   3.9500000000000007E-002    -1.3968273759878969E-010
   4.0600000000000025E-002    -6.0638279120173166E-011
   4.1700000000000015E-002     6.7924950386544225E-011
   4.2800000000000005E-002     1.8438935101006138E-010
   4.3900000000000022E-002     2.2668572574602308E-010
   4.5000000000000012E-002     1.6445295125677717E-010
   4.6100000000000002E-002     1.3818036992407912E-011
   4.7200000000000020E-002    -1.7043959299467559E-010
   4.8300000000000010E-002    -3.1632835240102963E-010
   4.9400000000000027E-002    -3.5690306265934169E-010
   5.0500000000000017E-002    -2.4870933090781477E-010
   5.1600000000000007E-002     9.1415208736123077E-012
   5.2700000000000025E-002     3.5389863262125232E-010
   5.3800000000000014E-002     6.5051519726466722E-010
   5.4900000000000004E-002     7.2179773269454017E-010
   5.6000000000000022E-002     4.3116241132956645E-010
   5.7100000000000012E-002    -2.0848589521449412E-010
   5.8200000000000002E-002    -9.6865759857678313E-010
   5.9300000000000019E-002    -1.4551577720567366E-009
   6.0400000000000009E-002    -1.2913421443272455E-009
   6.1500000000000027E-002    -3.5918867880013750E-010
   6.2600000000000017E-002     1.0456395749258718E-009
   6.3700000000000007E-002     2.2722597137203593E-009
   6.4800000000000024E-002     2.6039539413602597E-009
   6.5900000000000014E-002     1.6506460642773391E-009
   6.7000000000000004E-002    -3.7005748465546162E-010
   6.8100000000000022E-002    -2.6412396714192710E-009
   6.9200000000000012E-002    -4.0750713914405878E-009
   7.0300000000000029E-002    -3.8185055117878619E-009
   7.1400000000000019E-002    -1.6952416137527848E-009
   7.2500000000000009E-002     1.6289890547582786E-009
   7.3600000000000027E-002     4.8423425269561449E-009
   7.4700000000000016E-002     6.4752634365561335E-009
   7.5800000000000006E-002     5.5038684720898345E-009
   7.6900000000000024E-002     1.8521770783763714E-009
   7.8000000000000014E-002    -3.4026572670597943E-009
   7.9100000000000004E-002    -8.2525000166810969E-009
   8.0200000000000021E-002    -1.0422916751906541E-008
   8.1300000000000011E-002    -8.3261575412052480E-009
   8.2400000000000029E-002    -1.9622357072535124E-009
   8.3500000000000019E-002     6.6779444196640725E-009
   8.4600000000000009E-002     1.4064589493045787E-008
   8.5700000000000026E-002     1.6465806496057667E-008
   8.6800000000000016E-002     1.1731646765156256E-008
   8.7900000000000006E-002     7.1358341457994356E-010
   8.9000000000000024E-002    -1.2518347247691963E-008
   9.0100000000000013E-002    -2.2058696202975625E-008
   9.1200000000000003E-002    -2.2775092034521549E-008
   9.2300000000000021E-002    -1.3024473943801240E-008
   9.3400000000000011E-002     3.9261069950669025E-009
   9.4500000000000028E-002     2.0753301299691884E-008
   9.5600000000000018E-002     2.9153536473813801E-008
   9.6700000000000008E-002     2.3910903479418266E-008
   9.7800000000000026E-002     6.0172657967427767E-009
   9.8900000000000016E-002    -1.6888538567627620E-008
  0.10000000000000001         -3.3366383433985902E-008
  0.10110000000000002         -3.3342168137551198E-008
  0.10220000000000001         -1.3383704811076313E-008
  0.10330000000000003          2.0419623325551584E-008
  0.10440000000000002          5.3620620832361965E-008
  0.10550000000000001          6.8613807968631590E-008
  0.10660000000000003          5.2115513682338133E-008
  0.10770000000000002          2.0442421089228446E-009
  0.10880000000000001         -6.9146167902545130E-008
  0.10990000000000003         -1.3658947750627703E-007
  0.11100000000000002         -1.7063719326415594E-007
  0.11210000000000001         -1.4789850411034422E-007
  0.11320000000000002         -6.1847948984450341E-008
  0.11430000000000001          7.1425091618948500E-008
  0.11540000000000003          2.1560043705903809E-007
  0.11650000000000002          3.2503302804798295E-007
  0.11760000000000001          3.6081749499317084E-007
  0.11870000000000003          3.0567085218535794E-007
  0.11980000000000002          1.7082892611597345E-007
  0.12090000000000001         -8.9696357008506311E-009
  0.12200000000000003         -1.9094571257483040E-007
  0.12310000000000001         -3.4322331998737354E-007
  0.12420000000000003         -4.5760532429994782E-007
  0.12530000000000002         -5.4853211395311519E-007
  0.12640000000000001         -6.3688543150419719E-007
  0.12750000000000003         -7.2521783067713841E-007
  0.12860000000000002         -7.7668403264397057E-007
  0.12970000000000001         -7.1032974346962874E-007
  0.13080000000000003         -4.1971583186750649E-007
  0.13190000000000002          1.8775867260956147E-007
  0.13300000000000001          1.1429658570705215E-006
  0.13410000000000000          2.3758484530844726E-006
  0.13520000000000004          3.7004733712819871E-006
  0.13630000000000003          4.8318447625206318E-006
  0.13740000000000002          5.4306606216414366E-006
  0.13850000000000001          5.1620972953969613E-006
  0.13960000000000000          3.7497607081604656E-006
  0.14070000000000005          1.0076946637127548E-006
  0.14180000000000004         -3.1589552236255258E-006
  0.14290000000000003         -8.7836187958600931E-006
  0.14400000000000002         -1.5887815607129596E-005
  0.14510000000000001         -2.4534641852369532E-005
  0.14620000000000000         -3.4870827221311629E-005
  0.14730000000000004         -4.7148161684162915E-005
  0.14840000000000003         -6.1725455452688038E-005
  0.14950000000000002         -7.9062760050874203E-005
  0.15060000000000001         -9.9726385087706149E-005
  0.15170000000000000         -1.2442172737792134E-004
  0.15280000000000005         -1.5406165039166808E-004
  0.15390000000000004         -1.8986205395776778E-004
  0.15500000000000003         -2.3344082001131028E-004
  0.15610000000000002         -2.8688996098935604E-004
  0.15720000000000001         -3.5279744770377874E-004
  0.15830000000000000         -4.3421602458693087E-004
  0.15940000000000004         -5.3460634080693126E-004
  0.16050000000000003         -6.5779767464846373E-004
  0.16160000000000002         -8.0801150761544704E-004
  0.16270000000000001         -9.8998099565505981E-004
  0.16380000000000000         -1.2091572862118483E-003
  0.16490000000000005         -1.4719677856191993E-003
  0.16600000000000004         -1.7860702937468886E-003
  0.16710000000000003         -2.1605459041893482E-003
  0.16820000000000002         -2.6060049422085285E-003
  0.16930000000000001         -3.1346220057457685E-003
  0.17040000000000000         -3.7601375952363014E-003
  0.17150000000000004         -4.4978996738791466E-003
  0.17260000000000003         -5.3649833425879478E-003
  0.17370000000000002         -6.3803941011428833E-003
  0.17480000000000001         -7.5653372332453728E-003
  0.17590000000000000         -8.9434804394841194E-003
  0.17700000000000005         -1.0541179217398167E-002
  0.17810000000000004         -1.2387593276798725E-002
  0.17920000000000003         -1.4514675363898277E-002
  0.18030000000000002         -1.6957083716988564E-002
  0.18140000000000001         -1.9752018153667450E-002
  0.18250000000000000         -2.2939056158065796E-002
  0.18360000000000004         -2.6559978723526001E-002
  0.18470000000000003         -3.0658474192023277E-002
  0.18580000000000002         -3.5279858857393265E-002
  0.18690000000000001         -4.0470860898494720E-002
  0.18800000000000000         -4.6279218047857285E-002
  0.18910000000000005         -5.2753116935491562E-002
  0.19020000000000004         -5.9940509498119354E-002
  0.19130000000000003         -6.7888088524341583E-002
  0.19240000000000002         -7.6640106737613678E-002
  0.19350000000000001         -8.6237028241157532E-002
  0.19460000000000005         -9.6713960170745850E-002
  0.19570000000000004        -0.10809927433729172
  0.19680000000000003        -0.12041325867176056
  0.19790000000000002        -0.13366653025150299
  0.19900000000000001        -0.14785812795162201
  0.20010000000000000        -0.16297376155853271
  0.20120000000000005        -0.17898440361022949
  0.20230000000000004        -0.19584406912326813
  0.20340000000000003        -0.21348731219768524
  0.20450000000000002        -0.23182760179042816
  0.20560000000000000        -0.25075528025627136
  0.20670000000000005        -0.27013674378395081
  0.20780000000000004        -0.28981351852416992
  0.20890000000000003        -0.30960145592689514
