 -0.12000000000000000          0.0000000000000000
 -0.11889999999999999          0.0000000000000000
 -0.11780000000000000          0.0000000000000000
 -0.11670000000000000          0.0000000000000000
 -0.11559999999999999          0.0000000000000000
 -0.11449999999999999          0.0000000000000000
 -0.11340000000000000          0.0000000000000000
 -0.11230000000000000          0.0000000000000000
 -0.11119999999999999          0.0000000000000000
 -0.11009999999999999          0.0000000000000000
 -0.10900000000000000         -2.2229808933230804E-031
 -0.10790000000000000          4.3855403425788664E-030
 -0.10679999999999999         -4.5568879524112237E-028
 -0.10569999999999999          2.8633510669872028E-028
 -0.10460000000000000         -3.6509483214234536E-028
 -0.10349999999999999         -8.2857197830056288E-026
 -0.10239999999999999         -2.2725381698090467E-025
 -0.10130000000000000          8.6576508132635835E-025
 -0.10020000000000000          4.0109896994365594E-024
  -9.9099999999999994E-002    -5.1471339964066381E-024
  -9.7999999999999990E-002    -5.3142428984667648E-023
  -9.6899999999999986E-002    -4.2992553303085121E-023
  -9.5799999999999996E-002     4.0092079624188091E-022
  -9.4699999999999993E-002     1.1414804676773557E-021
  -9.3599999999999989E-002    -7.3455511466042214E-022
  -9.2499999999999999E-002    -9.4239733991757446E-021
  -9.1399999999999995E-002    -1.4503531213324766E-020
  -9.0299999999999991E-002     2.7055853221562045E-020
  -8.9200000000000002E-002     1.3736850138409469E-019
  -8.8099999999999984E-002     1.3677100556319291E-019
  -8.6999999999999994E-002    -4.1367025845259592E-019
  -8.5899999999999990E-002    -1.4953832118303810E-018
  -8.4799999999999986E-002    -1.1374574044901638E-018
  -8.3699999999999997E-002     4.2295399081061411E-018
  -8.2599999999999993E-002     1.3219521612247820E-017
  -8.1499999999999989E-002     9.3649972697323949E-018
  -8.0399999999999999E-002    -3.2464063024570608E-017
  -7.9299999999999995E-002    -9.8750621471593359E-017
  -7.8199999999999992E-002    -7.6644186513889192E-017
  -7.7100000000000002E-002     1.9408093713706365E-016
  -7.5999999999999984E-002     6.3352955787158538E-016
  -7.4899999999999994E-002     5.8442726967749040E-016
  -7.3799999999999991E-002    -8.9288813464509596E-016
  -7.2699999999999987E-002    -3.5014213869212800E-015
  -7.1599999999999997E-002    -3.9370883364185563E-015
  -7.0499999999999993E-002     2.8514419727579832E-015
  -6.9399999999999989E-002     1.6579660279229802E-014
  -6.8300000000000000E-002     2.2883062632261808E-014
  -6.7199999999999996E-002    -2.8545194552135949E-015
  -6.6099999999999992E-002    -6.6245138985888269E-014
  -6.5000000000000002E-002    -1.1384701504007361E-013
  -6.3899999999999985E-002    -3.8196784737975012E-014
  -6.2799999999999995E-002     2.1568013488463406E-013
  -6.1699999999999991E-002     4.8274405306525381E-013
  -6.0599999999999994E-002     3.4742052442381099E-013
  -5.9499999999999990E-002    -5.1963538723678870E-013
  -5.8399999999999994E-002    -1.7296354236015499E-012
  -5.7299999999999990E-002    -1.8769944366142655E-012
  -5.6199999999999986E-002     5.6611014704124885E-013
  -5.5099999999999996E-002     5.1238748487170138E-012
  -5.3999999999999992E-002     7.7181811289350755E-012
  -5.2899999999999989E-002     2.5002270219454115E-012
  -5.1799999999999985E-002    -1.1849036508915223E-011
  -5.0699999999999995E-002    -2.5564144551237789E-011
  -4.9599999999999991E-002    -1.9764901521002187E-011
  -4.8499999999999988E-002     1.7401913243730860E-011
  -4.7399999999999998E-002     6.8530146835055206E-011
  -4.6299999999999994E-002     8.2172817161829670E-011
  -4.5199999999999990E-002     7.2824645619418149E-012
  -4.4099999999999986E-002    -1.4282046378877311E-010
  -4.2999999999999997E-002    -2.5207891329870336E-010
  -4.1899999999999993E-002    -1.5718978896295255E-010
  -4.0799999999999989E-002     1.9579839138916810E-010
  -3.9699999999999985E-002     6.0321297956633657E-010
  -3.8599999999999995E-002     6.4512373221248254E-010
  -3.7499999999999992E-002     6.1628159173099384E-012
  -3.6399999999999988E-002    -1.0955414353475135E-009
  -3.5299999999999984E-002    -1.7837354926442117E-009
  -3.4199999999999994E-002    -1.0454813681448627E-009
  -3.3099999999999991E-002     1.2616100386608764E-009
  -3.1999999999999987E-002     3.7131180352645288E-009
  -3.0899999999999997E-002     3.8722709483351991E-009
  -2.9799999999999993E-002     2.3713603303221475E-010
  -2.8699999999999989E-002    -5.6824354111029152E-009
  -2.7599999999999986E-002    -9.2535579199193307E-009
  -2.6499999999999996E-002    -5.7355964422356465E-009
  -2.5399999999999992E-002     5.0489075142934325E-009
  -2.4299999999999988E-002     1.6287655668634216E-008
  -2.3199999999999985E-002     1.7507129967953006E-008
  -2.2099999999999995E-002     3.0292444108681593E-009
  -2.0999999999999991E-002    -2.0459031802033678E-008
  -1.9899999999999987E-002    -3.4992158504110193E-008
  -1.8799999999999983E-002    -2.3645242208658601E-008
  -1.7699999999999994E-002     1.3199108472861099E-008
  -1.6599999999999990E-002     5.1607138118470175E-008
  -1.5499999999999986E-002     5.7573892320306186E-008
  -1.4399999999999996E-002     1.4730820119268628E-008
  -1.3299999999999992E-002    -5.4645219904614351E-008
  -1.2199999999999989E-002    -9.7183182390381262E-008
  -1.1099999999999985E-002    -6.6974564560950967E-008
  -9.9999999999999950E-003     3.0522194549575943E-008
  -8.8999999999999913E-003     1.2795588588687679E-007
  -7.7999999999999875E-003     1.3871374449081486E-007
  -6.6999999999999837E-003     2.9477922325327199E-008
  -5.5999999999999939E-003    -1.3474847548877733E-007
  -4.4999999999999901E-003    -2.2184042336448329E-007
  -3.3999999999999864E-003    -1.3289093203638913E-007
  -2.2999999999999826E-003     1.0000196937198780E-007
  -1.1999999999999927E-003     3.0712681109434925E-007
  -9.9999999999988987E-005     2.9576065685432695E-007
   1.0000000000000148E-003     1.5393132102303753E-008
   2.1000000000000185E-003    -3.5998155567540380E-007
   3.2000000000000084E-003    -5.2603172662202269E-007
   4.3000000000000121E-003    -2.8003509555674100E-007
   5.4000000000000159E-003     2.7767802635025873E-007
   6.5000000000000058E-003     7.5416539857542375E-007
   7.6000000000000234E-003     7.2678869855735684E-007
   8.7000000000000133E-003     9.2405507245985063E-008
   9.8000000000000032E-003    -7.7301376677496592E-007
   1.0900000000000021E-002    -1.2192056146886898E-006
   1.2000000000000011E-002    -7.9679193731863052E-007
   1.3100000000000001E-002     3.3535400234541157E-007
   1.4200000000000018E-002     1.4191211903380463E-006
   1.5300000000000008E-002     1.5949074168020161E-006
   1.6400000000000026E-002     5.7304771416966105E-007
   1.7500000000000016E-002    -1.0355727226851741E-006
   1.8600000000000005E-002    -2.0580803266057046E-006
   1.9700000000000023E-002    -1.6083220089058159E-006
   2.0800000000000013E-002     1.5588278756695217E-007
   2.1900000000000003E-002     1.9968897504440974E-006
   2.3000000000000020E-002     2.4321109322045231E-006
   2.4100000000000010E-002     9.0437197286519222E-007
   2.5200000000000000E-002    -1.6119158772198716E-006
   2.6300000000000018E-002    -3.1598792702425271E-006
   2.7400000000000008E-002    -2.2507899757329142E-006
   2.8500000000000025E-002     8.1953419339697575E-007
   2.9600000000000015E-002     3.8920934457564726E-006
   3.0700000000000005E-002     4.3832765186380129E-006
   3.1800000000000023E-002     1.3268881957628764E-006
   3.2900000000000013E-002    -3.5415851016296074E-006
   3.4000000000000002E-002    -6.7004984884988517E-006
   3.5100000000000020E-002    -5.3464145821635611E-006
   3.6200000000000010E-002     2.7413540237830603E-007
   3.7300000000000028E-002     6.5964650275418535E-006
   3.8400000000000017E-002     9.0415569502511062E-006
   3.9500000000000007E-002     5.4085298870631959E-006
   4.0600000000000025E-002    -2.1932767140242504E-006
   4.1700000000000015E-002    -8.5659476098953746E-006
   4.2800000000000005E-002    -9.1590891315718181E-006
   4.3900000000000022E-002    -3.5894195207220037E-006
   4.5000000000000012E-002     3.8927419154788367E-006
   4.6100000000000002E-002     7.6184669524081983E-006
   4.7200000000000020E-002     5.0539356379886158E-006
   4.8300000000000010E-002    -9.9976489309483441E-007
   4.9400000000000027E-002    -4.6483905862260144E-006
   5.0500000000000017E-002    -2.0953762032149825E-006
   5.1600000000000007E-002     4.4782614168070722E-006
   5.2700000000000025E-002     8.0657009675633162E-006
   5.3800000000000014E-002     2.8466529329307377E-006
   5.4900000000000004E-002    -9.5330497060786001E-006
   5.6000000000000022E-002    -1.9205857824999839E-005
   5.7100000000000012E-002    -1.4960145563236438E-005
   5.8200000000000002E-002     5.4892334446776658E-006
   5.9300000000000019E-002     3.0174236599123105E-005
   6.0400000000000009E-002     3.8664929888909683E-005
   6.1500000000000027E-002     1.7161470168503001E-005
   6.2600000000000017E-002    -2.7359892555978149E-005
   6.3700000000000007E-002    -6.6147469624411315E-005
   6.4800000000000024E-002    -6.5389795054215938E-005
   6.5900000000000014E-002    -1.1981604984612204E-005
   6.7000000000000004E-002     6.9811911089345813E-005
   6.8100000000000022E-002     1.2631430581677705E-004
   6.9200000000000012E-002     1.0716379620134830E-004
   7.0300000000000029E-002     3.9770616240275558E-006
   7.1400000000000019E-002    -1.3266733731143177E-004
   7.2500000000000009E-002    -2.1541044407058507E-004
   7.3600000000000027E-002    -1.7375138122588396E-004
   7.4700000000000016E-002    -7.0109886110003572E-006
   7.5800000000000006E-002     2.0109533215872943E-004
   7.6900000000000024E-002     3.2342891790904105E-004
   7.8000000000000014E-002     2.6692028040997684E-004
   7.9100000000000004E-002     3.9178463339339942E-005
   8.0200000000000021E-002    -2.4253691663034260E-004
   8.1300000000000011E-002    -4.1355236317031085E-004
   8.2400000000000029E-002    -3.6206925869919360E-004
   8.3500000000000019E-002    -1.0485972597962245E-004
   8.4600000000000009E-002     2.1424859005492181E-004
   8.5700000000000026E-002     4.0890480158850551E-004
   8.6800000000000016E-002     3.6829637247137725E-004
   8.7900000000000006E-002     1.3233935169409961E-004
   8.9000000000000024E-002    -1.3006596418563277E-004
   9.0100000000000013E-002    -2.3287157819140702E-004
   9.1200000000000003E-002    -1.0607157310005277E-004
   9.2300000000000021E-002     1.3989665603730828E-004
   9.3400000000000011E-002     2.7159735327586532E-004
   9.4500000000000028E-002     8.8467269961256534E-005
   9.5600000000000018E-002    -4.1563357808627188E-004
   9.6700000000000008E-002    -9.9419674370437860E-004
   9.7800000000000026E-002    -1.2495174305513501E-003
   9.8900000000000016E-002    -8.5512199439108372E-004
  0.10000000000000001          2.2148597054183483E-004
  0.10110000000000002          1.6329521313309669E-003
  0.10220000000000001          2.7745610568672419E-003
  0.10330000000000003          3.0702985823154449E-003
  0.10440000000000002          2.2756657563149929E-003
  0.10550000000000001          6.2507437542080879E-004
  0.10660000000000003         -1.2747599976137280E-003
  0.10770000000000002         -2.7652457356452942E-003
  0.10880000000000001         -3.5016764886677265E-003
  0.10990000000000003         -3.6549495998769999E-003
  0.11100000000000002         -3.8190460763871670E-003
  0.11210000000000001         -4.6593663282692432E-003
  0.11320000000000002         -6.4977416768670082E-003
  0.11430000000000001         -9.0894410386681557E-003
  0.11540000000000003         -1.1756231077015400E-002
  0.11650000000000002         -1.3833698816597462E-002
  0.11760000000000001         -1.5185190364718437E-002
  0.11870000000000003         -1.6453929245471954E-002
  0.11980000000000002         -1.8846470862627029E-002
  0.12090000000000001         -2.3510474711656570E-002
  0.12200000000000003         -3.0849261209368706E-002
  0.12310000000000001         -4.0218345820903778E-002
  0.12420000000000003         -5.0282049924135208E-002
  0.12530000000000002         -5.9923969209194183E-002
  0.12640000000000001         -6.9239661097526550E-002
  0.12750000000000003         -7.9984247684478760E-002
  0.12860000000000002         -9.5100738108158112E-002
  0.12970000000000001        -0.11746183037757874
  0.13080000000000003        -0.14847509562969208
  0.13190000000000002        -0.18738217651844025
  0.13300000000000001        -0.23178066313266754
  0.13410000000000000        -0.27919775247573853
  0.13520000000000004        -0.32891640067100525
  0.13630000000000003        -0.38299900293350220
  0.13740000000000002        -0.44586184620857239
  0.13850000000000001        -0.52259898185729980
  0.13960000000000000        -0.61697340011596680
  0.14070000000000005        -0.73027282953262329
  0.14180000000000004        -0.86171758174896240
  0.14290000000000003         -1.0101772546768188
  0.14400000000000002         -1.1761265993118286
  0.14510000000000001         -1.3625692129135132
  0.14620000000000000         -1.5742439031600952
  0.14730000000000004         -1.8156909942626953
  0.14840000000000003         -2.0893371105194092
  0.14950000000000002         -2.3949875831604004
  0.15060000000000001         -2.7311806678771973
  0.15170000000000000         -3.0974440574645996
  0.15280000000000005         -3.4965014457702637
  0.15390000000000004         -3.9340434074401855
  0.15500000000000003         -4.4168124198913574
  0.15610000000000002         -4.9491362571716309
  0.15720000000000001         -5.5306787490844727
  0.15830000000000000         -6.1559433937072754
  0.15940000000000004         -6.8171229362487793
  0.16050000000000003         -7.5073556900024414
  0.16160000000000002         -8.2234077453613281
  0.16270000000000001         -8.9654970169067383
  0.16380000000000000         -9.7343769073486328
  0.16490000000000005         -10.527493476867676
  0.16600000000000004         -11.335468292236328
  0.16710000000000003         -12.143610000610352
  0.16820000000000002         -12.933860778808594
  0.16930000000000001         -13.689379692077637
  0.17040000000000000         -14.396331787109375
  0.17150000000000004         -15.044170379638672
  0.17260000000000003         -15.621034622192383
  0.17370000000000002         -16.111099243164062
  0.17480000000000001         -16.492128372192383
  0.17590000000000000         -16.733745574951172
  0.17700000000000005         -16.802913665771484
  0.17810000000000004         -16.671676635742188
  0.17920000000000003         -16.317865371704102
  0.18030000000000002         -15.726410865783691
  0.18140000000000001         -14.884027481079102
  0.18250000000000000         -13.774991035461426
  0.18360000000000004         -12.380940437316895
  0.18470000000000003         -10.680872917175293
  0.18580000000000002         -8.6547403335571289
  0.18690000000000001         -6.2882657051086426
  0.18800000000000000         -3.5744717121124268
  0.18910000000000005        -0.51608139276504517
  0.19020000000000004          2.8769981861114502
  0.19130000000000003          6.5899853706359863
  0.19240000000000002          10.599638938903809
  0.19350000000000001          14.883685111999512
  0.19460000000000005          19.414598464965820
  0.19570000000000004          24.151340484619141
  0.19680000000000003          29.048507690429688
  0.19790000000000002          34.047809600830078
  0.19900000000000001          39.086456298828125
  0.20010000000000000          44.101150512695312
  0.20120000000000005          49.025272369384766
  0.20230000000000004          53.790954589843750
  0.20340000000000003          58.322013854980469
  0.20450000000000002          62.537849426269531
  0.20560000000000000          66.352897644042969
  0.20670000000000005          69.679634094238281
  0.20780000000000004          72.431816101074219
  0.20890000000000003          74.538787841796875
