 -0.12000000000000000          0.0000000000000000
 -0.11889999999999999          0.0000000000000000
 -0.11780000000000000          0.0000000000000000
 -0.11670000000000000          0.0000000000000000
 -0.11559999999999999          0.0000000000000000
 -0.11449999999999999          0.0000000000000000
 -0.11340000000000000          0.0000000000000000
 -0.11230000000000000          0.0000000000000000
 -0.11119999999999999          0.0000000000000000
 -0.11009999999999999          0.0000000000000000
 -0.10900000000000000          0.0000000000000000
 -0.10790000000000000          0.0000000000000000
 -0.10679999999999999          0.0000000000000000
 -0.10569999999999999          0.0000000000000000
 -0.10460000000000000          0.0000000000000000
 -0.10349999999999999          0.0000000000000000
 -0.10239999999999999          0.0000000000000000
 -0.10130000000000000         -1.3695499736938111E-037
 -0.10020000000000000         -7.0760083842578195E-037
  -9.9099999999999994E-002    -3.2321379468857045E-035
  -9.7999999999999990E-002     1.8991092729399243E-035
  -9.6899999999999986E-002     1.6361557784357865E-034
  -9.5799999999999996E-002     2.3373653362684253E-035
  -9.4699999999999993E-002     1.4959138152117922E-033
  -9.3599999999999989E-002     6.3576340131154792E-033
  -9.2499999999999999E-002     1.1967310521694337E-032
  -9.1399999999999995E-002    -5.6844726263745049E-032
  -9.0299999999999991E-002    -7.1803861660798085E-032
  -8.9200000000000002E-002    -1.9147696834710940E-031
  -8.8099999999999984E-002     5.7443089328638468E-031
  -8.6999999999999994E-002     1.7232927738987021E-030
  -8.5899999999999990E-002     7.6590787338843759E-031
  -8.4799999999999986E-002    -1.5318157467768752E-030
  -8.3699999999999997E-002    -3.0636314935537504E-030
  -8.2599999999999993E-002     6.1272629871075007E-030
  -8.1499999999999989E-002     0.0000000000000000
  -8.0399999999999999E-002    -1.9607241558744002E-028
  -7.9299999999999995E-002    -5.3919913985619452E-028
  -7.8199999999999992E-002     1.0783982797123890E-027
  -7.7100000000000002E-002    -7.8428966234976009E-028
  -7.5999999999999984E-002     3.9214483117488005E-028
  -7.4899999999999994E-002     9.4114757556041267E-027
  -7.3799999999999991E-002    -3.1371586493990404E-027
  -7.2699999999999987E-002    -9.4114757556041267E-027
  -7.1599999999999997E-002    -1.2548634597596161E-026
  -7.0499999999999993E-002    -7.5291806044833013E-026
  -6.9399999999999989E-002     3.7645903022416507E-026
  -6.8300000000000000E-002     3.0116722417933205E-025
  -6.7199999999999996E-002     0.0000000000000000
  -6.6099999999999992E-002     2.0077815356153858E-025
  -6.5000000000000002E-002    -1.3050579550091700E-024
  -6.3899999999999985E-002    -8.0311261424615433E-025
  -6.2799999999999995E-002     2.6101159100183401E-024
  -6.1699999999999991E-002     6.4249009139692347E-024
  -6.0599999999999994E-002    -4.8186755868693128E-024
  -5.9499999999999990E-002    -1.2849801827938469E-023
  -5.8399999999999994E-002     3.2124504569846173E-024
  -5.7299999999999990E-002     3.2124504569846173E-024
  -5.6199999999999986E-002    -1.2849801827938469E-023
  -5.5099999999999996E-002     2.5699603655876939E-023
  -5.3999999999999992E-002     2.5699603655876939E-023
  -5.2899999999999989E-002    -1.2849801827938469E-023
  -5.1799999999999985E-002    -5.1399207311753877E-023
  -5.0699999999999995E-002     0.0000000000000000
  -4.9599999999999991E-002    -4.6259288158300300E-022
  -4.8499999999999988E-002    -5.1399207311753877E-023
  -4.7399999999999998E-002     2.0559682924701551E-022
  -4.6299999999999994E-002     1.0279841588568520E-021
  -4.5199999999999990E-002     2.0559682924701551E-022
  -4.4099999999999986E-002     1.8503715263320120E-021
  -4.2999999999999997E-002     8.2238731698806204E-022
  -4.1899999999999993E-002    -2.4671619004770882E-021
  -4.0799999999999989E-002    -9.0462604363815845E-021
  -3.9699999999999985E-002    -3.2895492679522482E-021
  -3.8599999999999995E-002     1.8092520872763169E-020
  -3.7499999999999992E-002     9.8686476019083527E-021
  -3.6399999999999988E-002    -3.2895492679522482E-021
  -3.5299999999999984E-002     0.0000000000000000
  -3.4199999999999994E-002     1.9737295203816705E-020
  -3.3099999999999991E-002    -6.5790986166838530E-020
  -3.1999999999999987E-002    -5.2632788287235970E-020
  -3.0899999999999997E-002     6.5790985359044963E-021
  -2.9799999999999993E-002     1.0526557657447194E-019
  -2.8699999999999989E-002     1.5789836163053364E-019
  -2.7599999999999986E-002     7.8949180815266822E-020
  -2.6499999999999996E-002    -2.1053115314894388E-019
  -2.5399999999999992E-002    -1.8421476385208730E-019
  -2.4299999999999988E-002     0.0000000000000000
  -2.3199999999999985E-002     1.0526557657447194E-019
  -2.2099999999999995E-002     5.2632788287235970E-020
  -2.0999999999999991E-002     3.1579672326106729E-019
  -1.9899999999999987E-002     2.1053115314894388E-019
  -1.8799999999999983E-002     2.1053115314894388E-019
  -1.7699999999999994E-002    -1.0526557786694165E-018
  -1.6599999999999990E-002    -2.5263737860885383E-018
  -1.5499999999999986E-002    -4.2106230629788776E-019
  -1.4399999999999996E-002     2.1053115573388330E-018
  -1.3299999999999992E-002     4.2106231146776659E-018
  -1.2199999999999989E-002     7.1580595431062158E-018
  -1.1099999999999985E-002    -3.3684984503831021E-018
  -9.9999999999999950E-003    -1.5158243543711842E-017
  -8.8999999999999913E-003    -1.5158243543711842E-017
  -7.7999999999999875E-003    -5.0527475721770766E-018
  -6.6999999999999837E-003     3.7895608859279606E-017
  -5.5999999999999939E-003     5.0527477376131991E-017
  -4.4999999999999901E-003     2.6947987603064817E-017
  -3.3999999999999864E-003    -2.3579489773067174E-017
  -2.2999999999999826E-003    -1.6000367670339008E-016
  -1.1999999999999927E-003    -1.4821393098967588E-016
  -9.9999999999988987E-005    -2.6947987603064817E-017
   1.0000000000000148E-003     2.1558390082451853E-016
   2.1000000000000185E-003     4.7832675803411427E-016
   3.2000000000000084E-003     3.3011285351421799E-016
   4.3000000000000121E-003    -3.5032382725931404E-016
   5.4000000000000159E-003    -9.7012758679755791E-016
   6.5000000000000058E-003    -1.0240235520775202E-015
   7.6000000000000234E-003     2.2905790537939891E-016
   8.7000000000000133E-003     1.7785671718761106E-015
   9.8000000000000032E-003     2.5331108975538193E-015
   1.0900000000000021E-002     4.3116780164903707E-016
   1.2000000000000011E-002    -2.9373306900930957E-015
   1.3100000000000001E-002    -4.7967416510704720E-015
   1.4200000000000018E-002    -2.4792148263947386E-015
   1.5300000000000008E-002     3.3415504826323720E-015
   1.6400000000000026E-002     8.6233561388598598E-015
   1.7500000000000016E-002     7.9227082725829949E-015
   1.8600000000000005E-002    -6.4675168923866580E-016
   1.9700000000000023E-002    -1.4012953937405509E-014
   2.0800000000000013E-002    -2.0264887180430555E-014
   2.1900000000000003E-002    -9.8090675867772668E-015
   2.3000000000000020E-002     1.6923335427248762E-014
   2.4100000000000010E-002     3.9667437222315818E-014
   2.5200000000000000E-002     3.3631087416894148E-014
   2.6300000000000018E-002    -6.0363493819051966E-015
   2.7400000000000008E-002    -5.9932324402746373E-014
   2.8500000000000025E-002    -7.6316699541920802E-014
   2.9600000000000015E-002    -3.0181745638976562E-014
   3.0700000000000005E-002     6.2088165555043706E-014
   3.1800000000000023E-002     1.3538668341799009E-013
   3.2900000000000013E-002     1.0649844856902915E-013
   3.4000000000000002E-002    -2.7594739305538372E-014
   3.5100000000000020E-002    -1.7246711600093362E-013
   3.6200000000000010E-002    -2.1558389838929881E-013
   3.7300000000000028E-002    -7.9334874444631637E-014
   3.8400000000000017E-002     1.7074244850010661E-013
   3.9500000000000007E-002     3.1389016277687254E-013
   4.0600000000000025E-002     2.6559936433349918E-013
   4.1700000000000015E-002    -2.5870068416579579E-014
   4.2800000000000005E-002    -3.6218096122024590E-013
   4.3900000000000022E-002    -5.3809739867030637E-013
   4.5000000000000012E-002    -3.1733949777852655E-013
   4.6100000000000002E-002     1.5866974888926327E-013
   4.7200000000000020E-002     7.1746319822707516E-013
   4.8300000000000010E-002     9.4511985043732594E-013
   4.9400000000000027E-002     5.6569213289364706E-013
   5.0500000000000017E-002    -4.1392109466527327E-013
   5.1600000000000007E-002    -1.5453054417677303E-012
   5.2700000000000025E-002    -1.9730239577547826E-012
   5.3800000000000014E-002    -8.8303165777722792E-013
   5.4900000000000004E-002     1.2969527795475555E-012
   5.6000000000000022E-002     3.4769370542420130E-012
   5.7100000000000012E-002     3.9184528018154641E-012
   5.8200000000000002E-002     9.7961320045386602E-013
   5.9300000000000019E-002    -4.3047791893624510E-012
   6.0400000000000009E-002    -8.0576639110985226E-012
   6.1500000000000027E-002    -6.1260319733635882E-012
   6.2600000000000017E-002     2.7042844959884738E-012
   6.3700000000000007E-002     1.2086495866647784E-011
   6.4800000000000024E-002     1.3962938444356254E-011
   6.5900000000000014E-002     3.5321266311089117E-012
   6.7000000000000004E-002    -1.3521421829421065E-011
   6.8100000000000022E-002    -2.4642102594563120E-011
   6.9200000000000012E-002    -1.6336085262302902E-011
   7.0300000000000029E-002     8.9406954062454247E-012
   7.1400000000000019E-002     3.5100509304664129E-011
   7.2500000000000009E-002     3.7749602055381359E-011
   7.3600000000000027E-002     8.7199379661395682E-012
   7.4700000000000016E-002    -3.7528844615275503E-011
   7.5800000000000006E-002    -6.4240550379235373E-011
   7.6900000000000024E-002    -4.7021435356509045E-011
   7.8000000000000014E-002     1.5287484819714869E-011
   7.9100000000000004E-002     7.7927546360267996E-011
   8.0200000000000021E-002     9.6250452052970559E-011
   8.1300000000000011E-002     4.5917644686532810E-011
   8.2400000000000029E-002    -4.0840213155757255E-011
   8.3500000000000019E-002    -1.1457335774567312E-010
   8.4600000000000009E-002    -1.3024717415710541E-010
   8.5700000000000026E-002    -6.7993437269375789E-011
   8.6800000000000016E-002     4.0177940835439685E-011
   8.7900000000000006E-002     1.6556843396298149E-010
   8.9000000000000024E-002     2.2870519367224063E-010
   9.0100000000000013E-002     1.6071176334175874E-010
   9.1200000000000003E-002    -6.6227377748528937E-011
   9.2300000000000021E-002    -3.6204297892972193E-010
   9.3400000000000011E-002    -4.9847137528757912E-010
   9.4500000000000028E-002    -2.4945645549223627E-010
   9.5600000000000018E-002     3.7175632017216742E-010
   9.6700000000000008E-002     9.7663299669648040E-010
   9.7800000000000026E-002     9.3248142540858225E-010
   9.8900000000000016E-002    -8.3888007651466978E-011
  0.10000000000000001         -1.5453054391656451E-009
  0.10110000000000002         -2.2005148814230324E-009
  0.10220000000000001         -9.7486696493120917E-010
  0.10330000000000003          1.8296415493779250E-009
  0.10440000000000002          4.1498071645662549E-009
  0.10550000000000001          3.4703144802250563E-009
  0.10660000000000003         -8.5124252091617336E-010
  0.10770000000000002         -6.1635607728760533E-009
  0.10880000000000001         -7.7706783230269139E-009
  0.10990000000000003         -2.6958957288769625E-009
  0.11100000000000002          6.7039764850562733E-009
  0.11210000000000001          1.3139510812720800E-008
  0.11320000000000002          9.6038519359353813E-009
  0.11430000000000001         -3.7901926042138712E-009
  0.11540000000000003         -1.7639440130778894E-008
  0.11650000000000002         -1.9469082346290634E-008
  0.11760000000000001         -4.1325880495435285E-009
  0.11870000000000003          1.8741463492233379E-008
  0.11980000000000002          3.0429269770593237E-008
  0.12090000000000001          1.7787789019507727E-008
  0.12200000000000003         -1.3153639955021390E-008
  0.12310000000000001         -3.9150091168949075E-008
  0.12420000000000003         -3.6550446225191990E-008
  0.12530000000000002         -2.5078099596953507E-009
  0.12640000000000001          3.9331997214731018E-008
  0.12750000000000003          5.5849987745659746E-008
  0.12860000000000002          3.0517572469079823E-008
  0.12970000000000001         -2.2492582019140173E-008
  0.13080000000000003         -6.6311265811691555E-008
  0.13190000000000002         -6.6559394440446340E-008
  0.13300000000000001         -1.8762657205684263E-008
  0.13410000000000000          5.1597304207007255E-008
  0.13520000000000004          9.8080093380303879E-008
  0.13630000000000003          8.8868304715106206E-008
  0.13740000000000002          1.4015478555506888E-008
  0.13850000000000001         -9.1298410609397251E-008
  0.13960000000000000         -1.7697367127311736E-007
  0.14070000000000005         -1.7488265768861311E-007
  0.14180000000000004         -1.9610366663869172E-008
  0.14290000000000003          2.3908964408292377E-007
  0.14400000000000002          4.2295096136513166E-007
  0.14510000000000001          3.1760882279741054E-007
  0.14620000000000000         -1.5032730971142882E-007
  0.14730000000000004         -6.8404574449232314E-007
  0.14840000000000003         -7.7944145004948950E-007
  0.14950000000000002         -2.0435471981272713E-007
  0.15060000000000001          7.4508091074676486E-007
  0.15170000000000000          1.2496381032178761E-006
  0.15280000000000005          8.1289772424497642E-007
  0.15390000000000004         -4.6838823664074880E-007
  0.15500000000000003         -1.6511137346242322E-006
  0.15610000000000002         -1.6294123952320660E-006
  0.15720000000000001         -1.9169557674558746E-007
  0.15830000000000000          2.1267358079057885E-006
  0.15940000000000004          3.0815967875241768E-006
  0.16050000000000003          1.2695310260824044E-006
  0.16160000000000002         -2.4522566945961444E-006
  0.16270000000000001         -5.1142933443770744E-006
  0.16380000000000000         -3.5662610571307596E-006
  0.16490000000000005          1.3888886769564124E-006
  0.16600000000000004          6.3657398641225882E-006
  0.16710000000000003          6.3802076510910410E-006
  0.16820000000000002          2.6475690901861526E-006
  0.16930000000000001         -3.7905087992839981E-006
  0.17040000000000000         -8.9409713837085292E-006
  0.17150000000000004         -7.9571746027795598E-006
  0.17260000000000003          1.5046293810883071E-006
  0.17370000000000002          1.0532406122365501E-005
  0.17480000000000001          1.0011573067458812E-005
  0.17590000000000000         -2.0254626633686712E-006
  0.17700000000000005         -1.3425924407783896E-005
  0.17810000000000004         -1.0879628462134860E-005
  0.17920000000000003          3.4722216923910310E-007
  0.18030000000000002          1.5393516150652431E-005
  0.18140000000000001          1.9791663362411782E-005
  0.18250000000000000          6.7129622038919479E-006
  0.18360000000000004         -2.2222218831302598E-005
  0.18470000000000003         -2.2453701603808440E-005
  0.18580000000000002         -1.3194442544772755E-005
  0.18690000000000001          1.3425924407783896E-005
  0.18800000000000000          1.4814812857366633E-005
  0.18910000000000005          1.3425924407783896E-005
  0.19020000000000004         -5.5555547078256495E-006
  0.19130000000000003         -6.0185175243532285E-006
  0.19240000000000002          5.0925918912980705E-006
  0.19350000000000001          1.8518516071708291E-006
  0.19460000000000005          8.3333325164858252E-006
  0.19570000000000004          1.2037035048706457E-005
  0.19680000000000003          1.2037035048706457E-005
  0.19790000000000002         -7.4074064286833163E-006
  0.19900000000000001         -4.2592586396494880E-005
  0.20010000000000000         -6.2962957599665970E-005
  0.20120000000000005         -5.3703697631135583E-005
  0.20230000000000004          3.3333330065943301E-005
  0.20340000000000003          1.3148145808372647E-004
  0.20450000000000002          1.0555554035818204E-004
  0.20560000000000000          8.7037027697078884E-005
  0.20670000000000005         -5.1851846365025267E-005
  0.20780000000000004         -2.0555552328005433E-004
  0.20890000000000003         -6.2962957599665970E-005
