 -0.12000000000000000          0.0000000000000000
 -0.11889999999999999          0.0000000000000000
 -0.11780000000000000          0.0000000000000000
 -0.11670000000000000          0.0000000000000000
 -0.11559999999999999          0.0000000000000000
 -0.11449999999999999          0.0000000000000000
 -0.11340000000000000          0.0000000000000000
 -0.11230000000000000          0.0000000000000000
 -0.11119999999999999          0.0000000000000000
 -0.11009999999999999          0.0000000000000000
 -0.10900000000000000          0.0000000000000000
 -0.10790000000000000          0.0000000000000000
 -0.10679999999999999          0.0000000000000000
 -0.10569999999999999          0.0000000000000000
 -0.10460000000000000          0.0000000000000000
 -0.10349999999999999          0.0000000000000000
 -0.10239999999999999          0.0000000000000000
 -0.10130000000000000          1.4654577552930074E-037
 -0.10020000000000000          1.2698113784047823E-036
  -9.9099999999999994E-002    -3.8445319758036187E-036
  -9.7999999999999990E-002    -1.1089549420810150E-034
  -9.6899999999999986E-002    -7.4065745502927431E-034
  -9.5799999999999996E-002    -2.3005307903065206E-033
  -9.4699999999999993E-002    -2.6529419763021270E-034
  -9.3599999999999989E-002     3.0279135804865008E-032
  -9.2499999999999999E-002     1.4054714745507772E-031
  -9.1399999999999995E-002     2.8611081109183762E-031
  -9.0299999999999991E-002    -1.3109958180808392E-031
  -8.9200000000000002E-002    -2.8228550797143693E-030
  -8.8099999999999984E-002    -9.2065244177870726E-030
  -8.6999999999999994E-002    -1.2621612735513516E-029
  -8.5899999999999990E-002     1.6041211942281578E-029
  -8.4799999999999986E-002     1.2605685746263264E-028
  -8.3699999999999997E-002     3.0569987488117215E-028
  -8.2599999999999993E-002     2.7380512685115845E-028
  -8.1499999999999989E-002    -6.9334335036765743E-028
  -8.0399999999999999E-002    -3.2844296974214713E-027
  -7.9299999999999995E-002    -6.1994710389273262E-027
  -7.8199999999999992E-002    -3.1958835274843126E-027
  -7.7100000000000002E-002     1.6567009618990376E-026
  -7.5999999999999984E-002     5.6599703754790384E-026
  -7.4899999999999994E-002     8.5800043436983272E-026
  -7.3799999999999991E-002     1.5770534357141235E-026
  -7.2699999999999987E-002    -2.5986394629615716E-025
  -7.1599999999999997E-002    -7.0105486862073719E-025
  -7.0499999999999993E-002    -8.7293493948629897E-025
  -6.9399999999999989E-002     1.0582090796616083E-025
  -6.8300000000000000E-002     2.9362073424095497E-024
  -6.7199999999999996E-002     6.6156092210977721E-024
  -6.6099999999999992E-002     6.9046147246127315E-024
  -6.5000000000000002E-002    -2.7755258423468923E-024
  -6.3899999999999985E-002    -2.5328723856730901E-023
  -6.2799999999999995E-002    -4.9672671624707341E-023
  -6.1699999999999991E-002    -4.4572010607518631E-023
  -6.0599999999999994E-002     2.8437870808809337E-023
  -5.9499999999999990E-002     1.7357320381529855E-022
  -5.8399999999999994E-002     3.0723092935062774E-022
  -5.7299999999999990E-002     2.4639496083839303E-022
  -5.6199999999999986E-002    -1.9271662393092892E-022
  -5.5099999999999996E-002    -9.7279974133091445E-022
  -5.3999999999999992E-002    -1.6126378795797112E-021
  -5.2899999999999989E-002    -1.2240247523415692E-021
  -5.1799999999999985E-002     9.4931496090747594E-022
  -5.0699999999999995E-002     4.5615690750739327E-021
  -4.9599999999999991E-002     7.3778024057387490E-021
  -4.8499999999999988E-002     5.6828479383065073E-021
  -4.7399999999999998E-002    -3.3984178284019123E-021
  -4.6299999999999994E-002    -1.8241998225565183E-020
  -4.5199999999999990E-002    -3.0119655893450300E-020
  -4.4099999999999986E-002    -2.5062994180162805E-020
  -4.2999999999999997E-002     7.7441101311611941E-021
  -4.1899999999999993E-002     6.3298458336668977E-020
  -4.0799999999999989E-002     1.1175053686756843E-019
  -3.9699999999999985E-002     1.0402893509635663E-019
  -3.8599999999999995E-002    -9.2600607753323999E-022
  -3.7499999999999992E-002    -1.9360031697363194E-019
  -3.6399999999999988E-002    -3.8067068924601129E-019
  -3.5299999999999984E-002    -3.9763363036884794E-019
  -3.4199999999999994E-002    -9.3516800754605975E-020
  -3.3099999999999991E-002     5.2818770154445715E-019
  -3.1999999999999987E-002     1.1910799046867966E-018
  -3.0899999999999997E-002     1.3721962696841105E-018
  -2.9799999999999993E-002     5.6297772903630695E-019
  -2.8699999999999989E-002    -1.2862774330485338E-018
  -2.7599999999999986E-002    -3.3936811369516665E-018
  -2.6499999999999996E-002    -4.2237972067034917E-018
  -2.5399999999999992E-002    -2.2623331850682428E-018
  -2.4299999999999988E-002     2.7168306745628009E-018
  -2.3199999999999985E-002     8.6626820521860844E-018
  -2.2099999999999995E-002     1.1542833955228346E-017
  -2.0999999999999991E-002     7.4197695627506431E-018
  -1.9899999999999987E-002    -4.4262513159870703E-018
  -1.8799999999999983E-002    -1.9307459251255409E-017
  -1.7699999999999994E-002    -2.8037402667770630E-017
  -1.6599999999999990E-002    -2.1589650561289212E-017
  -1.5499999999999986E-002     2.4789039586856514E-018
  -1.4399999999999996E-002     3.5824742343418400E-017
  -1.3299999999999992E-002     6.0893066229213643E-017
  -1.2199999999999989E-002     5.8736242412818376E-017
  -1.1099999999999985E-002     1.9666248841950285E-017
  -9.9999999999999950E-003    -4.8593277641076796E-017
  -8.8999999999999913E-003    -1.1937673400507263E-016
  -7.7999999999999875E-003    -1.5348092743949093E-016
  -6.6999999999999837E-003    -1.1300863442849639E-016
  -5.5999999999999939E-003     1.8411994879136129E-017
  -4.4999999999999901E-003     2.1278417900115725E-016
  -3.3999999999999864E-003     3.8385876161361825E-016
  -2.2999999999999826E-003     4.0260497716489521E-016
  -1.1999999999999927E-003     1.5908166810541397E-016
  -9.9999999999988987E-005    -3.3990823368384234E-016
   1.0000000000000148E-003    -8.9327925210849063E-016
   2.1000000000000185E-003    -1.1326083054760748E-015
   3.2000000000000084E-003    -7.0515302276507371E-016
   4.3000000000000121E-003     4.4172739082554201E-016
   5.4000000000000159E-003     1.8540528423112825E-015
   6.5000000000000058E-003     2.6572511992704623E-015
   7.6000000000000234E-003     2.0128778726685682E-015
   8.7000000000000133E-003    -2.4758619523521509E-016
   9.8000000000000032E-003    -3.2337729516325507E-015
   1.0900000000000021E-002    -5.2422293123164515E-015
   1.2000000000000011E-002    -4.6641610895509136E-015
   1.3100000000000001E-002    -1.0833473044834880E-015
   1.4200000000000018E-002     4.1690432268264629E-015
   1.5300000000000008E-002     8.4871837341274695E-015
   1.6400000000000026E-002     9.3144511675575907E-015
   1.7500000000000016E-002     5.5384545216631727E-015
   1.8600000000000005E-002    -1.8746744946868989E-015
   1.9700000000000023E-002    -1.0269123367683073E-014
   2.0800000000000013E-002    -1.6272199177837753E-014
   2.1900000000000003E-002    -1.6732041506440851E-014
   2.3000000000000020E-002    -9.5049920760753928E-015
   2.4100000000000010E-002     5.4559200547991873E-015
   2.5200000000000000E-002     2.4525969430822143E-014
   2.6300000000000018E-002     3.9416644319160976E-014
   2.7400000000000008E-002     3.8933137584077487E-014
   2.8500000000000025E-002     1.4855440011798948E-014
   2.9600000000000015E-002    -2.9927036055473616E-014
   3.0700000000000005E-002    -7.6674194879507163E-014
   3.1800000000000023E-002    -9.5751633347445492E-014
   3.2900000000000013E-002    -6.2670870012646041E-014
   3.4000000000000002E-002     2.2126702867945186E-014
   3.5100000000000020E-002     1.2348366144714074E-013
   3.6200000000000010E-002     1.8302883080661969E-013
   3.7300000000000028E-002     1.5080482435730902E-013
   3.8400000000000017E-002     2.0403993707292234E-014
   3.9500000000000007E-002    -1.5594745275942373E-013
   4.0600000000000025E-002    -2.8689802812099929E-013
   4.1700000000000015E-002    -2.8935165895249693E-013
   4.2800000000000005E-002    -1.3746314741873433E-013
   4.3900000000000022E-002     1.1630490136509825E-013
   4.5000000000000012E-002     3.6124548448077110E-013
   4.6100000000000002E-002     4.7810144515256225E-013
   4.7200000000000020E-002     3.9164521235465766E-013
   4.8300000000000010E-002     1.0313438606824113E-013
   4.9400000000000027E-002    -3.0427716552969275E-013
   5.0500000000000017E-002    -6.8205234212206922E-013
   5.1600000000000007E-002    -8.5143762700023995E-013
   5.2700000000000025E-002    -6.6194098813365798E-013
   5.3800000000000014E-002    -7.2860689920642430E-014
   5.4900000000000004E-002     7.6919243544026905E-013
   5.6000000000000022E-002     1.5150943650718562E-012
   5.7100000000000012E-002     1.7177498572856775E-012
   5.8200000000000002E-002     1.0564255633477293E-012
   5.9300000000000019E-002    -4.1329670263413887E-013
   6.0400000000000009E-002    -2.1449216101171453E-012
   6.1500000000000027E-002    -3.2542495174286978E-012
   6.2600000000000017E-002    -2.9351365088414738E-012
   6.3700000000000007E-002    -9.5384247375540632E-013
   6.4800000000000024E-002     2.0638345633178234E-012
   6.5900000000000014E-002     4.7748558579252531E-012
   6.7000000000000004E-002     5.6952558988299096E-012
   6.8100000000000022E-002     3.9607293139676258E-012
   6.9200000000000012E-002    -1.1547132607730992E-013
   7.0300000000000029E-002    -5.0044274280125478E-012
   7.1400000000000019E-002    -8.5161834181834983E-012
   7.2500000000000009E-002    -8.7339597359958887E-012
   7.3600000000000027E-002    -4.9324086481838947E-012
   7.4700000000000016E-002     1.9191933198908773E-012
   7.5800000000000006E-002     9.3131708941984748E-012
   7.6900000000000024E-002     1.4027704345331848E-011
   7.8000000000000014E-002     1.3387960878796790E-011
   7.9100000000000004E-002     6.5418590683430367E-012
   8.0200000000000021E-002    -4.7675379269418450E-012
   8.1300000000000011E-002    -1.6388557178004248E-011
   8.2400000000000029E-002    -2.3085085926188853E-011
   8.3500000000000019E-002    -2.0705477263294192E-011
   8.4600000000000009E-002    -8.3936087247327151E-012
   8.5700000000000026E-002     1.0236619711612160E-011
   8.6800000000000016E-002     2.7831166191094603E-011
   8.7900000000000006E-002     3.6046242379850213E-011
   8.9000000000000024E-002     2.9401051038213666E-011
   9.0100000000000013E-002     8.5058800280979341E-012
   9.1200000000000003E-002    -1.9128079328800673E-011
   9.2300000000000021E-002    -4.1599321209950801E-011
   9.3400000000000011E-002    -4.7781924250589469E-011
   9.4500000000000028E-002    -3.2961886692328690E-011
   9.5600000000000018E-002    -2.1246615578007777E-012
   9.6700000000000008E-002     3.1175891729295913E-011
   9.7800000000000026E-002     5.0479322111218750E-011
   9.8900000000000016E-002     4.4413875355253651E-011
  0.10000000000000001          1.3324540255876816E-011
  0.10110000000000002         -2.8992173245478980E-011
  0.10220000000000001         -6.0028232384823355E-011
  0.10330000000000003         -5.8436325223176766E-011
  0.10440000000000002         -1.5105066503151576E-011
  0.10550000000000001          5.9529034479588461E-011
  0.10660000000000003          1.3584532110311187E-010
  0.10770000000000002          1.7418316788919697E-010
  0.10880000000000001          1.4034264028683907E-010
  0.10990000000000003          2.2061602544809489E-011
  0.11100000000000002         -1.6015420933879199E-010
  0.11210000000000001         -3.5334024595101710E-010
  0.11320000000000002         -4.8553094877945568E-010
  0.11430000000000001         -4.8940573815769994E-010
  0.11540000000000003         -3.2839575503373908E-010
  0.11650000000000002         -1.5084801463505215E-011
  0.11760000000000001          3.8667691271143667E-010
  0.11870000000000003          7.7871370463000744E-010
  0.11980000000000002          1.0591528765147018E-009
  0.12090000000000001          1.1545373546084647E-009
  0.12200000000000003          1.0394196614527118E-009
  0.12310000000000001          7.3445682868822360E-010
  0.12420000000000003          2.8432833865110752E-010
  0.12530000000000002         -2.7227489707293273E-010
  0.12640000000000001         -9.2244228921956051E-010
  0.12750000000000003         -1.6734228447390365E-009
  0.12860000000000002         -2.5179214269144268E-009
  0.12970000000000001         -3.3821274669776358E-009
  0.13080000000000003         -4.0806464873810455E-009
  0.13190000000000002         -4.3055021770044277E-009
  0.13300000000000001         -3.6675777970174295E-009
  0.13410000000000000         -1.7909778105007490E-009
  0.13520000000000004          1.5592884761161940E-009
  0.13630000000000003          6.3500640301583644E-009
  0.13740000000000002          1.2189348197466643E-008
  0.13850000000000001          1.8297518167287308E-008
  0.13960000000000000          2.3545963401261361E-008
  0.14070000000000005          2.6546992160092486E-008
  0.14180000000000004          2.5762890487612822E-008
  0.14290000000000003          1.9597290901174347E-008
  0.14400000000000002          6.4389298337630407E-009
  0.14510000000000001         -1.5355904992020442E-008
  0.14620000000000000         -4.7537284331156116E-008
  0.14730000000000004         -9.2071722690434399E-008
  0.14840000000000003         -1.5126323660297203E-007
  0.14950000000000002         -2.2786771580740606E-007
  0.15060000000000001         -3.2520131298952037E-007
  0.15170000000000000         -4.4726576220455172E-007
  0.15280000000000005         -5.9892914805459441E-007
  0.15390000000000004         -7.8620143995067338E-007
  0.15500000000000003         -1.0166256743104896E-006
  0.15610000000000002         -1.2997712701690034E-006
  0.15720000000000001         -1.6477836197736906E-006
  0.15830000000000000         -2.0759255221491912E-006
  0.15940000000000004         -2.6030588742287364E-006
  0.16050000000000003         -3.2520597414986696E-006
  0.16160000000000002         -4.0502141018805560E-006
  0.16270000000000001         -5.0296853260078933E-006
  0.16380000000000000         -6.2281719692691695E-006
  0.16490000000000005         -7.6898304541828111E-006
  0.16600000000000004         -9.4665001597604714E-006
  0.16710000000000003         -1.1619184078881517E-005
  0.16820000000000002         -1.4219700460671447E-005
  0.16930000000000001         -1.7352394934277982E-005
  0.17040000000000000         -2.1115867639309727E-005
  0.17150000000000004         -2.5624696718296036E-005
  0.17260000000000003         -3.1011248211143538E-005
  0.17370000000000002         -3.7427660572575405E-005
  0.17480000000000001         -4.5048112951917574E-005
  0.17590000000000000         -5.4071402701083571E-005
  0.17700000000000005         -6.4723775722086430E-005
  0.17810000000000004         -7.7262004197109491E-005
  0.17920000000000003         -9.1976486146450043E-005
  0.18030000000000002         -1.0919429041678086E-004
  0.18140000000000001         -1.2928208161611110E-004
  0.18250000000000000         -1.5264874673448503E-004
  0.18360000000000004         -1.7974800721276551E-004
  0.18470000000000003         -2.1108069631736726E-004
  0.18580000000000002         -2.4719664361327887E-004
  0.18690000000000001         -2.8869637753814459E-004
  0.18800000000000000         -3.3623253693804145E-004
  0.18910000000000005         -3.9051065687090158E-004
  0.19020000000000004         -4.5228938688524067E-004
  0.19130000000000003         -5.2237982163205743E-004
  0.19240000000000002         -6.0164323076605797E-004
  0.19350000000000001         -6.9098809035494924E-004
  0.19460000000000005         -7.9136475687846541E-004
  0.19570000000000004         -9.0375886065885425E-004
  0.19680000000000003         -1.0291831567883492E-003
  0.19790000000000002         -1.1686679208651185E-003
  0.19900000000000001         -1.3232494238764048E-003
  0.20010000000000000         -1.4939558459445834E-003
  0.20120000000000005         -1.6817917348816991E-003
  0.20230000000000004         -1.8877215916290879E-003
  0.20340000000000003         -2.1126489154994488E-003
  0.20450000000000002         -2.3573937360197306E-003
  0.20560000000000000         -2.6226695626974106E-003
  0.20670000000000005         -2.9090552125126123E-003
  0.20780000000000004         -3.2169702462852001E-003
  0.20890000000000003         -3.5466451663523912E-003
