 -0.12000000000000000          0.0000000000000000
 -0.11889999999999999          0.0000000000000000
 -0.11780000000000000          0.0000000000000000
 -0.11670000000000000          0.0000000000000000
 -0.11559999999999999          0.0000000000000000
 -0.11449999999999999          0.0000000000000000
 -0.11340000000000000          1.6406379022265022E-013
 -0.11230000000000000         -3.5027688215227837E-013
 -0.11119999999999999         -5.3643868860864252E-012
 -0.11009999999999999         -1.0412845065366216E-011
 -0.10900000000000000          2.5130678787954608E-011
 -0.10790000000000000          1.4238599188587386E-010
 -0.10679999999999999          1.7773001126375476E-010
 -0.10569999999999999         -3.8369246668779056E-010
 -0.10460000000000000         -1.7580165101449552E-009
 -0.10349999999999999         -2.2259867282770074E-009
 -0.10239999999999999          2.2285651102293969E-009
 -0.10130000000000000          1.3040470037140039E-008
 -0.10020000000000000          1.9815947993606642E-008
  -9.9099999999999994E-002    -6.5368016555211739E-010
  -9.7999999999999990E-002    -6.0259694123487861E-008
  -9.6899999999999986E-002    -1.1726056214911296E-007
  -9.5799999999999996E-002    -6.8009647691269492E-008
  -9.4699999999999993E-002     1.6435289751370874E-007
  -9.3599999999999989E-002     4.6813184439997713E-007
  -9.2499999999999999E-002     4.8265894747601124E-007
  -9.1399999999999995E-002    -1.5018379428966000E-007
  -9.0299999999999991E-002    -1.2679670362558682E-006
  -8.9200000000000002E-002    -1.8908285710494965E-006
  -8.8099999999999984E-002    -7.7296090239542536E-007
  -8.6999999999999994E-002     2.2044007437216351E-006
  -8.5899999999999990E-002     4.9615255193202756E-006
  -8.4799999999999986E-002     4.1227945075661410E-006
  -8.3699999999999997E-002    -1.8006143136517494E-006
  -8.2599999999999993E-002    -9.3532808023155667E-006
  -8.1499999999999989E-002    -1.1074490430473816E-005
  -8.0399999999999999E-002    -1.8200693148173741E-006
  -7.9299999999999995E-002     1.3912006579630543E-005
  -7.8199999999999992E-002     2.1840131012140773E-005
  -7.7100000000000002E-002     9.1412457550177351E-006
  -7.5999999999999984E-002    -1.9985996914329007E-005
  -7.4899999999999994E-002    -4.0349721530219540E-005
  -7.3799999999999991E-002    -2.3922224499983713E-005
  -7.2699999999999987E-002     2.9703091058763675E-005
  -7.1599999999999997E-002     7.9200690379366279E-005
  -7.0499999999999993E-002     6.7227912950329483E-005
  -6.9399999999999989E-002    -2.4530041628167965E-005
  -6.8300000000000000E-002    -1.3833324192091823E-004
  -6.7199999999999996E-002    -1.6857775335665792E-004
  -6.6099999999999992E-002    -5.0865975936176255E-005
  -6.5000000000000002E-002     1.5843159053474665E-004
  -6.3899999999999985E-002     2.9706378700211644E-004
  -6.2799999999999995E-002     2.2128499404061586E-004
  -6.1699999999999991E-002    -5.2658513595815748E-005
  -6.0599999999999994E-002    -3.2595609081909060E-004
  -5.9499999999999990E-002    -3.6560706212185323E-004
  -5.8399999999999994E-002    -1.1674610868794844E-004
  -5.7299999999999990E-002     2.1711342560593039E-004
  -5.6199999999999986E-002     3.3218221506103873E-004
  -5.5099999999999996E-002     1.0919749911408871E-004
  -5.3999999999999992E-002    -2.3752918059471995E-004
  -5.2899999999999989E-002    -3.2377438037656248E-004
  -5.1799999999999985E-002     3.4412223612889647E-005
  -5.0699999999999995E-002     5.8083265321329236E-004
  -4.9599999999999991E-002     7.7887700172141194E-004
  -4.8499999999999988E-002     2.8769034543074667E-004
  -4.7399999999999998E-002    -6.5943819936364889E-004
  -4.6299999999999994E-002    -1.3609576271846890E-003
  -4.5199999999999990E-002    -1.2085348134860396E-003
  -4.4099999999999986E-002    -2.3065340064931661E-004
  -4.2999999999999997E-002     8.9161767391487956E-004
  -4.1899999999999993E-002     1.3896608725190163E-003
  -4.0799999999999989E-002     1.0552452877163887E-003
  -3.9699999999999985E-002     3.6614760756492615E-004
  -3.8599999999999995E-002    -3.4295142540941015E-005
  -3.7499999999999992E-002     6.6212965066370089E-006
  -3.6399999999999988E-002     2.5829227524809539E-005
  -3.5299999999999984E-002    -4.9946428043767810E-004
  -3.4199999999999994E-002    -1.4723677886649966E-003
  -3.3099999999999991E-002    -2.1084914915263653E-003
  -3.1999999999999987E-002    -1.6298178816214204E-003
  -3.0899999999999997E-002    -7.1980335633270442E-005
  -2.9799999999999993E-002     1.6306473407894373E-003
  -2.8699999999999989E-002     2.4383617565035820E-003
  -2.7599999999999986E-002     2.1280304063111544E-003
  -2.6499999999999996E-002     1.4026163844391704E-003
  -2.5399999999999992E-002     1.0423368075862527E-003
  -2.4299999999999988E-002     9.7317592008039355E-004
  -2.3199999999999985E-002     2.9691064264625311E-004
  -2.2099999999999995E-002    -1.6310941427946091E-003
  -2.0999999999999991E-002    -4.1591925546526909E-003
  -1.9899999999999987E-002    -5.5449493229389191E-003
  -1.8799999999999983E-002    -4.4390140101313591E-003
  -1.7699999999999994E-002    -1.2920650187879801E-003
  -1.6599999999999990E-002     1.7948754830285907E-003
  -1.5499999999999986E-002     2.8283658903092146E-003
  -1.4399999999999996E-002     1.6861167969182134E-003
  -1.3299999999999992E-002     1.1932619963772595E-004
  -1.2199999999999989E-002    -1.1893286136910319E-004
  -1.1099999999999985E-002     7.9315132461488247E-004
  -9.9999999999999950E-003     7.7577913179993629E-004
  -8.8999999999999913E-003    -2.0177483092993498E-003
  -7.7999999999999875E-003    -7.0162233896553516E-003
  -6.6999999999999837E-003    -1.1299381963908672E-002
  -5.5999999999999939E-003    -1.2100579217076302E-002
  -4.4999999999999901E-003    -9.4297239556908607E-003
  -3.3999999999999864E-003    -6.1980751343071461E-003
  -2.2999999999999826E-003    -5.5832494981586933E-003
  -1.1999999999999927E-003    -8.1424722447991371E-003
  -9.9999999999988987E-005    -1.1545544490218163E-002
   1.0000000000000148E-003    -1.3240093365311623E-002
   2.1000000000000185E-003    -1.3365203514695168E-002
   3.2000000000000084E-003    -1.4878383837640285E-002
   4.3000000000000121E-003    -2.0635038614273071E-002
   5.4000000000000159E-003    -3.0337406322360039E-002
   6.5000000000000058E-003    -4.0549241006374359E-002
   7.6000000000000234E-003    -4.7910843044519424E-002
   8.7000000000000133E-003    -5.2364375442266464E-002
   9.8000000000000032E-003    -5.7065878063440323E-002
   1.0900000000000021E-002    -6.5011076629161835E-002
   1.2000000000000011E-002    -7.5896836817264557E-002
   1.3100000000000001E-002    -8.6572848260402679E-002
   1.4200000000000018E-002    -9.4767779111862183E-002
   1.5300000000000008E-002   -0.10214558988809586
   1.6400000000000026E-002   -0.11322759091854095
   1.7500000000000016E-002   -0.13095860183238983
   1.8600000000000005E-002   -0.15343871712684631
   1.9700000000000023E-002   -0.17540860176086426
   2.0800000000000013E-002   -0.19327862560749054
   2.1900000000000003E-002   -0.20861877501010895
   2.3000000000000020E-002   -0.22620998322963715
   2.4100000000000010E-002   -0.24848648905754089
   2.5200000000000000E-002   -0.27208143472671509
   2.6300000000000018E-002   -0.29052403569221497
   2.7400000000000008E-002   -0.30069890618324280
   2.8500000000000025E-002   -0.30655863881111145
   2.9600000000000015E-002   -0.31551545858383179
   3.0700000000000005E-002   -0.33067566156387329
   3.1800000000000023E-002   -0.34635829925537109
   3.2900000000000013E-002   -0.35192772746086121
   3.4000000000000002E-002   -0.34045690298080444
   3.5100000000000020E-002   -0.31387495994567871
   3.6200000000000010E-002   -0.27932912111282349
   3.7300000000000028E-002   -0.24016061425209045
   3.8400000000000017E-002   -0.19062797725200653
   3.9500000000000007E-002   -0.12018493562936783
   4.0600000000000025E-002    -2.2825922816991806E-002
   4.1700000000000015E-002     9.7874984145164490E-002
   4.2800000000000005E-002    0.23371386528015137
   4.3900000000000022E-002    0.38157215714454651
   4.5000000000000012E-002    0.54893416166305542
   4.6100000000000002E-002    0.74830961227416992
   4.7200000000000020E-002    0.98670452833175659
   4.8300000000000010E-002     1.2604470252990723
   4.9400000000000027E-002     1.5608136653900146
   5.0500000000000017E-002     1.8846895694732666
   5.1600000000000007E-002     2.2387764453887939
   5.2700000000000025E-002     2.6329784393310547
   5.3800000000000014E-002     3.0682616233825684
   5.4900000000000004E-002     3.5329666137695312
   5.6000000000000022E-002     4.0112705230712891
   5.7100000000000012E-002     4.4967012405395508
   5.8200000000000002E-002     4.9953622817993164
   5.9300000000000019E-002     5.5165791511535645
   6.0400000000000009E-002     6.0587196350097656
   6.1500000000000027E-002     6.6051816940307617
   6.2600000000000017E-002     7.1362257003784180
   6.3700000000000007E-002     7.6414122581481934
   6.4800000000000024E-002     8.1231479644775391
   6.5900000000000014E-002     8.5844469070434570
   6.7000000000000004E-002     9.0140914916992188
   6.8100000000000022E-002     9.3850355148315430
   6.9200000000000012E-002     9.6699657440185547
   7.0300000000000029E-002     9.8576726913452148
   7.1400000000000019E-002     9.9544916152954102
   7.2500000000000009E-002     9.9669561386108398
   7.3600000000000027E-002     9.8858213424682617
   7.4700000000000016E-002     9.6841745376586914
   7.5800000000000006E-002     9.3341417312622070
   7.6900000000000024E-002     8.8255138397216797
   7.8000000000000014E-002     8.1697912216186523
   7.9100000000000004E-002     7.3795509338378906
   8.0200000000000021E-002     6.4505286216735840
   8.1300000000000011E-002     5.3609509468078613
   8.2400000000000029E-002     4.0904846191406250
   8.3500000000000019E-002     2.6410033702850342
   8.4600000000000009E-002     1.0377258062362671
   8.5700000000000026E-002   -0.69368880987167358
   8.6800000000000016E-002    -2.5508923530578613
   8.7900000000000006E-002    -4.5496954917907715
   8.9000000000000024E-002    -6.7013621330261230
   9.0100000000000013E-002    -8.9886875152587891
   9.1200000000000003E-002    -11.371187210083008
   9.2300000000000021E-002    -13.811305999755859
   9.3400000000000011E-002    -16.300291061401367
   9.4500000000000028E-002    -18.853801727294922
   9.5600000000000018E-002    -21.483430862426758
   9.6700000000000008E-002    -24.168292999267578
   9.7800000000000026E-002    -26.861751556396484
   9.8900000000000016E-002    -29.521270751953125
  0.10000000000000001         -32.138565063476562
  0.10110000000000002         -34.734413146972656
  0.10220000000000001         -37.323173522949219
  0.10330000000000003         -39.888153076171875
  0.10440000000000002         -42.382076263427734
  0.10550000000000001         -44.765628814697266
  0.10660000000000003         -47.037349700927734
  0.10770000000000002         -49.225090026855469
  0.10880000000000001         -51.349281311035156
  0.10990000000000003         -53.389614105224609
  0.11100000000000002         -55.293651580810547
  0.11210000000000001         -57.017337799072266
  0.11320000000000002         -58.556549072265625
  0.11430000000000001         -59.936779022216797
  0.11540000000000003         -61.171836853027344
  0.11650000000000002         -62.229064941406250
  0.11760000000000001         -63.033767700195312
  0.11870000000000003         -63.516273498535156
  0.11980000000000002         -63.647666931152344
  0.12090000000000001         -63.431457519531250
  0.12200000000000003         -62.857101440429688
  0.12310000000000001         -61.864494323730469
  0.12420000000000003         -60.356777191162109
  0.12530000000000002         -58.241191864013672
  0.12640000000000001         -55.477134704589844
  0.12750000000000003         -52.050956726074219
  0.12860000000000002         -47.941429138183594
  0.12970000000000001         -43.077400207519531
  0.13080000000000003         -37.354660034179688
  0.13190000000000002         -30.691078186035156
  0.13300000000000001         -23.062751770019531
  0.13410000000000000         -14.486723899841309
  0.13520000000000004         -4.9847698211669922
  0.13630000000000003          5.4555845260620117
  0.13740000000000002          16.869390487670898
  0.13850000000000001          29.262870788574219
  0.13960000000000000          42.572349548339844
  0.14070000000000005          56.678245544433594
  0.14180000000000004          71.451637268066406
  0.14290000000000003          86.792953491210938
  0.14400000000000002          102.61629486083984
  0.14510000000000001          118.79182434082031
  0.14620000000000000          135.11979675292969
  0.14730000000000004          151.35784912109375
  0.14840000000000003          167.25823974609375
  0.14950000000000002          182.61375427246094
  0.15060000000000001          197.23632812500000
  0.15170000000000000          210.89514160156250
  0.15280000000000005          223.31329345703125
  0.15390000000000004          234.18399047851562
  0.15500000000000003          243.24810791015625
  0.15610000000000002          250.29443359375000
  0.15720000000000001          255.15028381347656
  0.15830000000000000          257.65017700195312
  0.15940000000000004          257.59521484375000
  0.16050000000000003          254.79705810546875
  0.16160000000000002          249.12849426269531
  0.16270000000000001          240.56645202636719
  0.16380000000000000          229.12725830078125
  0.16490000000000005          214.86802673339844
  0.16600000000000004          197.82205200195312
  0.16710000000000003          178.05819702148438
  0.16820000000000002          155.71852111816406
  0.16930000000000001          131.04843139648438
  0.17040000000000000          104.35323333740234
  0.17150000000000004          75.947631835937500
  0.17260000000000003          46.127666473388672
  0.17370000000000002          15.203582763671875
  0.17480000000000001         -16.458486557006836
  0.17590000000000000         -48.424526214599609
  0.17700000000000005         -80.231689453125000
  0.17810000000000004         -111.44442749023438
  0.17920000000000003         -141.67213439941406
  0.18030000000000002         -170.56625366210938
  0.18140000000000001         -197.74494934082031
  0.18250000000000000         -222.82897949218750
  0.18360000000000004         -245.45451354980469
  0.18470000000000003         -265.31286621093750
  0.18580000000000002         -282.18215942382812
  0.18690000000000001         -295.91461181640625
  0.18800000000000000         -306.36502075195312
  0.18910000000000005         -313.40707397460938
  0.19020000000000004         -316.95938110351562
  0.19130000000000003         -317.02941894531250
  0.19240000000000002         -313.71295166015625
  0.19350000000000001         -307.16754150390625
  0.19460000000000005         -297.56335449218750
  0.19570000000000004         -285.06942749023438
  0.19680000000000003         -269.89779663085938
  0.19790000000000002         -252.33880615234375
  0.19900000000000001         -232.72474670410156
  0.20010000000000000         -211.41719055175781
  0.20120000000000005         -188.74374389648438
  0.20230000000000004         -165.03111267089844
  0.20340000000000003         -140.59466552734375
  0.20450000000000002         -115.79599761962891
  0.20560000000000000         -90.998313903808594
  0.20670000000000005         -66.545562744140625
  0.20780000000000004         -42.727890014648438
  0.20890000000000003         -19.773271560668945
