 -0.12000000000000000          0.0000000000000000
 -0.11889999999999999          0.0000000000000000
 -0.11780000000000000          0.0000000000000000
 -0.11670000000000000          0.0000000000000000
 -0.11559999999999999          0.0000000000000000
 -0.11449999999999999          0.0000000000000000
 -0.11340000000000000          0.0000000000000000
 -0.11230000000000000          0.0000000000000000
 -0.11119999999999999         -2.8468626396755243E-018
 -0.11009999999999999          4.4552837176700688E-016
 -0.10900000000000000          5.7557577537868296E-016
 -0.10790000000000000         -3.1358110501837492E-015
 -0.10679999999999999          2.2214489362598622E-014
 -0.10569999999999999          1.7601587234180455E-013
 -0.10460000000000000          1.9579836070624662E-013
 -0.10349999999999999         -1.3390613487831993E-012
 -0.10239999999999999         -4.6892836835787932E-012
 -0.10130000000000000          5.0612332792680792E-014
 -0.10020000000000000          3.2613401562686661E-011
  -9.9099999999999994E-002     7.1035170801092562E-011
  -9.7999999999999990E-002    -3.2504023778079372E-011
  -9.6899999999999986E-002    -4.4724035586085620E-010
  -9.5799999999999996E-002    -8.0876932928575229E-010
  -9.4699999999999993E-002     3.0206864787274412E-010
  -9.3599999999999989E-002     4.0734864370506330E-009
  -9.2499999999999999E-002     7.2859358546395470E-009
  -9.1399999999999995E-002    -3.7836617172715137E-010
  -9.0299999999999991E-002    -2.6871314062759666E-008
  -8.9200000000000002E-002    -5.2694911545358991E-008
  -8.8099999999999984E-002    -1.7002919960873442E-008
  -8.6999999999999994E-002     1.3138587462435680E-007
  -8.5899999999999990E-002     3.0652935834041273E-007
  -8.4799999999999986E-002     2.0959633673101052E-007
  -8.3699999999999997E-002    -4.5698897110924008E-007
  -8.2599999999999993E-002    -1.4293190133685130E-006
  -8.1499999999999989E-002    -1.4795103879805538E-006
  -8.0399999999999999E-002     8.8177034740510862E-007
  -7.9299999999999995E-002     5.2683071771753021E-006
  -7.8199999999999992E-002     7.5023394856543746E-006
  -7.7100000000000002E-002     1.3000404806007282E-006
  -7.5999999999999984E-002    -1.4703912711411249E-005
  -7.4899999999999994E-002    -2.9093700504745357E-005
  -7.3799999999999991E-002    -1.9715598682523705E-005
  -7.2699999999999987E-002     2.6736721338238567E-005
  -7.1599999999999997E-002     8.7246844486799091E-005
  -7.0499999999999993E-002     9.7181822638958693E-005
  -6.9399999999999989E-002    -4.8198198783211410E-006
  -6.8300000000000000E-002    -1.9547771080397069E-004
  -6.7199999999999996E-002    -3.2205335446633399E-004
  -6.6099999999999992E-002    -1.8077564891427755E-004
  -6.5000000000000002E-002     2.8029907844029367E-004
  -6.3899999999999985E-002     7.8447716077789664E-004
  -6.2799999999999995E-002     8.0418912693858147E-004
  -6.1699999999999991E-002    -1.9879316823789850E-005
  -6.0599999999999994E-002    -1.3700069393962622E-003
  -5.9499999999999990E-002    -2.1675282623618841E-003
  -5.8399999999999994E-002    -1.2645073002204299E-003
  -5.7299999999999990E-002     1.3922059442847967E-003
  -5.6199999999999986E-002     4.1113090701401234E-003
  -5.5099999999999996E-002     4.2785559780895710E-003
  -5.3999999999999992E-002     5.2800192497670650E-004
  -5.2899999999999989E-002    -5.3327376954257488E-003
  -5.1799999999999985E-002    -8.7155010551214218E-003
  -5.0699999999999995E-002    -5.5586644448339939E-003
  -4.9599999999999991E-002     3.5747960209846497E-003
  -4.8499999999999988E-002     1.2370494194328785E-002
  -4.7399999999999998E-002     1.2806629762053490E-002
  -4.6299999999999994E-002     2.1990307141095400E-003
  -4.5199999999999990E-002    -1.2653192505240440E-002
  -4.4099999999999986E-002    -1.9200053066015244E-002
  -4.2999999999999997E-002    -9.5261428505182266E-003
  -4.1899999999999993E-002     1.0783880949020386E-002
  -4.0799999999999989E-002     2.4427987635135651E-002
  -3.9699999999999985E-002     1.6134938225150108E-002
  -3.8599999999999995E-002    -1.1694008484482765E-002
  -3.7499999999999992E-002    -3.6236960440874100E-002
  -3.6399999999999988E-002    -3.0727196484804153E-002
  -3.5299999999999984E-002     1.0427868925035000E-002
  -3.4199999999999994E-002     5.9625416994094849E-002
  -3.3099999999999991E-002     7.2112530469894409E-002
  -3.1999999999999987E-002     2.2485803812742233E-002
  -3.0899999999999997E-002    -6.6727779805660248E-002
  -2.9799999999999993E-002   -0.13202078640460968
  -2.8699999999999989E-002   -0.11305315792560577
  -2.7599999999999986E-002    -3.3102629240602255E-003
  -2.6499999999999996E-002    0.13438153266906738
  -2.5399999999999992E-002    0.20576094090938568
  -2.4299999999999988E-002    0.15265704691410065
  -2.3199999999999985E-002    -5.8683147653937340E-004
  -2.2099999999999995E-002   -0.15995703637599945
  -2.0999999999999991E-002   -0.22726635634899139
  -1.9899999999999987E-002   -0.16960500180721283
  -1.8799999999999983E-002    -3.9269689470529556E-002
  -1.7699999999999994E-002     7.1474812924861908E-002
  -1.6599999999999990E-002    0.10515715926885605
  -1.5499999999999986E-002     8.3394177258014679E-002
  -1.4399999999999996E-002     8.2934662699699402E-002
  -1.3299999999999992E-002    0.15842667222023010
  -1.2199999999999989E-002    0.27148610353469849
  -1.1099999999999985E-002    0.28903436660766602
  -9.9999999999999950E-003     7.0686668157577515E-002
  -8.8999999999999913E-003   -0.39988985657691956
  -7.7999999999999875E-003   -0.93070334196090698
  -6.6999999999999837E-003    -1.1678107976913452
  -5.5999999999999939E-003   -0.78650856018066406
  -4.4999999999999901E-003    0.26021137833595276
  -3.3999999999999864E-003     1.5957436561584473
  -2.2999999999999826E-003     2.5161225795745850
  -1.1999999999999927E-003     2.3390393257141113
  -9.9999999999988987E-005    0.84009772539138794
   1.0000000000000148E-003    -1.4937717914581299
   2.1000000000000185E-003    -3.5998508930206299
   3.2000000000000084E-003    -4.3475914001464844
   4.3000000000000121E-003    -3.1553204059600830
   5.4000000000000159E-003   -0.35492593050003052
   6.5000000000000058E-003     2.9209091663360596
   7.6000000000000234E-003     5.2700114250183105
   8.7000000000000133E-003     5.6718463897705078
   9.8000000000000032E-003     3.9199583530426025
   1.0900000000000021E-002    0.65837323665618896
   1.2000000000000011E-002    -2.9313578605651855
   1.3100000000000001E-002    -5.6077709197998047
   1.4200000000000018E-002    -6.5167031288146973
   1.5300000000000008E-002    -5.4664344787597656
   1.6400000000000026E-002    -2.9404246807098389
   1.7500000000000016E-002    0.17928667366504669
   1.8600000000000005E-002     3.0767772197723389
   1.9700000000000023E-002     5.3891792297363281
   2.0800000000000013E-002     7.2021875381469727
   2.1900000000000003E-002     8.5599365234375000
   2.3000000000000020E-002     8.8238811492919922
   2.4100000000000010E-002     6.5291275978088379
   2.5200000000000000E-002    0.21506685018539429
   2.6300000000000018E-002    -10.002892494201660
   2.7400000000000008E-002    -21.164218902587891
   2.8500000000000025E-002    -27.765050888061523
   2.9600000000000015E-002    -24.143985748291016
   3.0700000000000005E-002    -8.0419244766235352
   3.1800000000000023E-002     16.741914749145508
   3.2900000000000013E-002     40.658626556396484
   3.4000000000000002E-002     52.297870635986328
   3.5100000000000020E-002     44.305061340332031
   3.6200000000000010E-002     18.180654525756836
   3.7300000000000028E-002    -15.115797042846680
   3.8400000000000017E-002    -39.885993957519531
   3.9500000000000007E-002    -43.919872283935547
   4.0600000000000025E-002    -26.050951004028320
   4.1700000000000015E-002     1.4186242818832397
   4.2800000000000005E-002     17.546480178833008
   4.3900000000000022E-002     2.9429378509521484
   4.5000000000000012E-002    -50.070400238037109
   4.6100000000000002E-002    -133.42208862304688
   4.7200000000000020E-002    -228.36712646484375
   4.8300000000000010E-002    -317.21725463867188
   4.9400000000000027E-002    -394.74612426757812
   5.0500000000000017E-002    -471.95718383789062
   5.1600000000000007E-002    -569.50964355468750
   5.2700000000000025E-002    -705.01361083984375
   5.3800000000000014E-002    -882.95898437500000
   5.4900000000000004E-002    -1094.8043212890625
   5.6000000000000022E-002    -1330.1035156250000
   5.7100000000000012E-002    -1591.7912597656250
   5.8200000000000002E-002    -1905.2332763671875
   5.9300000000000019E-002    -2314.1411132812500
   6.0400000000000009E-002    -2864.7785644531250
   6.1500000000000027E-002    -3587.7863769531250
   6.2600000000000017E-002    -4489.2631835937500
   6.3700000000000007E-002    -5557.5781250000000
   6.4800000000000024E-002    -6783.2041015625000
   6.5900000000000014E-002    -8181.0068359375000
   6.7000000000000004E-002    -9802.2656250000000
   6.8100000000000022E-002    -11729.516601562500
   6.9200000000000012E-002    -14056.781250000000
   7.0300000000000029E-002    -16867.060546875000
   7.1400000000000019E-002    -20220.707031250000
   7.2500000000000009E-002    -24162.539062500000
   7.3600000000000027E-002    -28744.113281250000
   7.4700000000000016E-002    -34048.070312500000
   7.5800000000000006E-002    -40198.210937500000
   7.6900000000000024E-002    -47348.574218750000
   7.8000000000000014E-002    -55657.964843750000
   7.9100000000000004E-002    -65267.375000000000
   8.0200000000000021E-002    -76295.351562500000
   8.1300000000000011E-002    -88857.250000000000
   8.2400000000000029E-002    -103096.17968750000
   8.3500000000000019E-002    -119205.71093750000
   8.4600000000000009E-002    -137428.43750000000
   8.5700000000000026E-002    -158029.70312500000
   8.6800000000000016E-002    -181259.34375000000
   8.7900000000000006E-002    -207324.95312500000
   8.9000000000000024E-002    -236390.15625000000
   9.0100000000000013E-002    -268595.40625000000
   9.1200000000000003E-002    -304094.87500000000
   9.2300000000000021E-002    -343077.34375000000
   9.3400000000000011E-002    -385768.00000000000
   9.4500000000000028E-002    -432393.90625000000
   9.5600000000000018E-002    -483143.53125000000
   9.6700000000000008E-002    -538122.18750000000
   9.7800000000000026E-002    -597337.50000000000
   9.8900000000000016E-002    -660708.37500000000
  0.10000000000000001         -728101.37500000000
  0.10110000000000002         -799354.93750000000
  0.10220000000000001         -874284.62500000000
  0.10330000000000003         -952659.43750000000
  0.10440000000000002         -1034154.2500000000
  0.10550000000000001         -1118312.0000000000
  0.10660000000000003         -1204521.6250000000
  0.10770000000000002         -1292040.0000000000
  0.10880000000000001         -1379997.7500000000
  0.10990000000000003         -1467431.5000000000
  0.11100000000000002         -1553279.0000000000
  0.11210000000000001         -1636373.6250000000
  0.11320000000000002         -1715440.0000000000
  0.11430000000000001         -1789092.2500000000
  0.11540000000000003         -1855847.7500000000
  0.11650000000000002         -1914117.2500000000
  0.11760000000000001         -1962265.2500000000
  0.11870000000000003         -1998590.7500000000
  0.11980000000000002         -2021370.6250000000
  0.12090000000000001         -2028861.6250000000
  0.12200000000000003         -2019353.1250000000
  0.12310000000000001         -1991169.5000000000
  0.12420000000000003         -1942735.6250000000
  0.12530000000000002         -1872619.5000000000
  0.12640000000000001         -1779565.1250000000
  0.12750000000000003         -1662535.2500000000
  0.12860000000000002         -1520684.3750000000
  0.12970000000000001         -1353395.1250000000
  0.13080000000000003         -1160310.5000000000
  0.13190000000000002         -941345.12500000000
  0.13300000000000001         -696788.18750000000
  0.13410000000000000         -427326.59375000000
  0.13520000000000004         -134045.45312500000
  0.13630000000000003          181547.95312500000
  0.13740000000000002          517556.65625000000
  0.13850000000000001          871732.06250000000
  0.13960000000000000          1241459.0000000000
  0.14070000000000005          1623791.8750000000
  0.14180000000000004          2015461.8750000000
  0.14290000000000003          2412897.0000000000
  0.14400000000000002          2812275.2500000000
  0.14510000000000001          3209546.5000000000
  0.14620000000000000          3600516.5000000000
  0.14730000000000004          3980889.0000000000
  0.14840000000000003          4346332.0000000000
  0.14950000000000002          4692523.0000000000
  0.15060000000000001          5015252.0000000000
  0.15170000000000000          5310474.5000000000
  0.15280000000000005          5574419.0000000000
  0.15390000000000004          5803638.5000000000
  0.15500000000000003          5995064.5000000000
  0.15610000000000002          6146054.5000000000
  0.15720000000000001          6254413.5000000000
  0.15830000000000000          6318430.5000000000
  0.15940000000000004          6336885.0000000000
  0.16050000000000003          6309095.5000000000
  0.16160000000000002          6234984.5000000000
  0.16270000000000001          6115065.0000000000
  0.16380000000000000          5950473.0000000000
  0.16490000000000005          5742879.0000000000
  0.16600000000000004          5494438.0000000000
  0.16710000000000003          5207716.0000000000
  0.16820000000000002          4885694.0000000000
  0.16930000000000001          4531718.5000000000
  0.17040000000000000          4149470.7500000000
  0.17150000000000004          3742856.0000000000
  0.17260000000000003          3315932.5000000000
  0.17370000000000002          2872859.0000000000
  0.17480000000000001          2417793.0000000000
  0.17590000000000000          1954824.1250000000
  0.17700000000000005          1487951.5000000000
  0.17810000000000004          1020947.7500000000
  0.17920000000000003          557431.43750000000
  0.18030000000000002          100756.82031250000
  0.18140000000000001         -346022.46875000000
  0.18250000000000000         -780210.43750000000
  0.18360000000000004         -1199489.7500000000
  0.18470000000000003         -1601943.7500000000
  0.18580000000000002         -1985992.2500000000
  0.18690000000000001         -2350443.7500000000
  0.18800000000000000         -2694366.5000000000
  0.18910000000000005         -3017136.5000000000
  0.19020000000000004         -3318400.5000000000
  0.19130000000000003         -3598046.5000000000
  0.19240000000000002         -3856176.5000000000
  0.19350000000000001         -4093038.7500000000
  0.19460000000000005         -4308954.5000000000
  0.19570000000000004         -4504369.5000000000
  0.19680000000000003         -4679754.5000000000
  0.19790000000000002         -4835618.5000000000
  0.19900000000000001         -4972387.0000000000
  0.20010000000000000         -5090372.0000000000
  0.20120000000000005         -5189756.5000000000
  0.20230000000000004         -5270601.0000000000
  0.20340000000000003         -5332892.5000000000
  0.20450000000000002         -5376547.0000000000
  0.20560000000000000         -5401380.0000000000
  0.20670000000000005         -5407065.5000000000
  0.20780000000000004         -5393181.0000000000
  0.20890000000000003         -5359257.5000000000
