 -0.12000000000000000          0.0000000000000000
 -0.11889999999999999          0.0000000000000000
 -0.11780000000000000          0.0000000000000000
 -0.11670000000000000          0.0000000000000000
 -0.11559999999999999         -2.8465482399052215E-015
 -0.11449999999999999         -4.7506537413774183E-015
 -0.11340000000000000          6.2831608066914700E-015
 -0.11230000000000000         -2.7588062991848114E-014
 -0.11119999999999999         -3.1178624135611011E-013
 -0.11009999999999999         -9.3012349124815819E-013
 -0.10900000000000000         -1.1582507956214849E-012
 -0.10790000000000000          6.4714298373194645E-013
 -0.10679999999999999          5.1369425206615471E-012
 -0.10569999999999999          8.7002020171533800E-012
 -0.10460000000000000          3.2176414310747248E-012
 -0.10349999999999999         -1.6602601238258075E-011
 -0.10239999999999999         -4.1243973514237808E-011
 -0.10130000000000000         -4.3077312550376945E-011
 -0.10020000000000000          5.0746316870853292E-012
  -9.9099999999999994E-002     9.5216175222123667E-011
  -9.7999999999999990E-002     1.6441331629479805E-010
  -9.6899999999999986E-002     1.2411975613968451E-010
  -9.5799999999999996E-002    -6.3675405226337745E-011
  -9.4699999999999993E-002    -3.1918503951011701E-010
  -9.3599999999999989E-002    -4.5953946203880491E-010
  -9.2499999999999999E-002    -3.1565092206697898E-010
  -9.1399999999999995E-002     1.2113857139617323E-010
  -9.0299999999999991E-002     6.4407201794125513E-010
  -8.9200000000000002E-002     9.3421081981404086E-010
  -8.8099999999999984E-002     7.6161649209538496E-010
  -8.6999999999999994E-002     1.3611531346491290E-010
  -8.5899999999999990E-002    -7.0176969790836097E-010
  -8.4799999999999986E-002    -1.4220721267221847E-009
  -8.3699999999999997E-002    -1.7468020363509140E-009
  -8.2599999999999993E-002    -1.4937694414740577E-009
  -8.1499999999999989E-002    -5.6231536094131229E-010
  -8.0399999999999999E-002     1.0138646588941924E-009
  -7.9299999999999995E-002     2.9037934279330102E-009
  -7.8199999999999992E-002     4.3524459591992581E-009
  -7.7100000000000002E-002     4.3301127128358985E-009
  -7.5999999999999984E-002     2.0481416562745380E-009
  -7.4899999999999994E-002    -2.3844228813629798E-009
  -7.3799999999999991E-002    -7.6066211107672643E-009
  -7.2699999999999987E-002    -1.1299080782123383E-008
  -7.1599999999999997E-002    -1.1094000385014624E-008
  -7.0499999999999993E-002    -5.6878572962659746E-009
  -6.9399999999999989E-002     4.3732217847036736E-009
  -6.8300000000000000E-002     1.6568291627550025E-008
  -6.7199999999999996E-002     2.6940602637637312E-008
  -6.6099999999999992E-002     3.1059094851570990E-008
  -6.5000000000000002E-002     2.5066619002700463E-008
  -6.3899999999999985E-002     6.4734670957022900E-009
  -6.2799999999999995E-002    -2.5606674114442285E-008
  -6.1699999999999991E-002    -7.0943364960385225E-008
  -6.0599999999999994E-002    -1.2927611692248320E-007
  -5.9499999999999990E-002    -2.0155215452177799E-007
  -5.8399999999999994E-002    -2.9075428642499901E-007
  -5.7299999999999990E-002    -4.0201888396040886E-007
  -5.6199999999999986E-002    -5.4223107781581348E-007
  -5.5099999999999996E-002    -7.1960772629608982E-007
  -5.3999999999999992E-002    -9.4366907887888374E-007
  -5.2899999999999989E-002    -1.2255806041139294E-006
  -5.1799999999999985E-002    -1.5785474261065247E-006
  -5.0699999999999995E-002    -2.0180657429591520E-006
  -4.9599999999999991E-002    -2.5622305201977724E-006
  -4.8499999999999988E-002    -3.2324930998584023E-006
  -4.7399999999999998E-002    -4.0549821278546005E-006
  -4.6299999999999994E-002    -5.0619792091310956E-006
  -4.5199999999999990E-002    -6.2929411797085777E-006
  -4.4099999999999986E-002    -7.7948889156687073E-006
  -4.2999999999999997E-002    -9.6226858659065329E-006
  -4.1899999999999993E-002    -1.1840090337500442E-005
  -4.0799999999999989E-002    -1.4522007404593751E-005
  -3.9699999999999985E-002    -1.7757593013811857E-005
  -3.8599999999999995E-002    -2.1653326257364824E-005
  -3.7499999999999992E-002    -2.6335450456826948E-005
  -3.6399999999999988E-002    -3.1951822165865451E-005
  -3.5299999999999984E-002    -3.8673675589961931E-005
  -3.4199999999999994E-002    -4.6697605284862220E-005
  -3.3099999999999991E-002    -5.6247783504659310E-005
  -3.1999999999999987E-002    -6.7578323069028556E-005
  -3.0899999999999997E-002    -8.0976184108294547E-005
  -2.9799999999999993E-002    -9.6765303169377148E-005
  -2.8699999999999989E-002    -1.1531219934113324E-004
  -2.7599999999999986E-002    -1.3703244621865451E-004
  -2.6499999999999996E-002    -1.6239660908468068E-004
  -2.5399999999999992E-002    -1.9193456682842225E-004
  -2.4299999999999988E-002    -2.2623830591328442E-004
  -2.3199999999999985E-002    -2.6596439420245588E-004
  -2.2099999999999995E-002    -3.1183721148408949E-004
  -2.0999999999999991E-002    -3.6465292214415967E-004
  -1.9899999999999987E-002    -4.2528333142399788E-004
  -1.8799999999999983E-002    -4.9467833014205098E-004
  -1.7699999999999994E-002    -5.7386711705476046E-004
  -1.6599999999999990E-002    -6.6395860631018877E-004
  -1.5499999999999986E-002    -7.6614122372120619E-004
  -1.4399999999999996E-002    -8.8168162619695067E-004
  -1.3299999999999992E-002    -1.0119206272065639E-003
  -1.2199999999999989E-002    -1.1582666775211692E-003
  -1.1099999999999985E-002    -1.3221872504800558E-003
  -9.9999999999999950E-003    -1.5051995869725943E-003
  -8.8999999999999913E-003    -1.7088593449443579E-003
  -7.7999999999999875E-003    -1.9347486086189747E-003
  -6.6999999999999837E-003    -2.1844583097845316E-003
  -5.5999999999999939E-003    -2.4595670402050018E-003
  -4.4999999999999901E-003    -2.7616149745881557E-003
  -3.3999999999999864E-003    -3.0920770950615406E-003
  -2.2999999999999826E-003    -3.4523345530033112E-003
  -1.1999999999999927E-003    -3.8436437025666237E-003
  -9.9999999999988987E-005    -4.2671021074056625E-003
   1.0000000000000148E-003    -4.7236103564500809E-003
   2.1000000000000185E-003    -5.2138306200504303E-003
   3.2000000000000084E-003    -5.7381447404623032E-003
   4.3000000000000121E-003    -6.2966141849756241E-003
   5.4000000000000159E-003    -6.8889344111084938E-003
   6.5000000000000058E-003    -7.5143929570913315E-003
   7.6000000000000234E-003    -8.1718219444155693E-003
   8.7000000000000133E-003    -8.8595561683177948E-003
   9.8000000000000032E-003    -9.5753930509090424E-003
   1.0900000000000021E-002    -1.0316561907529831E-002
   1.2000000000000011E-002    -1.1079691350460052E-002
   1.3100000000000001E-002    -1.1860786005854607E-002
   1.4200000000000018E-002    -1.2655199505388737E-002
   1.5300000000000008E-002    -1.3457626104354858E-002
   1.6400000000000026E-002    -1.4262088574469090E-002
   1.7500000000000016E-002    -1.5061946585774422E-002
   1.8600000000000005E-002    -1.5849912539124489E-002
   1.9700000000000023E-002    -1.6618074849247932E-002
   2.0800000000000013E-002    -1.7357934266328812E-002
   2.1900000000000003E-002    -1.8060443922877312E-002
   2.3000000000000020E-002    -1.8716076388955116E-002
   2.4100000000000010E-002    -1.9314894452691078E-002
   2.5200000000000000E-002    -1.9846634939312935E-002
   2.6300000000000018E-002    -2.0300798118114471E-002
   2.7400000000000008E-002    -2.0666750147938728E-002
   2.8500000000000025E-002    -2.0933836698532104E-002
   2.9600000000000015E-002    -2.1091496571898460E-002
   3.0700000000000005E-002    -2.1129405125975609E-002
   3.1800000000000023E-002    -2.1037604659795761E-002
   3.2900000000000013E-002    -2.0806642249226570E-002
   3.4000000000000002E-002    -2.0427709445357323E-002
   3.5100000000000020E-002    -1.9892787560820580E-002
   3.6200000000000010E-002    -1.9194781780242920E-002
   3.7300000000000028E-002    -1.8327666446566582E-002
   3.8400000000000017E-002    -1.7286615446209908E-002
   3.9500000000000007E-002    -1.6068121418356895E-002
   4.0600000000000025E-002    -1.4670112170279026E-002
   4.1700000000000015E-002    -1.3092044740915298E-002
   4.2800000000000005E-002    -1.1335001327097416E-002
   4.3900000000000022E-002    -9.4017600640654564E-003
   4.5000000000000012E-002    -7.2968574240803719E-003
   4.6100000000000002E-002    -5.0266250036656857E-003
   4.7200000000000020E-002    -2.5992060545831919E-003
   4.8300000000000010E-002    -2.4558838049415499E-005
   4.9400000000000027E-002     2.6855615433305502E-003
   5.0500000000000017E-002     5.5176396854221821E-003
   5.1600000000000007E-002     8.4564592689275742E-003
   5.2700000000000025E-002     1.1485185474157333E-002
   5.3800000000000014E-002     1.4585469849407673E-002
   5.4900000000000004E-002     1.7737565562129021E-002
   5.6000000000000022E-002     2.0920466631650925E-002
   5.7100000000000012E-002     2.4112062528729439E-002
   5.8200000000000002E-002     2.7289308607578278E-002
   5.9300000000000019E-002     3.0428422614932060E-002
   6.0400000000000009E-002     3.3505074679851532E-002
   6.1500000000000027E-002     3.6494608968496323E-002
   6.2600000000000017E-002     3.9372254163026810E-002
   6.3700000000000007E-002     4.2113367468118668E-002
   6.4800000000000024E-002     4.4693659991025925E-002
   6.5900000000000014E-002     4.7089457511901855E-002
   6.7000000000000004E-002     4.9277938902378082E-002
   6.8100000000000022E-002     5.1237367093563080E-002
   6.9200000000000012E-002     5.2947349846363068E-002
   7.0300000000000029E-002     5.4389052093029022E-002
   7.1400000000000019E-002     5.5545434355735779E-002
   7.2500000000000009E-002     5.6401476263999939E-002
   7.3600000000000027E-002     5.6944373995065689E-002
   7.4700000000000016E-002     5.7163730263710022E-002
   7.5800000000000006E-002     5.7051710784435272E-002
   7.6900000000000024E-002     5.6603197008371353E-002
   7.8000000000000014E-002     5.5815905332565308E-002
   7.9100000000000004E-002     5.4690476506948471E-002
   8.0200000000000021E-002     5.3230557590723038E-002
   8.1300000000000011E-002     5.1442813128232956E-002
   8.2400000000000029E-002     4.9336928874254227E-002
   8.3500000000000019E-002     4.6925574541091919E-002
   8.4600000000000009E-002     4.4224329292774200E-002
   8.5700000000000026E-002     4.1251577436923981E-002
   8.6800000000000016E-002     3.8028366863727570E-002
   8.7900000000000006E-002     3.4578219056129456E-002
   8.9000000000000024E-002     3.0926918610930443E-002
   9.0100000000000013E-002     2.7102265506982803E-002
   9.1200000000000003E-002     2.3133791983127594E-002
   9.2300000000000021E-002     1.9052464514970779E-002
   9.3400000000000011E-002     1.4890353195369244E-002
   9.4500000000000028E-002     1.0680278763175011E-002
   9.5600000000000018E-002     6.4554545097053051E-003
   9.6700000000000008E-002     2.2491130512207747E-003
   9.7800000000000026E-002    -1.9058659672737122E-003
   9.8900000000000016E-002    -5.9773228131234646E-003
  0.10000000000000001         -9.9341869354248047E-003
  0.10110000000000002         -1.3746827840805054E-002
  0.10220000000000001         -1.7387390136718750E-002
  0.10330000000000003         -2.0830096676945686E-002
  0.10440000000000002         -2.4051532149314880E-002
  0.10550000000000001         -2.7030877768993378E-002
  0.10660000000000003         -2.9750129207968712E-002
  0.10770000000000002         -3.2194260507822037E-002
  0.10880000000000001         -3.4351348876953125E-002
  0.10990000000000003         -3.6212645471096039E-002
  0.11100000000000002         -3.7772618234157562E-002
  0.11210000000000001         -3.9028916507959366E-002
  0.11320000000000002         -3.9982333779335022E-002
  0.11430000000000001         -4.0636703372001648E-002
  0.11540000000000003         -4.0998756885528564E-002
  0.11650000000000002         -4.1077952831983566E-002
  0.11760000000000001         -4.0886253118515015E-002
  0.11870000000000003         -4.0437880903482437E-002
  0.11980000000000002         -3.9749063551425934E-002
  0.12090000000000001         -3.8837749511003494E-002
  0.12200000000000003         -3.7723317742347717E-002
  0.12310000000000001         -3.6426264792680740E-002
  0.12420000000000003         -3.4967910498380661E-002
  0.12530000000000002         -3.3370066434144974E-002
  0.12640000000000001         -3.1654767692089081E-002
  0.12750000000000003         -2.9843971133232117E-002
  0.12860000000000002         -2.7959294617176056E-002
  0.12970000000000001         -2.6021771132946014E-002
  0.13080000000000003         -2.4051610380411148E-002
  0.13190000000000002         -2.2068005055189133E-002
  0.13300000000000001         -2.0088961347937584E-002
  0.13410000000000000         -1.8131151795387268E-002
  0.13520000000000004         -1.6209796071052551E-002
  0.13630000000000003         -1.4338580891489983E-002
  0.13740000000000002         -1.2529593892395496E-002
  0.13850000000000001         -1.0793302208185196E-002
  0.13960000000000000         -9.1385422274470329E-003
  0.14070000000000005         -7.5725461356341839E-003
  0.14180000000000004         -6.1009791679680347E-003
  0.14290000000000003         -4.7279987484216690E-003
  0.14400000000000002         -3.4563355147838593E-003
  0.14510000000000001         -2.2873878479003906E-003
  0.14620000000000000         -1.2213264126330614E-003
  0.14730000000000004         -2.5720699341036379E-004
  0.14840000000000003          6.0691317776218057E-004
  0.14950000000000002          1.3738546986132860E-003
  0.15060000000000001          2.0471909083425999E-003
  0.15170000000000000          2.6311231777071953E-003
  0.15280000000000005          3.1303591094911098E-003
  0.15390000000000004          3.5499995574355125E-003
  0.15500000000000003          3.8954347837716341E-003
  0.15610000000000002          4.1722459718585014E-003
  0.15720000000000001          4.3861130252480507E-003
  0.15830000000000000          4.5427270233631134E-003
  0.15940000000000004          4.6477131545543671E-003
  0.16050000000000003          4.7065685503184795E-003
  0.16160000000000002          4.7246078029274940E-003
  0.16270000000000001          4.7069205902516842E-003
  0.16380000000000000          4.6583330258727074E-003
  0.16490000000000005          4.5833783224225044E-003
  0.16600000000000004          4.4862730428576469E-003
  0.16710000000000003          4.3709063902497292E-003
  0.16820000000000002          4.2408364824950695E-003
  0.16930000000000001          4.0992917492985725E-003
  0.17040000000000000          3.9491765201091766E-003
  0.17150000000000004          3.7930740509182215E-003
  0.17260000000000003          3.6332600284367800E-003
  0.17370000000000002          3.4717167727649212E-003
  0.17480000000000001          3.3101516310125589E-003
  0.17590000000000000          3.1500158365815878E-003
  0.17700000000000005          2.9925245326012373E-003
  0.17810000000000004          2.8386753983795643E-003
  0.17920000000000003          2.6892705354839563E-003
  0.18030000000000002          2.5449378881603479E-003
  0.18140000000000001          2.4061512667685747E-003
  0.18250000000000000          2.2732482757419348E-003
  0.18360000000000004          2.1464468445628881E-003
  0.18470000000000003          2.0258610602468252E-003
  0.18580000000000002          1.9115173490718007E-003
  0.18690000000000001          1.8033715896308422E-003
  0.18800000000000000          1.7013222677633166E-003
  0.18910000000000005          1.6052195569500327E-003
  0.19020000000000004          1.5148733509704471E-003
  0.19130000000000003          1.4300612965598702E-003
  0.19240000000000002          1.3505385722965002E-003
  0.19350000000000001          1.2760482495650649E-003
  0.19460000000000005          1.2063283938914537E-003
  0.19570000000000004          1.1411145096644759E-003
  0.19680000000000003          1.0801411699503660E-003
  0.19790000000000002          1.0231444612145424E-003
  0.19900000000000001          9.6986599965021014E-004
  0.20010000000000000          9.2005851911380887E-004
  0.20120000000000005          8.7348819943144917E-004
  0.20230000000000004          8.2993390969932079E-004
  0.20340000000000003          7.8918441431596875E-004
  0.20450000000000002          7.5103726703673601E-004
  0.20560000000000000          7.1530049899592996E-004
  0.20670000000000005          6.8179529625922441E-004
  0.20780000000000004          6.5035757143050432E-004
  0.20890000000000003          6.2083738157525659E-004
