  -1.3200000000000002E-002     0.0000000000000000
  -1.2100000000000001E-002     0.0000000000000000
  -1.1000000000000001E-002     0.0000000000000000
  -9.9000000000000025E-003     0.0000000000000000
  -8.8000000000000023E-003     0.0000000000000000
  -7.7000000000000011E-003     4.3103213327523041E-019
  -6.6000000000000017E-003     1.8236695868591747E-018
  -5.5000000000000014E-003     9.6051261471953138E-018
  -4.4000000000000011E-003     5.0767280344433564E-017
  -3.3000000000000008E-003     1.4050286067522795E-016
  -2.2000000000000006E-003     3.8403506027193290E-018
  -1.1000000000000003E-003    -1.4207551498465949E-015
  -1.7347234759768071E-018    -4.2088224351283666E-015
   1.0999999999999985E-003     4.3487798065855628E-015
   2.1999999999999988E-003     6.4420074363889107E-014
   3.2999999999999991E-003     1.6470515001778402E-013
   4.3999999999999994E-003    -7.0801539273340069E-014
   5.4999999999999997E-003    -1.4267267922640769E-012
   6.6000000000000000E-003    -2.9602850119131441E-012
   7.7000000000000002E-003     2.2282076357627023E-012
   8.8000000000000005E-003     2.1904325575583528E-011
   9.9000000000000008E-003     3.3466587140429382E-011
   1.1000000000000001E-002    -4.1542880246936420E-011
   1.2100000000000001E-002    -2.3487065070604274E-010
   1.3199999999999998E-002    -2.6523042095938365E-010
   1.4299999999999998E-002     4.5843590035232751E-010
   1.5399999999999999E-002     1.8442849469835210E-009
   1.6500000000000001E-002     1.6646788392193912E-009
   1.7599999999999998E-002    -3.3119400555392531E-009
   1.8700000000000001E-002    -1.1183605153064491E-008
   1.9799999999999998E-002    -9.3834051639873906E-009
   2.0900000000000002E-002     1.6240383260424096E-008
   2.1999999999999999E-002     5.3953840506437700E-008
   2.3099999999999996E-002     4.9821842651454062E-008
   2.4199999999999999E-002    -5.0287738417864603E-008
   2.5299999999999996E-002    -2.0506483622284577E-007
   2.6400000000000000E-002    -2.3388197689655499E-007
   2.7499999999999997E-002     5.0437531484703868E-008
   2.8600000000000000E-002     5.7433322808719822E-007
   2.9699999999999997E-002     8.7842209950395045E-007
   3.0800000000000001E-002     4.0470939666192862E-007
   3.1899999999999998E-002    -9.1664657020373852E-007
   3.3000000000000002E-002    -2.3174502530309837E-006
   3.4099999999999998E-002    -2.5432605070818681E-006
   3.5200000000000002E-002    -7.4360326607347815E-007
   3.6299999999999999E-002     2.8047606974723749E-006
   3.7400000000000003E-002     6.6580851125763729E-006
   3.8500000000000000E-002     8.6722784544690512E-006
   3.9599999999999996E-002     6.5162694227183238E-006
   4.0700000000000000E-002    -1.7010512465276406E-006
   4.1799999999999997E-002    -1.6100975699373521E-005
   4.2900000000000001E-002    -3.2979689422063529E-005
   4.3999999999999997E-002    -4.3466843635542318E-005
   4.5100000000000001E-002    -3.5098993976134807E-005
   4.6199999999999998E-002     2.7530668376130052E-006
   4.7300000000000002E-002     7.1439339080825448E-005
   4.8399999999999999E-002     1.5766642172820866E-004
   4.9500000000000002E-002     2.3421597143169492E-004
   5.0600000000000006E-002     2.6796368183568120E-004
   5.1699999999999996E-002     2.3235943808685988E-004
   5.2800000000000000E-002     1.1872862523887306E-004
   5.3900000000000003E-002    -5.8621855714591220E-005
   5.5000000000000007E-002    -2.6467602583579719E-004
   5.6099999999999997E-002    -4.5086452155373991E-004
   5.7200000000000001E-002    -5.6465697707608342E-004
   5.8300000000000005E-002    -5.6210451293736696E-004
   5.9399999999999994E-002    -4.2422869591973722E-004
   6.0499999999999998E-002    -1.7244853370357305E-004
   6.1600000000000002E-002     1.2857129331678152E-004
   6.2700000000000006E-002     3.9005206781439483E-004
   6.3799999999999996E-002     5.3533975733444095E-004
   6.4899999999999999E-002     5.3302210289984941E-004
   6.6000000000000003E-002     4.0589197305962443E-004
   6.7100000000000007E-002     2.1175008441787213E-004
   6.8199999999999997E-002     1.2401286767271813E-005
   6.9300000000000000E-002    -1.4736119192093611E-004
   7.0400000000000004E-002    -2.4216962628997862E-004
   7.1500000000000008E-002    -2.5927895330823958E-004
   7.2599999999999998E-002    -1.9768410129472613E-004
   7.3700000000000002E-002    -7.7261625847313553E-005
   7.4800000000000005E-002     5.4440890380647033E-005
   7.5899999999999995E-002     1.3509017298929393E-004
   7.6999999999999999E-002     1.2254413741175085E-004
   7.8100000000000003E-002     2.9473145332303829E-005
   7.9200000000000007E-002    -7.5644602475222200E-005
   8.0299999999999996E-002    -1.1343068035785109E-004
   8.1400000000000000E-002    -5.5143231293186545E-005
   8.2500000000000004E-002     5.1965700549772009E-005
   8.3600000000000008E-002     1.2324322597123682E-004
   8.4699999999999998E-002     1.0897059109993279E-004
   8.5800000000000001E-002     3.4701377444434911E-005
   8.6900000000000005E-002    -2.8909589673276059E-005
   8.8000000000000009E-002    -3.7474332202691585E-005
   8.9099999999999999E-002    -1.4851814739813562E-005
   9.0200000000000002E-002    -2.3523740310338326E-005
   9.1300000000000006E-002    -9.2127214884385467E-005
   9.2399999999999996E-002    -1.7267606745008379E-004
   9.3500000000000000E-002    -1.7417586059309542E-004
   9.4600000000000004E-002    -4.8007383156800643E-005
   9.5700000000000007E-002     1.5147631347645074E-004
   9.6799999999999997E-002     2.9286704375408590E-004
   9.7900000000000001E-002     2.6917434297502041E-004
   9.9000000000000005E-002     9.2355112428776920E-005
  0.10010000000000001         -1.0686999303288758E-004
  0.10120000000000000         -1.8505314073991030E-004
  0.10230000000000000         -1.1003037070622668E-004
  0.10340000000000001          1.2351763871265575E-005
  0.10450000000000001          4.0773262298898771E-005
  0.10560000000000000         -6.2118611822370440E-005
  0.10670000000000000         -1.8825067672878504E-004
  0.10780000000000001         -1.8556579016149044E-004
  0.10890000000000001         -8.5061337813385762E-006
  0.11000000000000000          2.2613895998802036E-004
  0.11110000000000000          3.3313673338852823E-004
  0.11220000000000001          2.1871266653761268E-004
  0.11330000000000000         -3.5234203096479177E-005
  0.11440000000000002         -2.3506976140197366E-004
  0.11550000000000001         -2.3313128622248769E-004
  0.11660000000000000         -4.8492671339772642E-005
  0.11770000000000001          1.4942268899176270E-004
  0.11880000000000000          1.8405116861686110E-004
  0.11989999999999999          2.4756460334174335E-005
  0.12100000000000001         -1.8319841183256358E-004
  0.12210000000000000         -2.4524924810975790E-004
  0.12320000000000002         -9.3704038590658456E-005
  0.12430000000000001          1.4677419676445425E-004
  0.12540000000000001          2.6859028730541468E-004
  0.12650000000000003          1.6697564569767565E-004
  0.12760000000000002         -6.8008266680408269E-005
  0.12870000000000001         -2.3306075308937579E-004
  0.12980000000000003         -1.8722133245319128E-004
  0.13090000000000002          3.2927200663834810E-005
  0.13200000000000001          2.4713779566809535E-004
  0.13310000000000002          2.7635274454951286E-004
  0.13420000000000001          8.3045095379929990E-005
  0.13530000000000003         -1.9526181858964264E-004
  0.13640000000000002         -3.4539206535555422E-004
  0.13750000000000001         -2.4426169693470001E-004
  0.13860000000000003          3.4133612643927336E-005
  0.13970000000000002          2.6759828324429691E-004
  0.14080000000000001          2.6685575721785426E-004
  0.14190000000000003          4.0280392568092793E-005
  0.14300000000000002         -2.0870310254395008E-004
  0.14410000000000003         -2.5734788505360484E-004
  0.14520000000000002         -5.7412020396441221E-005
  0.14630000000000001          2.2430792159866542E-004
  0.14740000000000003          3.4826248884201050E-004
  0.14850000000000002          1.9970520224887878E-004
  0.14960000000000001         -1.1900052049895748E-004
  0.15070000000000003         -3.6622548941522837E-004
  0.15180000000000002         -3.4645802224986255E-004
  0.15290000000000001         -6.7541441239882261E-005
  0.15400000000000003          2.5220579118467867E-004
  0.15510000000000002          3.5009768907912076E-004
  0.15620000000000003          1.4148096670396626E-004
  0.15730000000000002         -1.9254222570452839E-004
  0.15840000000000001         -3.5156353260390460E-004
  0.15950000000000003         -1.8380260735284537E-004
  0.16060000000000002          1.7006782582029700E-004
  0.16170000000000001          3.9973342791199684E-004
  0.16280000000000003          3.0309939756989479E-004
  0.16390000000000002         -3.9415710489265621E-005
  0.16500000000000001         -3.4481164766475558E-004
  0.16610000000000003         -3.7239081575535238E-004
  0.16720000000000002         -1.1390505096642300E-004
  0.16830000000000003          2.1492094674613327E-004
  0.16940000000000002          3.5254153772257268E-004
  0.17050000000000001          1.9442373013589531E-004
  0.17160000000000003         -1.2676652113441378E-004
  0.17270000000000002         -3.4427075297571719E-004
  0.17380000000000001         -2.7388657326810062E-004
  0.17490000000000003          2.6987750970874913E-005
  0.17600000000000002          3.0381613760255277E-004
  0.17710000000000004          3.2739056041464210E-004
  0.17820000000000003          9.4091970822773874E-005
  0.17930000000000001         -1.8404639558866620E-004
  0.18040000000000003         -2.8092673164792359E-004
  0.18150000000000002         -1.4684045163448900E-004
  0.18260000000000001          8.0640893429517746E-005
  0.18370000000000003          2.1864497102797031E-004
  0.18480000000000002          1.7938749806489795E-004
  0.18590000000000001          6.1889190874353517E-006
  0.18700000000000003         -1.7739838222041726E-004
  0.18810000000000002         -2.4540084996260703E-004
  0.18920000000000003         -1.4305084187071770E-004
  0.19030000000000002          6.8189699959475547E-005
  0.19140000000000001          2.3825677635613829E-004
  0.19250000000000003          2.3797551693860441E-004
  0.19360000000000002          6.9209665525704622E-005
  0.19470000000000001         -1.3338196731638163E-004
  0.19580000000000003         -2.1780586394015700E-004
  0.19690000000000002         -1.3557533384300768E-004
  0.19800000000000001          3.8326717913150787E-005
  0.19910000000000003          1.7791053687687963E-004
  0.20020000000000002          1.8914339307229966E-004
  0.20130000000000003          5.6349203077843413E-005
  0.20240000000000002         -1.4343590009957552E-004
  0.20350000000000001         -2.6684199110604823E-004
  0.20460000000000003         -1.9598851213231683E-004
  0.20570000000000002          4.5801658416166902E-005
  0.20680000000000001          2.7524243341758847E-004
  0.20790000000000003          2.9155917582102120E-004
  0.20900000000000002          6.7464767198543996E-005
  0.21010000000000004         -2.0962364214938134E-004
  0.21120000000000003         -3.0367673025466502E-004
  0.21230000000000002         -1.4152546646073461E-004
  0.21340000000000003          1.3405688514467329E-004
  0.21450000000000002          2.9980196268297732E-004
  0.21560000000000001          2.3118886747397482E-004
  0.21670000000000003         -1.8781533071887679E-005
  0.21780000000000002         -2.6812916621565819E-004
  0.21890000000000001         -3.2865436514839530E-004
  0.22000000000000003         -1.3804140326101333E-004
  0.22110000000000002          1.7386118997819722E-004
  0.22220000000000004          3.5927770659327507E-004
  0.22330000000000003          2.5141958030872047E-004
  0.22440000000000002         -7.1750422648619860E-005
  0.22550000000000003         -3.3521221484988928E-004
  0.22660000000000002         -3.0982337193563581E-004
  0.22770000000000001         -2.1409152395790443E-005
  0.22880000000000003          2.7990597300231457E-004
  0.22990000000000002          3.4942544880323112E-004
  0.23100000000000004          1.4710519462823868E-004
  0.23210000000000003         -1.5801655536051840E-004
  0.23320000000000002         -3.3837003866210580E-004
  0.23430000000000004         -2.6844799867831171E-004
  0.23540000000000003          5.6039220908132847E-007
  0.23650000000000002          2.7240515919402242E-004
  0.23760000000000003          3.3314307802356780E-004
  0.23870000000000002          1.1863107647513971E-004
  0.23980000000000001         -2.0606002362910658E-004
  0.24090000000000000         -3.6333044408820570E-004
  0.24200000000000005         -2.0845793187618256E-004
  0.24310000000000004          1.2681585212703794E-004
  0.24420000000000003          3.5069303703494370E-004
  0.24530000000000002          2.8000876773148775E-004
  0.24640000000000001         -6.0265829233685508E-006
  0.24750000000000005         -2.6173199876211584E-004
  0.24860000000000004         -2.9678622377105057E-004
  0.24970000000000003         -1.1042335972888395E-004
  0.25080000000000002          1.4211180678103119E-004
  0.25190000000000001          2.7584264171309769E-004
  0.25300000000000000          1.9592355238273740E-004
  0.25410000000000005         -4.0239945519715548E-005
  0.25520000000000004         -2.5130758876912296E-004
  0.25630000000000003         -2.6159788831137121E-004
  0.25740000000000002         -5.4980169807095081E-005
  0.25850000000000001          1.9425668870098889E-004
  0.25960000000000005          2.7313033933751285E-004
  0.26070000000000004          1.2799593969248235E-004
  0.26180000000000003         -9.5742114353924990E-005
  0.26290000000000002         -2.0802082144655287E-004
  0.26400000000000001         -1.4714711869601160E-004
  0.26510000000000000          1.1274394182692049E-006
  0.26620000000000005          1.1655815615085885E-004
  0.26730000000000004          1.3996547204442322E-004
  0.26840000000000003          7.7058910392224789E-005
  0.26950000000000002         -3.3407177397748455E-005
  0.27060000000000001         -1.2945047637913376E-004
  0.27170000000000005         -1.4129001647233963E-004
  0.27280000000000004         -4.6127788664307445E-005
  0.27390000000000003          8.9715926151257008E-005
  0.27500000000000002          1.5584588982164860E-004
  0.27610000000000001          1.0096785990754142E-004
  0.27720000000000000         -2.1057017875136808E-005
  0.27830000000000005         -1.1246395297348499E-004
  0.27940000000000004         -1.1995512613793835E-004
  0.28050000000000003         -5.5037686252035201E-005
  0.28160000000000002          4.2238068999722600E-005
  0.28270000000000001          1.2454359966795892E-004
  0.28380000000000005          1.3595055497717112E-004
  0.28490000000000004          4.2414387280587107E-005
  0.28600000000000003         -1.0938776540569961E-004
  0.28710000000000002         -1.9520932983141392E-004
  0.28820000000000001         -1.2164480722276494E-004
  0.28930000000000000          6.3418825448025018E-005
  0.29040000000000005          1.9852419791277498E-004
  0.29150000000000004          1.6329236677847803E-004
  0.29260000000000003         -5.6901126299635507E-006
  0.29370000000000002         -1.5907734632492065E-004
  0.29480000000000001         -1.7738083261065185E-004
  0.29590000000000005         -6.0592421505134553E-005
  0.29700000000000004          9.6755895356182009E-005
  0.29810000000000003          1.8481018196325749E-004
  0.29920000000000002          1.4191857189871371E-004
  0.30030000000000001         -1.0819255294336472E-005
  0.30140000000000006         -1.6851395776029676E-004
  0.30250000000000005         -2.0302021584939212E-004
  0.30360000000000004         -7.1861439209897071E-005
  0.30470000000000003          1.2275390326976776E-004
  0.30580000000000002          2.1175968868192285E-004
  0.30690000000000001          1.1783076479332522E-004
  0.30800000000000005         -6.9328139943536371E-005
  0.30910000000000004         -1.8396682571619749E-004
  0.31020000000000003         -1.4082390407565981E-004
  0.31130000000000002          4.8232832341454923E-006
  0.31240000000000001          1.3097222836222500E-004
  0.31350000000000006          1.5454340609721839E-004
  0.31460000000000005          7.2906324930954725E-005
  0.31570000000000004         -5.5529111705254763E-005
