  -1.3200000000000002E-002     0.0000000000000000
  -1.2100000000000001E-002     0.0000000000000000
  -1.1000000000000001E-002     0.0000000000000000
  -9.9000000000000025E-003     0.0000000000000000
  -8.8000000000000023E-003     0.0000000000000000
  -7.7000000000000011E-003     2.3706767144345152E-022
  -6.6000000000000017E-003     1.4771537327895164E-021
  -5.5000000000000014E-003     7.7629914979949973E-021
  -4.4000000000000011E-003     4.0967809740830747E-020
  -3.3000000000000008E-003     1.4616638145451163E-019
  -2.2000000000000006E-003     2.2555514414186503E-019
  -1.1000000000000003E-003    -5.5374794436386370E-019
  -1.7347234759768071E-018    -3.6500159301805711E-018
   1.0999999999999985E-003    -3.5730306441605671E-018
   2.1999999999999988E-003     3.4249823544341937E-017
   3.2999999999999991E-003     1.6026866566698267E-016
   4.3999999999999994E-003     2.1191570553242558E-016
   5.4999999999999997E-003    -6.1172486516645076E-016
   6.6000000000000000E-003    -3.0245816481656298E-015
   7.7000000000000002E-003    -3.4272253241483027E-015
   8.8000000000000005E-003     9.8456678804281252E-015
   9.9000000000000008E-003     4.0299676166673584E-014
   1.1000000000000001E-002     3.5857720194791207E-014
   1.2100000000000001E-002    -1.1616976911682508E-013
   1.3199999999999998E-002    -3.9122532795830833E-013
   1.4299999999999998E-002    -2.8496223935213505E-013
   1.5399999999999999E-002     9.8153429828329308E-013
   1.6500000000000001E-002     2.9114642554478598E-012
   1.7599999999999998E-002     2.0054702256494528E-012
   1.8700000000000001E-002    -5.9670796949407023E-012
   1.9799999999999998E-002    -1.7278935227071912E-011
   2.0900000000000002E-002    -1.3507596083317530E-011
   2.1999999999999999E-002     2.5099226516611672E-011
   2.3099999999999996E-002     8.2175849458465677E-011
   2.4199999999999999E-002     8.1919609984382191E-011
   2.5299999999999996E-002    -5.8524310397878310E-011
   2.6400000000000000E-002    -2.9994504102681674E-010
   2.7499999999999997E-002    -4.0083950048064310E-010
   2.8600000000000000E-002    -5.7215614190919695E-011
   2.9699999999999997E-002     7.4179978826194315E-010
   3.0800000000000001E-002     1.4475221021825746E-009
   3.1899999999999998E-002     1.1659567755728517E-009
   3.3000000000000002E-002    -6.1279636920374969E-010
   3.4099999999999998E-002    -3.2861871002154430E-009
   3.5200000000000002E-002    -5.0939625850787706E-009
   3.6299999999999999E-002    -3.9603262891318991E-009
   3.7400000000000003E-002     1.2442390451283813E-009
   3.8500000000000000E-002     9.6759382728350829E-009
   3.9599999999999996E-002     1.8029638226835232E-008
   4.0700000000000000E-002     2.0678010415053905E-008
   4.1799999999999997E-002     1.0886901158357887E-008
   4.2900000000000001E-002    -1.6107460254488615E-008
   4.3999999999999997E-002    -5.8153052151510565E-008
   4.5100000000000001E-002    -1.0136427164297857E-007
   4.6199999999999998E-002    -1.1915454223299093E-007
   4.7300000000000002E-002    -7.8348726617605280E-008
   4.8399999999999999E-002     4.7659444391001671E-008
   4.9500000000000002E-002     2.6319486323700403E-007
   5.0600000000000006E-002     5.3939385225021397E-007
   5.1699999999999996E-002     8.1457147871333291E-007
   5.2800000000000000E-002     1.0076695389216184E-006
   5.3900000000000003E-002     1.0407280797153362E-006
   5.5000000000000007E-002     8.6291424850060139E-007
   5.6099999999999997E-002     4.6936688136156590E-007
   5.7200000000000001E-002    -8.9169851946735434E-008
   5.8300000000000005E-002    -7.0888859227125067E-007
   5.9399999999999994E-002    -1.2513717138062930E-006
   6.0499999999999998E-002    -1.5795441186128301E-006
   6.1600000000000002E-002    -1.6036763099691598E-006
   6.2700000000000006E-002    -1.3184329645810067E-006
   6.3799999999999996E-002    -8.0946711022988893E-007
   6.4899999999999999E-002    -2.2186820558545151E-007
   6.6000000000000003E-002     2.9453408956214844E-007
   6.7100000000000007E-002     6.3423681240237784E-007
   6.8199999999999997E-002     7.5751995609607548E-007
   6.9300000000000000E-002     6.8329194391480996E-007
   7.0400000000000004E-002     4.6905017825338291E-007
   7.1500000000000008E-002     1.9325385380852822E-007
   7.2599999999999998E-002    -5.8075681153013647E-008
   7.3700000000000002E-002    -2.0929601873831416E-007
   7.4800000000000005E-002    -2.2184784143064462E-007
   7.5899999999999995E-002    -1.1760622697920553E-007
   7.6999999999999999E-002     2.4092495110039636E-008
   7.8100000000000003E-002     1.0770224889711244E-007
   7.9200000000000007E-002     8.2308289961474657E-008
   8.0299999999999996E-002    -2.1682980744230917E-008
   8.1400000000000000E-002    -1.1439876601571086E-007
   8.2500000000000004E-002    -1.1614655193170620E-007
   8.3600000000000008E-002    -1.9781692728315647E-008
   8.4699999999999998E-002     1.0793593929747658E-007
   8.5800000000000001E-002     1.8695575931815256E-007
   8.6900000000000005E-002     1.9014170504760841E-007
   8.8000000000000009E-002     1.5363076499852468E-007
   8.9099999999999999E-002     1.2485111255955417E-007
   9.0200000000000002E-002     1.0374403558444101E-007
   9.1300000000000006E-002     4.0135592627166261E-008
   9.2399999999999996E-002    -1.0550611762027984E-007
   9.3500000000000000E-002    -2.9627406661347777E-007
   9.4600000000000004E-002    -4.1847422949103930E-007
   9.5700000000000007E-002    -3.6156617966298654E-007
   9.6799999999999997E-002    -1.1717787629095255E-007
   9.7900000000000001E-002     1.9194401090771862E-007
   9.9000000000000005E-002     3.9078463487385307E-007
  0.10010000000000001          3.8280168723758834E-007
  0.10120000000000000          2.2224486428967793E-007
  0.10230000000000000          5.9949819330995524E-008
  0.10340000000000001          6.2268110667673682E-009
  0.10450000000000001          3.5444944757045960E-008
  0.10560000000000000          2.3704103568888968E-008
  0.10670000000000000         -1.1399939836564954E-007
  0.10780000000000001         -3.1959805824044452E-007
  0.10890000000000001         -4.2633681118786626E-007
  0.11000000000000000         -3.0663829875265947E-007
  0.11110000000000000          9.6302132934766860E-010
  0.11220000000000001          3.0447952781287313E-007
  0.11330000000000000          4.0539214296586579E-007
  0.11440000000000002          2.5672486003713857E-007
  0.11550000000000001         -7.8540729475662374E-010
  0.11660000000000000         -1.5567799493965140E-007
  0.11770000000000001         -1.0016605500595688E-007
  0.11880000000000000          8.3244479753830092E-008
  0.11989999999999999          1.9808811657640035E-007
  0.12100000000000001          1.1094445540038578E-007
  0.12210000000000000         -1.2470179910906154E-007
  0.12320000000000002         -3.1112563192436937E-007
  0.12430000000000001         -2.8193659318276332E-007
  0.12540000000000001         -5.3486026274640608E-008
  0.12650000000000003          1.8607480001264776E-007
  0.12760000000000002          2.4050623892435397E-007
  0.12870000000000001          7.4918055759098934E-008
  0.12980000000000003         -1.5623665206021542E-007
  0.13090000000000002         -2.4109743890221580E-007
  0.13200000000000001         -8.7060840314734378E-008
  0.13310000000000002          2.0085900587218930E-007
  0.13420000000000001          3.9852696431807999E-007
  0.13530000000000003          3.3680655064927123E-007
  0.13640000000000002          3.9446312882773782E-008
  0.13750000000000001         -2.8486283554229885E-007
  0.13860000000000003         -4.0043232729658484E-007
  0.13970000000000002         -2.3447910280083306E-007
  0.14080000000000001          5.9470433910746578E-008
  0.14190000000000003          2.2839442692657030E-007
  0.14300000000000002          1.3576122626091092E-007
  0.14410000000000003         -1.2056675302574149E-007
  0.14520000000000002         -2.9368405307650391E-007
  0.14630000000000001         -2.0189067129194882E-007
  0.14740000000000003          1.1302334712581796E-007
  0.14850000000000002          4.1440554809923924E-007
  0.14960000000000001          4.5879286858507839E-007
  0.15070000000000003          1.9191834610410297E-007
  0.15180000000000002         -2.0005764156394434E-007
  0.15290000000000001         -4.2775729980348842E-007
  0.15400000000000003         -3.2619195167171711E-007
  0.15510000000000002          5.0748192315097640E-009
  0.15620000000000003          2.7544288627723290E-007
  0.15730000000000002          2.4735905412853754E-007
  0.15840000000000001         -5.1899093023166643E-008
  0.15950000000000003         -3.4635036172403488E-007
  0.16060000000000002         -3.5390445418670424E-007
  0.16170000000000001         -4.0513718602142035E-008
  0.16280000000000003          3.4604448728714488E-007
  0.16390000000000002          4.9107069344245247E-007
  0.16500000000000001          2.7974559202448290E-007
  0.16610000000000003         -1.1471595939838153E-007
  0.16720000000000002         -3.8217882547542104E-007
  0.16830000000000003         -3.2661984050719184E-007
  0.16940000000000002         -1.4514953683431031E-008
  0.17050000000000001          2.8631626491915085E-007
  0.17160000000000003          3.2352747325603559E-007
  0.17270000000000002          6.4456294524006807E-008
  0.17380000000000001         -2.7553079462450114E-007
  0.17490000000000003         -4.1132537376142864E-007
  0.17600000000000002         -2.2938303345654276E-007
  0.17710000000000004          1.1778112707361288E-007
  0.17820000000000003          3.4959703043568879E-007
  0.17930000000000001          3.0012239449206390E-007
  0.18040000000000003          4.4387149955582572E-008
  0.18150000000000002         -1.9088500380348705E-007
  0.18260000000000001         -2.2729494730810984E-007
  0.18370000000000003         -6.2687774970981991E-008
  0.18480000000000002          1.5623000138020871E-007
  0.18590000000000001          2.5829663741205877E-007
  0.18700000000000003          1.6413090975220257E-007
  0.18810000000000002         -6.8408951392484596E-008
  0.18920000000000003         -2.8205715807416709E-007
  0.19030000000000002         -3.2323021059710300E-007
  0.19140000000000001         -1.5468405933916074E-007
  0.19250000000000003          1.0724415488994055E-007
  0.19360000000000002          2.7619628895081405E-007
  0.19470000000000001          2.4090158490253089E-007
  0.19580000000000003          4.7748017095727846E-008
  0.19690000000000002         -1.4661223701750714E-007
  0.19800000000000001         -2.0009956358535419E-007
  0.19910000000000003         -8.1169382326606865E-008
  0.20020000000000002          1.2071026844751032E-007
  0.20130000000000003          2.5573137918399880E-007
  0.20240000000000002          2.0783396337265003E-007
  0.20350000000000001         -1.7818507558331476E-008
  0.20460000000000003         -2.7237493327447737E-007
  0.20570000000000002         -3.5497757266966801E-007
  0.20680000000000001         -1.7840346799857798E-007
  0.20790000000000003          1.3333708182017290E-007
  0.20900000000000002          3.3079993499995908E-007
  0.21010000000000004          2.5261240921281569E-007
  0.21120000000000003         -2.9702752257776410E-008
  0.21230000000000002         -2.7456377438284107E-007
  0.21340000000000003         -2.7867122298630420E-007
  0.21450000000000002         -4.0048604432740831E-008
  0.21560000000000001          2.5199639708262112E-007
  0.21670000000000003          3.6882019571748970E-007
  0.21780000000000002          2.1101895697483997E-007
  0.21890000000000001         -1.1721213866167091E-007
  0.22000000000000003         -3.7389466456261289E-007
  0.22110000000000002         -3.5419358823673974E-007
  0.22220000000000004         -6.0967238368903054E-008
  0.22330000000000003          2.7491614673635922E-007
  0.22440000000000002          3.7373425243458769E-007
  0.22550000000000003          1.4990507679613074E-007
  0.22660000000000002         -2.0486437790623313E-007
  0.22770000000000001         -3.8704246207998949E-007
  0.22880000000000003         -2.4486951133440016E-007
  0.22990000000000002          1.0126265692633751E-007
  0.23100000000000004          3.7435464150803455E-007
  0.23210000000000003          3.6835368177889904E-007
  0.23320000000000002          9.5341277983607142E-008
  0.23430000000000004         -2.3840864571411657E-007
  0.23540000000000003         -3.8574705740757054E-007
  0.23650000000000002         -2.3561635487112653E-007
  0.23760000000000003          9.7434828205678059E-008
  0.23870000000000002          3.4591053577059938E-007
  0.23980000000000001          2.9782486876683834E-007
  0.24090000000000000         -1.5339447045903398E-008
  0.24200000000000005         -3.2982282505145122E-007
  0.24310000000000004         -3.7472599956345221E-007
  0.24420000000000003         -1.1209613148821518E-007
  0.24530000000000002          2.3478997945858282E-007
  0.24640000000000001          3.8548023439943790E-007
  0.24750000000000005          2.3821270644930337E-007
  0.24860000000000004         -6.8972909161857388E-008
  0.24970000000000003         -2.9293846637301613E-007
  0.25080000000000002         -2.7550956360755663E-007
  0.25190000000000001         -4.5634120482418439E-008
  0.25300000000000000          2.1383752368819842E-007
  0.25410000000000005          2.9946332347208227E-007
  0.25520000000000004          1.3911187579651596E-007
  0.25630000000000003         -1.4298616690666677E-007
  0.25740000000000002         -3.1710379744254169E-007
  0.25850000000000001         -2.4050140723375080E-007
  0.25960000000000005          1.6561580551410771E-008
  0.26070000000000004          2.3718096997527027E-007
  0.26180000000000003          2.5492033728369279E-007
  0.26290000000000002          8.7850459351557220E-008
  0.26400000000000001         -1.0749204903959253E-007
  0.26510000000000000         -1.8780274047003331E-007
  0.26620000000000005         -1.2307542363032553E-007
  0.26730000000000004          1.8012563884894917E-008
  0.26840000000000003          1.3737560777826729E-007
  0.26950000000000002          1.6138368152951443E-007
  0.27060000000000001          7.1812038981988735E-008
  0.27170000000000005         -7.7094711059544352E-008
  0.27280000000000004         -1.8017402680925443E-007
  0.27390000000000003         -1.5620055648923881E-007
  0.27500000000000002         -2.1141987716077892E-008
  0.27610000000000001          1.2010528394057474E-007
  0.27720000000000000          1.6405638803007605E-007
  0.27830000000000005          9.0620133619268017E-008
  0.27940000000000004         -3.7210373449170220E-008
  0.28050000000000003         -1.3345670879516547E-007
  0.28160000000000002         -1.4049680885364069E-007
  0.28270000000000001         -4.8767045512931873E-008
  0.28380000000000005          9.4504777337078849E-008
  0.28490000000000004          1.9260569672496786E-007
  0.28600000000000003          1.5577070655581338E-007
  0.28710000000000002         -1.1757254725353050E-008
  0.28820000000000001         -1.8602672469114623E-007
  0.28930000000000000         -2.1805090000270866E-007
  0.29040000000000005         -7.3982178605547233E-008
  0.29150000000000004          1.2501708113177301E-007
  0.29260000000000003          2.1169839214962849E-007
  0.29370000000000002          1.2107605584787962E-007
  0.29480000000000001         -6.3976571595958376E-008
  0.29590000000000005         -1.9486279256852868E-007
  0.29700000000000004         -1.7497401927357714E-007
  0.29810000000000003         -2.0114113041813653E-008
  0.29920000000000002          1.5958499943735660E-007
  0.30030000000000001          2.3168823304331454E-007
  0.30140000000000006          1.3305515267347801E-007
  0.30250000000000005         -7.1285796821030090E-008
  0.30360000000000004         -2.2246499042921641E-007
  0.30470000000000003         -1.9446659393906884E-007
  0.30580000000000002         -1.0476442824369769E-008
  0.30690000000000001          1.7080398606594827E-007
  0.30800000000000005          1.9748175361655740E-007
  0.30910000000000004          5.8164214777889356E-008
  0.31020000000000003         -1.2048407427300845E-007
  0.31130000000000002         -1.9530556016889022E-007
  0.31240000000000001         -1.2064434429248649E-007
  0.31350000000000006          3.6362862942951324E-008
  0.31460000000000005          1.6144112180427328E-007
  0.31570000000000004          1.7099556259836390E-007
