  -1.3200000000000002E-002     0.0000000000000000
  -1.2100000000000001E-002     0.0000000000000000
  -1.1000000000000001E-002     0.0000000000000000
  -9.9000000000000025E-003     0.0000000000000000
  -8.8000000000000023E-003     0.0000000000000000
  -7.7000000000000011E-003     0.0000000000000000
  -6.6000000000000017E-003     0.0000000000000000
  -5.5000000000000014E-003    -4.1984040192477334E-027
  -4.4000000000000011E-003    -1.3786895847900380E-026
  -3.3000000000000008E-003    -5.1778925459178205E-026
  -2.2000000000000006E-003    -3.2722056351751709E-025
  -1.1000000000000003E-003    -6.1003525921162505E-025
  -1.7347234759768071E-018     2.8356137719280294E-024
   1.0999999999999985E-003     1.5072091628844814E-023
   2.1999999999999988E-003    -5.6719498446224017E-025
   3.2999999999999991E-003    -2.2400625531110480E-022
   4.3999999999999994E-003    -7.6317190858886647E-022
   5.4999999999999997E-003     7.9901190424052337E-023
   6.6000000000000000E-003     7.7186428233760776E-021
   7.7000000000000002E-003     1.8753759684032683E-020
   8.8000000000000005E-003    -2.0540885013040633E-020
   9.9000000000000008E-003    -1.9032796462097802E-019
   1.1000000000000001E-002    -2.5132127738561485E-019
   1.2100000000000001E-002     7.6460217616549490E-019
   1.3199999999999998E-002     3.0416810447246260E-018
   1.4299999999999998E-002     1.2731480087757858E-018
   1.5399999999999999E-002    -1.4216888845569345E-017
   1.6500000000000001E-002    -3.1980665292039519E-017
   1.7599999999999998E-002     1.2148289631767147E-017
   1.8700000000000001E-002     1.6627052937298983E-016
   1.9799999999999998E-002     2.3194790238609177E-016
   2.0900000000000002E-002    -2.8484407762071836E-016
   2.1999999999999999E-002    -1.3722412319134864E-015
   2.3099999999999996E-002    -1.2279342403930210E-015
   2.4199999999999999E-002     2.7822878736035372E-015
   2.5299999999999996E-002     8.6507432551434331E-015
   2.6400000000000000E-002     5.2026703325808339E-015
   2.7499999999999997E-002    -1.7975451991692273E-014
   2.8600000000000000E-002    -4.4330875369246250E-014
   2.9699999999999997E-002    -2.1307794802671517E-014
   3.0800000000000001E-002     8.4997831798112877E-014
   3.1899999999999998E-002     1.9357127391868983E-013
   3.3000000000000002E-002     1.0438174033889497E-013
   3.4099999999999998E-002    -2.9456661719204358E-013
   3.5200000000000002E-002    -7.3501556403787749E-013
   3.6299999999999999E-002    -5.7728366358034133E-013
   3.7400000000000003E-002     6.2710031395116217E-013
   3.8500000000000000E-002     2.3513612931735928E-012
   3.9599999999999996E-002     2.8957008232216586E-012
   4.0700000000000000E-002     3.5265388699523559E-013
   4.1799999999999997E-002    -5.4930478568526730E-012
   4.2900000000000001E-002    -1.1355779164223812E-011
   4.3999999999999997E-002    -1.0402824435207236E-011
   4.5100000000000001E-002     3.9929518025338950E-012
   4.6199999999999998E-002     3.0201636330717818E-011
   4.7300000000000002E-002     5.0792075406702608E-011
   4.8399999999999999E-002     3.6260820734934640E-011
   4.9500000000000002E-002    -3.2315289333340047E-011
   5.0600000000000006E-002    -1.3206122306819168E-010
   5.1699999999999996E-002    -1.8899599940613854E-010
   5.2800000000000000E-002    -1.1657359799688294E-010
   5.3900000000000003E-002     1.1092280566282753E-010
   5.5000000000000007E-002     4.0527589617589399E-010
   5.6099999999999997E-002     5.8426341542627824E-010
   5.7200000000000001E-002     4.6352854887743433E-010
   5.8300000000000005E-002    -3.4088055295145026E-011
   5.9399999999999994E-002    -8.0739476215896389E-010
   6.0499999999999998E-002    -1.5636892891635057E-009
   6.1600000000000002E-002    -1.8695800463319756E-009
   6.2700000000000006E-002    -1.2896290702002489E-009
   6.3799999999999996E-002     3.7908670647013309E-010
   6.4899999999999999E-002     2.8567939125423436E-009
   6.6000000000000003E-002     5.2792965554715465E-009
   6.7100000000000007E-002     6.3728915478122872E-009
   6.8199999999999997E-002     4.8897934590286241E-009
   6.9300000000000000E-002     1.7416992847962831E-010
   7.0400000000000004E-002    -7.2859327460150780E-009
   7.1500000000000008E-002    -1.5489110438693388E-008
   7.2599999999999998E-002    -2.1019630480623164E-008
   7.3700000000000002E-002    -1.9938463324820077E-008
   7.4800000000000005E-002    -9.4656567029005600E-009
   7.5899999999999995E-002     1.0170140285481466E-008
   7.6999999999999999E-002     3.4739883858492249E-008
   7.8100000000000003E-002     5.6619626320753014E-008
   7.9200000000000007E-002     6.6923341535130021E-008
   8.0299999999999996E-002     5.8401493419069084E-008
   8.1400000000000000E-002     2.8177648658811449E-008
   8.2500000000000004E-002    -2.0412528556335019E-008
   8.3600000000000008E-002    -7.7405680087849760E-008
   8.4699999999999998E-002    -1.2756578371408978E-007
   8.5800000000000001E-002    -1.5358067173565360E-007
   8.6900000000000005E-002    -1.4081489041473105E-007
   8.8000000000000009E-002    -8.2918738542048231E-008
   8.9099999999999999E-002     1.3113933050590276E-008
   9.0200000000000002E-002     1.2478520261538506E-007
   9.1300000000000006E-002     2.1733958988079394E-007
   9.2399999999999996E-002     2.5300963102381502E-007
   9.3500000000000000E-002     2.0330065808593645E-007
   9.4600000000000004E-002     5.9036175059645757E-008
   9.5700000000000007E-002    -1.6568947103223763E-007
   9.6799999999999997E-002    -4.3550747363951814E-007
   9.7900000000000001E-002    -6.9911953914925107E-007
   9.9000000000000005E-002    -8.9675199888006318E-007
  0.10010000000000001         -9.7096926765516400E-007
  0.10120000000000000         -8.8125483443945996E-007
  0.10230000000000000         -6.1847248389312881E-007
  0.10340000000000001         -2.1230000868399657E-007
  0.10450000000000001          2.7301084060127323E-007
  0.10560000000000000          7.5324993531467044E-007
  0.10670000000000000          1.1433901363488985E-006
  0.10780000000000001          1.3750053540206864E-006
  0.10890000000000001          1.4082089592193370E-006
  0.11000000000000000          1.2372508990665665E-006
  0.11110000000000000          8.9087876631310792E-007
  0.11220000000000001          4.2892742158073816E-007
  0.11330000000000000         -6.5281014371976198E-008
  0.11440000000000002         -4.9910465804714477E-007
  0.11550000000000001         -7.9143001130432822E-007
  0.11660000000000000         -8.9374742628933745E-007
  0.11770000000000001         -8.0120571510633454E-007
  0.11880000000000000         -5.4921440550970146E-007
  0.11989999999999999         -2.0204385009492398E-007
  0.12100000000000001          1.5750562454286410E-007
  0.12210000000000000          4.3820114115078468E-007
  0.12320000000000002          5.5983838365136762E-007
  0.12430000000000001          4.8367229510404286E-007
  0.12540000000000001          2.3655530867472407E-007
  0.12650000000000003         -9.3932548850261810E-008
  0.12760000000000002         -3.9603000345778128E-007
  0.12870000000000001         -5.7804214748102822E-007
  0.12980000000000003         -5.9247315675747814E-007
  0.13090000000000002         -4.3499031221472251E-007
  0.13200000000000001         -1.3583358793312073E-007
  0.13310000000000002          2.4065050752142270E-007
  0.13420000000000001          5.9371416227804730E-007
  0.13530000000000003          8.0085590070666512E-007
  0.13640000000000002          7.6043488661525771E-007
  0.13750000000000001          4.4824147948929749E-007
  0.13860000000000003         -4.7766295807605275E-008
  0.13970000000000002         -5.4968154472589958E-007
  0.14080000000000001         -8.7171150653375662E-007
  0.14190000000000003         -9.1588663053698838E-007
  0.14300000000000002         -7.1140885893328232E-007
  0.14410000000000003         -3.6585450402526476E-007
  0.14520000000000002          2.4005966992035610E-008
  0.14630000000000001          4.1258380178987863E-007
  0.14740000000000003          7.6138542226544814E-007
  0.14850000000000002          9.7640941021381877E-007
  0.14960000000000001          9.2612611979348003E-007
  0.15070000000000003          5.5214815120052663E-007
  0.15180000000000002         -3.3289790479784642E-008
  0.15290000000000001         -5.7983589840659988E-007
  0.15400000000000003         -8.5741140765094315E-007
  0.15510000000000002         -8.0816420222618035E-007
  0.15620000000000003         -5.5971389656406245E-007
  0.15730000000000002         -2.9483388175322034E-007
  0.15840000000000001         -1.0008957929130702E-007
  0.15950000000000003          7.3006937384434423E-008
  0.16060000000000002          3.0753943747185986E-007
  0.16170000000000001          5.8298434169046232E-007
  0.16280000000000003          7.4241381753381575E-007
  0.16390000000000002          6.1926692751512746E-007
  0.16500000000000001          2.1932561367066228E-007
  0.16610000000000003         -2.3043088503982290E-007
  0.16720000000000002         -4.5220886590868759E-007
  0.16830000000000003         -3.6811636050515517E-007
  0.16940000000000002         -1.7401276863893145E-007
  0.17050000000000001         -1.3328396164524747E-007
  0.17160000000000003         -2.8789833095288486E-007
  0.17270000000000002         -4.0103282117343042E-007
  0.17380000000000001         -2.1484457590759121E-007
  0.17490000000000003          2.4142093479895266E-007
  0.17600000000000002          6.3235791003535269E-007
  0.17710000000000004          6.2661382571604918E-007
  0.17820000000000003          2.2492291407161247E-007
  0.17930000000000001         -2.2940758981349063E-007
  0.18040000000000003         -3.7110146422492107E-007
  0.18150000000000002         -1.5200687641936383E-007
  0.18260000000000001          1.2626837531115598E-007
  0.18370000000000003          1.1884651485161157E-007
  0.18480000000000002         -2.0187870575227862E-007
  0.18590000000000001         -4.8249381734422059E-007
  0.18700000000000003         -3.2005243610910838E-007
  0.18810000000000002          2.9259558687044773E-007
  0.18920000000000003          8.5840849806118058E-007
  0.19030000000000002          7.9163208965837839E-007
  0.19140000000000001          1.6442340822209189E-008
  0.19250000000000003         -8.6347620253945934E-007
  0.19360000000000002         -1.0799744813994039E-006
  0.19470000000000001         -4.4599687498703133E-007
  0.19580000000000003          4.3304447672198876E-007
  0.19690000000000002          7.4512217906885780E-007
  0.19800000000000001          2.8163466936348414E-007
  0.19910000000000003         -3.6399285363586387E-007
  0.20020000000000002         -4.2029381575048319E-007
  0.20130000000000003          2.5507461032248102E-007
  0.20240000000000002          1.0024236871686298E-006
  0.20350000000000001          9.8996815722784959E-007
  0.20460000000000003          3.3773488894439652E-008
  0.20570000000000002         -1.1672337905110908E-006
  0.20680000000000001         -1.6086895584521699E-006
  0.20790000000000003         -8.7312884033963201E-007
  0.20900000000000002          4.5314394014894788E-007
  0.21010000000000004          1.2531410220617545E-006
  0.21120000000000003          8.8049966961989412E-007
  0.21230000000000002         -2.1557816864969936E-007
  0.21340000000000003         -8.9222663746113540E-007
  0.21450000000000002         -4.3365173496567877E-007
  0.21560000000000001          7.0043296318544890E-007
  0.21670000000000003          1.3068549833405996E-006
  0.21780000000000002          6.6589058178578853E-007
  0.21890000000000001         -6.9605238195435959E-007
  0.22000000000000003         -1.5166249340836657E-006
  0.22110000000000002         -1.0524207709750044E-006
  0.22220000000000004          2.1616985179662151E-007
  0.22330000000000003          1.1052777608711040E-006
  0.22440000000000002          8.7735980969227967E-007
  0.22550000000000003         -1.2697304896391870E-007
  0.22660000000000002         -8.9788625246001175E-007
  0.22770000000000001         -7.1812451096775476E-007
  0.22880000000000003          2.1726013699208124E-007
  0.22990000000000002          1.0147144848815515E-006
  0.23100000000000004          9.0116208184554125E-007
  0.23210000000000003         -5.7437425482476101E-008
  0.23320000000000002         -9.8185830665897811E-007
  0.23430000000000004         -9.8872772014146904E-007
  0.23540000000000003         -6.8828946098165034E-008
  0.23650000000000002          8.6208586935754283E-007
  0.23760000000000003          8.7815345750641427E-007
  0.23870000000000002          1.0984562592852853E-008
  0.23980000000000001         -7.9050067824937287E-007
  0.24090000000000000         -6.9540607228191220E-007
  0.24200000000000005          1.2322367126671452E-007
  0.24310000000000004          7.3145503165505943E-007
  0.24420000000000003          4.8654953843652038E-007
  0.24530000000000002         -3.0728853062100825E-007
  0.24640000000000001         -8.0311758665629895E-007
  0.24750000000000005         -5.1776265763692209E-007
  0.24860000000000004          2.5341813625345821E-007
  0.24970000000000003          8.1580282085269573E-007
  0.25080000000000002          7.2476984769309638E-007
  0.25190000000000001          1.0155531526834238E-007
  0.25300000000000000         -5.2445864184846869E-007
  0.25410000000000005         -6.4213617179120774E-007
  0.25520000000000004         -1.7575528943325480E-007
  0.25630000000000003          4.0497312170373334E-007
  0.25740000000000002          4.7518989276795764E-007
  0.25850000000000001         -1.0002894157423725E-007
  0.25960000000000005         -7.3532737587811425E-007
  0.26070000000000004         -6.9261460566849564E-007
  0.26180000000000003          8.6305142588116723E-008
  0.26290000000000002          8.5640442648582393E-007
  0.26400000000000001          8.6840708490854013E-007
  0.26510000000000000          1.7705133359413594E-007
  0.26620000000000005         -4.8503233074370655E-007
  0.26730000000000004         -5.5811091215218767E-007
  0.26840000000000003         -1.7653381689797243E-007
  0.26950000000000002          1.6450756845642900E-007
  0.27060000000000001          2.1787326431876863E-007
  0.27170000000000005          9.9405802700403001E-008
  0.27280000000000004         -3.9837310339407850E-008
  0.27390000000000003         -1.8258404566040554E-007
  0.27500000000000002         -2.8182606115478848E-007
  0.27610000000000001         -1.8372973897839984E-007
  0.27720000000000000          1.3997053827097261E-007
  0.27830000000000005          4.2795045374077745E-007
  0.27940000000000004          3.8320575868056039E-007
  0.28050000000000003          4.2997591265248047E-008
  0.28160000000000002         -2.6674263153836364E-007
  0.28270000000000001         -3.2904884506024246E-007
  0.28380000000000005         -2.1552547480041540E-007
  0.28490000000000004         -5.3545729628012850E-008
  0.28600000000000003          1.6231169297498127E-007
  0.28710000000000002          3.8996725493234408E-007
  0.28820000000000001          3.7020384979769005E-007
  0.28930000000000000         -7.5649346342743229E-008
  0.29040000000000005         -6.1702843368038884E-007
  0.29150000000000004         -6.1126991113269469E-007
  0.29260000000000003          1.0748558310069711E-007
  0.29370000000000002          8.5458202647714643E-007
  0.29480000000000001          7.7948601528987638E-007
  0.29590000000000005         -1.2974393825970765E-007
  0.29700000000000004         -9.7637393992044963E-007
  0.29810000000000003         -9.3429491698771017E-007
  0.29920000000000002         -9.5406150535382039E-008
  0.30030000000000001          7.4565036811691243E-007
  0.30140000000000006          9.4839884923203499E-007
  0.30250000000000005          4.9550152425581473E-007
  0.30360000000000004         -2.1653590920323040E-007
  0.30470000000000003         -7.4030532459801179E-007
  0.30580000000000002         -7.4241683023501537E-007
  0.30690000000000001         -1.5779849604768970E-007
  0.30800000000000005          6.0983018101978814E-007
  0.30910000000000004          8.5346539435704472E-007
  0.31020000000000003          2.4131259124260396E-007
  0.31130000000000002         -6.9105078637221595E-007
  0.31240000000000001         -9.9504745776357595E-007
  0.31350000000000006         -3.3962996326408756E-007
  0.31460000000000005          6.0796855905209668E-007
  0.31570000000000004          9.4449183052347507E-007
