  -1.3200000000000002E-002     0.0000000000000000
  -1.2100000000000001E-002     0.0000000000000000
  -1.1000000000000001E-002     0.0000000000000000
  -9.9000000000000025E-003     0.0000000000000000
  -8.8000000000000023E-003     0.0000000000000000
  -7.7000000000000011E-003     0.0000000000000000
  -6.6000000000000017E-003     0.0000000000000000
  -5.5000000000000014E-003     0.0000000000000000
  -4.4000000000000011E-003     8.7086903350725853E-030
  -3.3000000000000008E-003     7.4710529957923824E-029
  -2.2000000000000006E-003     4.6834624757687833E-028
  -1.1000000000000003E-003     2.6601219799858549E-027
  -1.7347234759768071E-018     1.1588378253276330E-026
   1.0999999999999985E-003     3.3712211140676999E-026
   2.1999999999999988E-003     4.3001402670764180E-026
   3.2999999999999991E-003    -1.4285911075764517E-025
   4.3999999999999994E-003    -1.0231308017891456E-024
   5.4999999999999997E-003    -2.9659720504396700E-024
   6.6000000000000000E-003    -3.6553652869061381E-024
   7.7000000000000002E-003     7.0894645562286451E-024
   8.8000000000000005E-003     4.9958242427840968E-023
   9.9000000000000008E-003     1.3662273182280565E-022
   1.1000000000000001E-002     1.7253186955508336E-022
   1.2100000000000001E-002    -2.8453798857118836E-022
   1.3199999999999998E-002    -2.1077852458074342E-021
   1.4299999999999998E-002    -5.0495830182603445E-021
   1.5399999999999999E-002    -2.9329704063017127E-021
   1.6500000000000001E-002     1.9083093890102428E-020
   1.7599999999999998E-002     6.5607694575324143E-020
   1.8700000000000001E-002     7.8301918448292613E-020
   1.9799999999999998E-002    -9.0054267946898750E-020
   2.0900000000000002E-002    -5.2371472238207666E-019
   2.1999999999999999E-002    -8.7029347287444462E-019
   2.3099999999999996E-002    -1.3990343514535466E-019
   2.4199999999999999E-002     2.5718972575100879E-018
   2.5299999999999996E-002     6.2229488178175754E-018
   2.6400000000000000E-002     6.1352362400236774E-018
   2.7499999999999997E-002    -4.8410828067727200E-018
   2.8600000000000000E-002    -2.9581556965505021E-017
   2.9699999999999997E-002    -5.4027493614803115E-017
   3.0800000000000001E-002    -3.6751955561808690E-017
   3.1899999999999998E-002     7.5084130496059083E-017
   3.3000000000000002E-002     2.7543764439256135E-016
   3.4099999999999998E-002     3.9819656772113060E-016
   3.5200000000000002E-002     1.1580741657468181E-016
   3.6299999999999999E-002    -7.9462871287357129E-016
   3.7400000000000003E-002    -1.9615085007911471E-015
   3.8500000000000000E-002    -2.1528695489601282E-015
   3.9599999999999996E-002     1.5569464804714004E-016
   4.0700000000000000E-002     5.2647565770651533E-015
   4.1799999999999997E-002     1.0612716353506149E-014
   4.2900000000000001E-002     1.0498739600123611E-014
   4.3999999999999997E-002    -1.4104867811852678E-015
   4.5100000000000001E-002    -2.6219254360953376E-014
   4.6199999999999998E-002    -5.2380148151840930E-014
   4.7300000000000002E-002    -5.3064930243982775E-014
   4.8399999999999999E-002     1.8661279322491030E-015
   4.9500000000000002E-002     1.1566581839452666E-013
   5.0600000000000006E-002     2.3250951402924158E-013
   5.1699999999999996E-002     2.3896631743715313E-013
   5.2800000000000000E-002     2.6442882917489773E-014
   5.3900000000000003E-002    -4.0338641715126355E-013
   5.5000000000000007E-002    -8.5863645837500058E-013
   5.6099999999999997E-002    -9.8021276425525050E-013
   5.7200000000000001E-002    -4.0286749088645768E-013
   5.8300000000000005E-002     9.7470349933598266E-013
   5.9399999999999994E-002     2.7125031821367829E-012
   6.0499999999999998E-002     3.7398174834724074E-012
   6.1600000000000002E-002     2.7033891618344352E-012
   6.2700000000000006E-002    -1.1561562254444602E-012
   6.3799999999999996E-002    -6.9636206523338018E-012
   6.4899999999999999E-002    -1.1819859327411031E-011
   6.6000000000000003E-002    -1.1770402361110932E-011
   6.7100000000000007E-002    -3.9905943133300426E-012
   6.8199999999999997E-002     1.0922739275553983E-011
   6.9300000000000000E-002     2.7889352285925817E-011
   7.0400000000000004E-002     3.8249174660887064E-011
   7.1500000000000008E-002     3.2677083261489770E-011
   7.2599999999999998E-002     5.7292903060668365E-012
   7.3700000000000002E-002    -3.9180731575827465E-011
   7.4800000000000005E-002    -8.7104649881819540E-011
   7.5899999999999995E-002    -1.1448690606652434E-010
   7.6999999999999999E-002    -9.8433226847216559E-011
   7.8100000000000003E-002    -2.8276535626869936E-011
   7.9200000000000007E-002     8.6913053143344854E-011
   8.0299999999999996E-002     2.1795221183396052E-010
   8.1400000000000000E-002     3.2013766637639662E-010
   8.2500000000000004E-002     3.4032709983478071E-010
   8.3600000000000008E-002     2.2908293317858153E-010
   8.4699999999999998E-002    -3.7749005310505623E-011
   8.5800000000000001E-002    -4.3185352516239561E-010
   8.6900000000000005E-002    -8.5506718372485579E-010
   8.8000000000000009E-002    -1.1481353645592662E-009
   8.9099999999999999E-002    -1.1291003687574630E-009
   9.0200000000000002E-002    -6.5167665708187883E-010
   9.1300000000000006E-002     3.2804486904680630E-010
   9.2399999999999996E-002     1.6872324648531389E-009
   9.3500000000000000E-002     3.0961826436026740E-009
   9.4600000000000004E-002     4.0410266244350623E-009
   9.5700000000000007E-002     3.9405718688101388E-009
   9.6799999999999997E-002     2.3438138097020556E-009
   9.7900000000000001E-002    -8.5650087022770549E-010
   9.9000000000000005E-002    -5.2706474740205067E-009
  0.10010000000000001         -9.9644248408026215E-009
  0.10120000000000000         -1.3534101839240975E-008
  0.10230000000000000         -1.4325152619676373E-008
  0.10340000000000001         -1.0822517104713825E-008
  0.10450000000000001         -2.1922930137918684E-009
  0.10560000000000000          1.1146052081301150E-008
  0.10670000000000000          2.7120313106365757E-008
  0.10780000000000001          4.1982506360227489E-008
  0.10890000000000001          5.0788237615506659E-008
  0.11000000000000000          4.8392937657126822E-008
  0.11110000000000000          3.0851591503733289E-008
  0.11220000000000001         -3.0398534800468724E-009
  0.11330000000000000         -5.0456819167266076E-008
  0.11440000000000002         -1.0394189331464077E-007
  0.11550000000000001         -1.5180728496488882E-007
  0.11660000000000000         -1.7966632981369912E-007
  0.11770000000000001         -1.7299585408636631E-007
  0.11880000000000000         -1.2039909336181154E-007
  0.11989999999999999         -1.6987764084319679E-008
  0.12100000000000001          1.3289745481870341E-007
  0.12210000000000000          3.1441348369298794E-007
  0.12320000000000002          5.0292140940655372E-007
  0.12430000000000001          6.6682594024314312E-007
  0.12540000000000001          7.7233931961018243E-007
  0.12650000000000003          7.8961011240608059E-007
  0.12760000000000002          6.9922293732815888E-007
  0.12870000000000001          4.9767362497732393E-007
  0.12980000000000003          2.0036523551425489E-007
  0.13090000000000002         -1.5884634763096983E-007
  0.13200000000000001         -5.3170475666775019E-007
  0.13310000000000002         -8.6264003584801685E-007
  0.13420000000000001         -1.0979189255522215E-006
  0.13530000000000003         -1.1955298759858124E-006
  0.13640000000000002         -1.1340780474711210E-006
  0.13750000000000001         -9.1867718765570316E-007
  0.13860000000000003         -5.8202539321428048E-007
  0.13970000000000002         -1.7980141819862183E-007
  0.14080000000000001          2.1910898340138374E-007
  0.14190000000000003          5.4579396646659006E-007
  0.14300000000000002          7.4523205739751575E-007
  0.14410000000000003          7.8782045420666691E-007
  0.14520000000000002          6.7568140593721182E-007
  0.14630000000000001          4.4205134486219322E-007
  0.14740000000000003          1.4377074819549307E-007
  0.14850000000000002         -1.5140618359055225E-007
  0.14960000000000001         -3.7984315781613986E-007
  0.15070000000000003         -4.9604659579927102E-007
  0.15180000000000002         -4.8238877070616581E-007
  0.15290000000000001         -3.5206372217544413E-007
  0.15400000000000003         -1.4450809260324604E-007
  0.15510000000000002          8.5352191092624707E-008
  0.15620000000000003          2.8103210070185014E-007
  0.15730000000000002          3.9801759044166829E-007
  0.15840000000000001          4.1368974734723452E-007
  0.15950000000000003          3.3137746413558489E-007
  0.16060000000000002          1.7768384452665487E-007
  0.16170000000000001         -5.8849742856637022E-009
  0.16280000000000003         -1.7420030928860797E-007
  0.16390000000000002         -2.8924000616825651E-007
  0.16500000000000001         -3.2763099966359732E-007
  0.16610000000000003         -2.8402038765307225E-007
  0.16720000000000002         -1.7059372225958214E-007
  0.16830000000000003         -1.3601445303379478E-008
  0.16940000000000002          1.5213743154163240E-007
  0.17050000000000001          2.8974375254620099E-007
  0.17160000000000003          3.6689687021862483E-007
  0.17270000000000002          3.6200034969624539E-007
  0.17380000000000001          2.6946239017888729E-007
  0.17490000000000003          1.0313208775869498E-007
  0.17600000000000002         -1.0384525950257739E-007
  0.17710000000000004         -3.0439281317740097E-007
  0.17820000000000003         -4.4801865328736312E-007
  0.17930000000000001         -4.9381702638129354E-007
  0.18040000000000003         -4.2169136804659502E-007
  0.18150000000000002         -2.3833045759147353E-007
  0.18260000000000001          2.2893267725976330E-008
  0.18370000000000003          3.0680971008223423E-007
  0.18480000000000002          5.4510985592060024E-007
  0.18590000000000001          6.6960876665689284E-007
  0.18700000000000003          6.3089782997849397E-007
  0.18810000000000002          4.1887020074682368E-007
  0.18920000000000003          7.5640059549186844E-008
  0.19030000000000002         -3.0978583254182013E-007
  0.19140000000000001         -6.2798244471196085E-007
  0.19250000000000003         -7.8677078363398323E-007
  0.19360000000000002         -7.4212209710822208E-007
  0.19470000000000001         -5.0847177135437960E-007
  0.19580000000000003         -1.4791329761010275E-007
  0.19690000000000002          2.5078966814362502E-007
  0.19800000000000001          5.9196997881372226E-007
  0.19910000000000003          7.8933436498118681E-007
  0.20020000000000002          7.8423391869364423E-007
  0.20130000000000003          5.6795153113853303E-007
  0.20240000000000002          1.9744801704746351E-007
  0.20350000000000001         -2.1352217061121337E-007
  0.20460000000000003         -5.3538229849436902E-007
  0.20570000000000002         -6.7829483896275633E-007
  0.20680000000000001         -6.2755481167187099E-007
  0.20790000000000003         -4.3498934587660187E-007
  0.20900000000000002         -1.7680663688679488E-007
  0.21010000000000004          8.4970132263606502E-008
  0.21120000000000003          3.0892152835804154E-007
  0.21230000000000002          4.5668619463867799E-007
  0.21340000000000003          4.8604613311908906E-007
  0.21450000000000002          3.7524671370192664E-007
  0.21560000000000001          1.5795966135101480E-007
  0.21670000000000003         -7.4585955189832021E-008
  0.21780000000000002         -2.2285614420525235E-007
  0.21890000000000001         -2.4617563099127437E-007
  0.22000000000000003         -1.8809181767664995E-007
  0.22110000000000002         -1.3151988298432116E-007
  0.22220000000000004         -1.1994492865596840E-007
  0.22330000000000003         -1.1815559730621317E-007
  0.22440000000000002         -5.4634558210864270E-008
  0.22550000000000003          9.0365013249993353E-008
  0.22660000000000002          2.3957630901350058E-007
  0.22770000000000001          2.7335170216247207E-007
  0.22880000000000003          1.4401281589471182E-007
  0.22990000000000002         -6.1562445807794575E-008
  0.23100000000000004         -1.8639478582826996E-007
  0.23210000000000003         -1.4660031411040109E-007
  0.23320000000000002         -1.4115010493753744E-008
  0.23430000000000004          5.4049738906769562E-008
  0.23540000000000003         -1.9576608778493210E-008
  0.23650000000000002         -1.4076411503083364E-007
  0.23760000000000003         -1.3030906131916709E-007
  0.23870000000000002          8.3430578001753020E-008
  0.23980000000000001          3.5879870097232924E-007
  0.24090000000000000          4.4382701958056714E-007
  0.24200000000000005          2.0792421651094628E-007
  0.24310000000000004         -2.1477710276940343E-007
  0.24420000000000003         -5.1892720875912346E-007
  0.24530000000000002         -4.8802479568621493E-007
  0.24640000000000001         -1.8526274914165697E-007
  0.24750000000000005          1.0956246399018710E-007
  0.24860000000000004          1.6793195811715123E-007
  0.24970000000000003          3.2193824495152512E-008
  0.25080000000000002         -3.6097294042747308E-008
  0.25190000000000001          1.5631296435003605E-007
  0.25300000000000000          4.9473908347863471E-007
  0.25410000000000005          6.2753906604484655E-007
  0.25520000000000004          3.0980893939158705E-007
  0.25630000000000003         -3.1242495879268972E-007
  0.25740000000000002         -7.8342503684325493E-007
  0.25850000000000001         -7.3871620998033904E-007
  0.25960000000000005         -2.4683382093826367E-007
  0.26070000000000004          2.5085472543651122E-007
  0.26180000000000003          3.5613004456536146E-007
  0.26290000000000002          8.3873764822328667E-008
  0.26400000000000001         -1.7636705251788953E-007
  0.26510000000000000         -6.9386722145736712E-008
  0.26620000000000005          3.4981616181539721E-007
  0.26730000000000004          6.4980423530869302E-007
  0.26840000000000003          4.4710657221003203E-007
  0.26950000000000002         -1.8444384863869345E-007
  0.27060000000000001         -7.3147487000824185E-007
  0.27170000000000005         -7.0231948257060139E-007
  0.27280000000000004         -1.0935042382698157E-007
  0.27390000000000003          5.0643740223677014E-007
  0.27500000000000002          5.7100976391666336E-007
  0.27610000000000001          3.7313892420343109E-008
  0.27720000000000000         -5.4862965725988033E-007
  0.27830000000000005         -5.7351763871338335E-007
  0.27940000000000004          2.5638883016654290E-008
  0.28050000000000003          6.7523245661504916E-007
  0.28160000000000002          7.1973943249759031E-007
  0.28270000000000001          7.7671522547007044E-008
  0.28380000000000005         -6.5807427063191426E-007
  0.28490000000000004         -7.8505667033823556E-007
  0.28600000000000003         -1.7092355619752198E-007
  0.28710000000000002          6.1343035895333742E-007
  0.28820000000000001          8.3300113828954636E-007
  0.28930000000000000          2.8249684191905544E-007
  0.29040000000000005         -5.2016827112311148E-007
  0.29150000000000004         -8.1962554077108507E-007
  0.29260000000000003         -3.3487512496321870E-007
  0.29370000000000002          4.6741888581891544E-007
  0.29480000000000001          8.0415293268742971E-007
  0.29590000000000005          3.2190590104619332E-007
  0.29700000000000004         -5.4637354196529486E-007
  0.29810000000000003         -9.7403415111330105E-007
  0.29920000000000002         -5.2781547310587484E-007
  0.30030000000000001          4.0872922113521781E-007
  0.30140000000000006          9.9764088190568145E-007
  0.30250000000000005          7.4389424753462663E-007
  0.30360000000000004         -5.6202235754199137E-008
  0.30470000000000003         -6.4071281258293311E-007
  0.30580000000000002         -5.2849344456262770E-007
  0.30690000000000001          5.9207252434134716E-008
  0.30800000000000005          4.7736460828673444E-007
  0.30910000000000004          3.0663812822240288E-007
  0.31020000000000003         -2.7114373324366170E-007
  0.31130000000000002         -6.8802006580881425E-007
  0.31240000000000001         -5.3767354302181047E-007
  0.31350000000000006          6.5669844673266198E-008
  0.31460000000000005          6.1463214251489262E-007
  0.31570000000000004          6.7323952634978923E-007
