  -1.3200000000000002E-002     0.0000000000000000
  -1.2100000000000001E-002     0.0000000000000000
  -1.1000000000000001E-002     0.0000000000000000
  -9.9000000000000025E-003     0.0000000000000000
  -8.8000000000000023E-003     0.0000000000000000
  -7.7000000000000011E-003     0.0000000000000000
  -6.6000000000000017E-003     0.0000000000000000
  -5.5000000000000014E-003     0.0000000000000000
  -4.4000000000000011E-003     0.0000000000000000
  -3.3000000000000008E-003     0.0000000000000000
  -2.2000000000000006E-003     0.0000000000000000
  -1.1000000000000003E-003     0.0000000000000000
  -1.7347234759768071E-018     0.0000000000000000
   1.0999999999999985E-003     0.0000000000000000
   2.1999999999999988E-003     0.0000000000000000
   3.2999999999999991E-003     0.0000000000000000
   4.3999999999999994E-003     0.0000000000000000
   5.4999999999999997E-003     0.0000000000000000
   6.6000000000000000E-003     0.0000000000000000
   7.7000000000000002E-003     0.0000000000000000
   8.8000000000000005E-003     0.0000000000000000
   9.9000000000000008E-003     0.0000000000000000
   1.1000000000000001E-002     0.0000000000000000
   1.2100000000000001E-002     0.0000000000000000
   1.3199999999999998E-002     0.0000000000000000
   1.4299999999999998E-002     0.0000000000000000
   1.5399999999999999E-002     0.0000000000000000
   1.6500000000000001E-002     0.0000000000000000
   1.7599999999999998E-002     0.0000000000000000
   1.8700000000000001E-002     0.0000000000000000
   1.9799999999999998E-002     0.0000000000000000
   2.0900000000000002E-002     0.0000000000000000
   2.1999999999999999E-002     0.0000000000000000
   2.3099999999999996E-002     0.0000000000000000
   2.4199999999999999E-002     0.0000000000000000
   2.5299999999999996E-002     0.0000000000000000
   2.6400000000000000E-002     0.0000000000000000
   2.7499999999999997E-002     0.0000000000000000
   2.8600000000000000E-002     0.0000000000000000
   2.9699999999999997E-002     0.0000000000000000
   3.0800000000000001E-002     0.0000000000000000
   3.1899999999999998E-002     0.0000000000000000
   3.3000000000000002E-002     0.0000000000000000
   3.4099999999999998E-002     0.0000000000000000
   3.5200000000000002E-002     0.0000000000000000
   3.6299999999999999E-002     0.0000000000000000
   3.7400000000000003E-002     0.0000000000000000
   3.8500000000000000E-002     0.0000000000000000
   3.9599999999999996E-002     0.0000000000000000
   4.0700000000000000E-002     0.0000000000000000
   4.1799999999999997E-002    -4.0448771632054452E-033
   4.2900000000000001E-002    -1.1148156997748257E-032
   4.3999999999999997E-002     4.1486957222441157E-032
   4.5100000000000001E-002     9.6250435473224821E-032
   4.6199999999999998E-002    -1.3996090491243563E-031
   4.7300000000000002E-002    -6.8782636643167763E-031
   4.8399999999999999E-002    -8.9015444068066265E-032
   4.9500000000000002E-002     3.5880018440205364E-030
   5.0600000000000006E-002     4.9874660487309844E-030
   5.1699999999999996E-002    -1.2057322032655516E-029
   5.2800000000000000E-002    -4.0178798648055124E-029
   5.3900000000000003E-002     7.3714780542325321E-030
   5.5000000000000007E-002     1.9974114361262757E-028
   5.6099999999999997E-002     2.2238905660833851E-028
   5.7200000000000001E-002    -6.1420621487730537E-028
   5.8300000000000005E-002    -1.7736584118571979E-027
   5.9399999999999994E-002     3.4180494651085939E-028
   6.0499999999999998E-002     7.9078051811518145E-027
   6.1600000000000002E-002     8.9241885166549346E-027
   6.2700000000000006E-002    -2.0153545694906284E-026
   6.3799999999999996E-002    -6.1692768485196076E-026
   6.4899999999999999E-002    -3.5346469009822499E-027
   6.6000000000000003E-002     2.2881048606593861E-025
   6.7100000000000007E-002     3.1675945440147796E-025
   6.8199999999999997E-002    -4.1075001258726558E-025
   6.9300000000000000E-002    -1.6784445568967739E-024
   7.0400000000000004E-002    -8.0840098984333627E-025
   7.1500000000000008E-002     4.6821572907640276E-024
   7.2599999999999998E-002     9.0264643884836211E-024
   7.3700000000000002E-002    -3.3324289037053599E-024
   7.4800000000000005E-002    -3.3870396142493665E-023
   7.5899999999999995E-002    -3.5260996990773644E-023
   7.6999999999999999E-002     5.8448932211021109E-023
   7.8100000000000003E-002     1.8840864821662973E-022
   7.9200000000000007E-002     7.9859065251713535E-023
   8.0299999999999996E-002    -4.5256876926237443E-022
   8.1400000000000000E-002    -8.5448918479980244E-022
   8.2500000000000004E-002     1.3087924383117044E-022
   8.3600000000000008E-002     2.6025832413174529E-021
   8.4699999999999998E-002     3.2248544948142599E-021
   8.5800000000000001E-002    -2.6801720153710383E-021
   8.6900000000000005E-002    -1.2410664904956872E-020
   8.8000000000000009E-002    -1.0109628578799778E-020
   8.9099999999999999E-002     1.8338521478879598E-020
   9.0200000000000002E-002     5.1508229782121594E-020
   9.1300000000000006E-002     2.5581923998743386E-020
   9.2399999999999996E-002    -9.2207884370468842E-020
   9.3500000000000000E-002    -1.9179169948898182E-019
   9.4600000000000004E-002    -4.7724382542877267E-020
   9.5700000000000007E-002     3.8641566539534520E-019
   9.6799999999999997E-002     6.5637758713181324E-019
   9.7900000000000001E-002     4.4603274995349839E-020
   9.9000000000000005E-002    -1.4135088747998823E-018
  0.10010000000000001         -2.1095291444870877E-018
  0.10120000000000000          6.4572045061362146E-020
  0.10230000000000000          4.6040103616731846E-018
  0.10340000000000001          6.4805957262931422E-018
  0.10450000000000001         -1.6393195919016321E-019
  0.10560000000000000         -1.3404327823162580E-017
  0.10670000000000000         -1.9206989894054718E-017
  0.10780000000000001         -1.8353195986063716E-018
  0.10890000000000001          3.4384677145245232E-017
  0.11000000000000000          5.4641516400946128E-017
  0.11110000000000000          1.7700247321064876E-017
  0.11220000000000001         -7.3906311330567277E-017
  0.11330000000000000         -1.4569816372699180E-016
  0.11440000000000002         -9.3773164705951472E-017
  0.11550000000000001          1.1185549171503827E-016
  0.11660000000000000          3.4665874216632429E-016
  0.11770000000000001          3.7008457652316484E-016
  0.11880000000000000          1.7511173685369955E-018
  0.11989999999999999         -6.6168715649980486E-016
  0.12100000000000001         -1.1557717978472829E-015
  0.12210000000000000         -8.3027397687640038E-016
  0.12320000000000002          6.6505654768486406E-016
  0.12430000000000001          2.7805283744138532E-015
  0.12540000000000001          3.8278151569921207E-015
  0.12650000000000003          1.7030876424298062E-015
  0.12760000000000002         -4.2502067708653172E-015
  0.12870000000000001         -1.1170584958062040E-014
  0.12980000000000003         -1.2495014144718337E-014
  0.13090000000000002         -1.6258328378051753E-015
  0.13200000000000001          2.1045626247035050E-014
  0.13310000000000002          4.2299636151621814E-014
  0.13420000000000001          3.8589415002213481E-014
  0.13530000000000003         -8.6137448560073653E-015
  0.13640000000000002         -8.9505354896376316E-014
  0.13750000000000001         -1.5155900894101709E-013
  0.13860000000000003         -1.1581736275318583E-013
  0.13970000000000002          6.7125463716101452E-014
  0.14080000000000001          3.4403838285179678E-013
  0.14190000000000003          5.2572936238767798E-013
  0.14300000000000002          3.5653473446153883E-013
  0.14410000000000003         -2.9852110909091290E-013
  0.14520000000000002         -1.2309825467987645E-012
  0.14630000000000001         -1.8055879057524149E-012
  0.14740000000000003         -1.1965695361632056E-012
  0.14850000000000002          1.0224328978944430E-012
  0.14960000000000001          4.1811298347183001E-012
  0.15070000000000003          6.2305711805155095E-012
  0.15180000000000002          4.4394457728025305E-012
  0.15290000000000001         -2.7725953043872265E-012
  0.15400000000000003         -1.3552218375290082E-011
  0.15510000000000002         -2.1478378103845230E-011
  0.15620000000000003         -1.7426093554262501E-011
  0.15730000000000002          4.8418847056752590E-012
  0.15840000000000001          4.1190231780952047E-011
  0.15950000000000003          7.2500193348812303E-011
  0.16060000000000002          6.8854442980548214E-011
  0.16170000000000001          5.6364995136559681E-012
  0.16280000000000003         -1.1261250959515579E-010
  0.16390000000000002         -2.3382865088628080E-010
  0.16500000000000001         -2.6390853391511371E-010
  0.16610000000000003         -1.0891151175362879E-010
  0.16720000000000002          2.5219348831484467E-010
  0.16830000000000003          6.9779976241690633E-010
  0.16940000000000002          9.5149677026284962E-010
  0.17050000000000001          6.7686461990845714E-010
  0.17160000000000003         -3.1605804085010902E-010
  0.17270000000000002         -1.8258855538633156E-009
  0.17380000000000001         -3.1271134570687309E-009
  0.17490000000000003         -3.1212084028453546E-009
  0.17600000000000002         -8.5756635126443825E-010
  0.17710000000000004          3.6916092405192558E-009
  0.17820000000000003          8.9707841155473034E-009
  0.17930000000000001          1.1825170176393840E-008
  0.18040000000000003          8.5650846415319393E-009
  0.18150000000000002         -2.9003190959997482E-009
  0.18260000000000001         -2.0588183602399113E-008
  0.18370000000000003         -3.7035352562497792E-008
  0.18480000000000002         -4.0553491231776206E-008
  0.18590000000000001         -2.0012050683249072E-008
  0.18700000000000003          2.7689743831160740E-008
  0.18810000000000002          9.0493614379738574E-008
  0.18920000000000003          1.3902560169753997E-007
  0.19030000000000002          1.3373974638852815E-007
  0.19140000000000001          4.2607844363828917E-008
  0.19250000000000003         -1.3498429041192139E-007
  0.19360000000000002         -3.4860096320699085E-007
  0.19470000000000001         -4.9530848400536343E-007
  0.19580000000000003         -4.4762239781448443E-007
  0.19690000000000002         -1.1157331414324290E-007
  0.19800000000000001          5.0087743375115679E-007
  0.19910000000000003          1.2172110928077018E-006
  0.20020000000000002          1.7068629176719696E-006
  0.20130000000000003          1.5699304185545770E-006
  0.20240000000000002          5.1033669024036499E-007
  0.20350000000000001         -1.4532253089782898E-006
  0.20460000000000003         -3.8276089071587194E-006
  0.20570000000000002         -5.6427670642733574E-006
  0.20680000000000001         -5.6843241509341169E-006
  0.20790000000000003         -2.9596783406304894E-006
  0.20900000000000002          2.7168905489816098E-006
  0.21010000000000004          1.0242127245874144E-005
  0.21120000000000003          1.7113265130319633E-005
  0.21230000000000002          1.9900677216355689E-005
  0.21340000000000003          1.5337038348661736E-005
  0.21450000000000002          1.7968509382626507E-006
  0.21560000000000001         -1.9315695681143552E-005
  0.21670000000000003         -4.2889369069598615E-005
  0.21780000000000002         -6.0677470173686743E-005
  0.21890000000000001         -6.3321727793663740E-005
  0.22000000000000003         -4.3504402128746733E-005
  0.22110000000000002          6.4747115402497002E-007
  0.22220000000000004          6.3137260440271348E-005
  0.22330000000000003          1.2984976638108492E-004
  0.22440000000000002          1.8115290731657296E-004
  0.22550000000000003          1.9711379718501121E-004
  0.22660000000000002          1.6404810594394803E-004
  0.22770000000000001          8.0355079262517393E-005
  0.22880000000000003         -4.0583203372079879E-005
  0.22990000000000002         -1.7199864669237286E-004
  0.23100000000000004         -2.8004587511532009E-004
  0.23210000000000003         -3.3337404602207243E-004
  0.23320000000000002         -3.1311434577219188E-004
  0.23430000000000004         -2.1994329290464520E-004
  0.23540000000000003         -7.5425443355925381E-005
  0.23650000000000002          8.3303399151191115E-005
  0.23760000000000003          2.1431322966236621E-004
  0.23870000000000002          2.8372983797453344E-004
  0.23980000000000001          2.7644235524348915E-004
  0.24090000000000000          2.0072793995495886E-004
  0.24200000000000005          8.5078223492018878E-005
  0.24310000000000004         -3.1828476494411007E-005
  0.24420000000000003         -1.1453004844952375E-004
  0.24530000000000002         -1.4266172365751117E-004
  0.24640000000000001         -1.1696028377627954E-004
  0.24750000000000005         -5.7220273447455838E-005
  0.24860000000000004          6.9069124037923757E-006
  0.24970000000000003          4.8479723773198202E-005
  0.25080000000000002          5.4088941396912560E-005
  0.25190000000000001          2.8490207114373334E-005
  0.25300000000000000         -8.7678181444061920E-006
  0.25410000000000005         -3.3261178032262251E-005
  0.25520000000000004         -2.7791296815848909E-005
  0.25630000000000003          8.7247435658355244E-006
  0.25740000000000002          5.9686211898224428E-005
  0.25850000000000001          9.7686635854188353E-005
  0.25960000000000005          9.7097312391269952E-005
  0.26070000000000004          4.7010478738229722E-005
  0.26180000000000003         -4.1376850276719779E-005
  0.26290000000000002         -1.3674629735760391E-004
  0.26400000000000001         -1.9894955039490014E-004
  0.26510000000000000         -1.9548610725905746E-004
  0.26620000000000005         -1.1645615450106561E-004
  0.26730000000000004          1.8551863831817172E-005
  0.26840000000000003          1.6518915072083473E-004
  0.26950000000000002          2.6961450930684805E-004
  0.27060000000000001          2.8881829348392785E-004
  0.27170000000000005          2.0812483853660524E-004
  0.27280000000000004          4.8780617362353951E-005
  0.27390000000000003         -1.3785285409539938E-004
  0.27500000000000002         -2.8780824504792690E-004
  0.27610000000000001         -3.4744391450658441E-004
  0.27720000000000000         -2.9321777401492000E-004
  0.27830000000000005         -1.4080916298553348E-004
  0.27940000000000004          5.9947364206891507E-005
  0.28050000000000003          2.4243105144705623E-004
  0.28160000000000002          3.4649987355805933E-004
  0.28270000000000001          3.3905249438248575E-004
  0.28380000000000005          2.2463018831331283E-004
  0.28490000000000004          4.2682786443037912E-005
  0.28600000000000003         -1.4688888040836900E-004
  0.28710000000000002         -2.8428266523405910E-004
  0.28820000000000001         -3.2912471215240657E-004
  0.28930000000000000         -2.7224677614867687E-004
  0.29040000000000005         -1.3663576100952923E-004
  0.29150000000000004          3.1914805731503293E-005
  0.29260000000000003          1.8061744049191475E-004
  0.29370000000000002          2.6641655131243169E-004
  0.29480000000000001          2.6832305593416095E-004
  0.29590000000000005          1.9191447063349187E-004
  0.29700000000000004          6.5446271037217230E-005
  0.29810000000000003         -7.0370035246014595E-005
  0.29920000000000002         -1.7521630798000842E-004
  0.30030000000000001         -2.2071490820962936E-004
  0.30140000000000006         -1.9768561469390988E-004
  0.30250000000000005         -1.1764912051148713E-004
  0.30360000000000004         -8.5933852460584603E-006
  0.30470000000000003          9.3816983280703425E-005
  0.30580000000000002          1.5736109344288707E-004
  0.30690000000000001          1.6364804469048977E-004
  0.30800000000000005          1.1433738836785778E-004
  0.30910000000000004          3.0562216124963015E-005
  0.31020000000000003         -5.4834137699799612E-005
  0.31130000000000002         -1.0971097799483687E-004
  0.31240000000000001         -1.1494346108520404E-004
  0.31350000000000006         -7.1677444793749601E-005
  0.31460000000000005         -5.5382702157658059E-007
  0.31570000000000004          6.6752269049175084E-005
