 -0.12000000000000000          0.0000000000000000
 -0.11889999999999999          0.0000000000000000
 -0.11780000000000000          0.0000000000000000
 -0.11670000000000000          0.0000000000000000
 -0.11559999999999999          0.0000000000000000
 -0.11449999999999999          0.0000000000000000
 -0.11340000000000000          0.0000000000000000
 -0.11230000000000000          0.0000000000000000
 -0.11119999999999999          0.0000000000000000
 -0.11009999999999999          0.0000000000000000
 -0.10900000000000000          0.0000000000000000
 -0.10790000000000000         -7.7261154839999058E-030
 -0.10679999999999999          1.6391096237131515E-029
 -0.10569999999999999          3.1934152556675860E-028
 -0.10460000000000000          4.5825793763868633E-029
 -0.10349999999999999         -7.1577248012909841E-027
 -0.10239999999999999         -2.2714527156923901E-026
 -0.10130000000000000          2.3044442037885345E-026
 -0.10020000000000000          2.9607483121329096E-025
  -9.9099999999999994E-002     5.6845326690987426E-025
  -9.7999999999999990E-002    -9.0966016171363687E-025
  -9.6899999999999986E-002    -6.3739858589940075E-024
  -9.5799999999999996E-002    -9.6742256878922767E-024
  -9.4699999999999993E-002     1.5438522252485405E-023
  -9.3599999999999989E-002     9.2143144158942713E-023
  -9.2499999999999999E-002     1.3741926676691265E-022
  -9.1399999999999995E-002    -1.3462768366083999E-022
  -9.0299999999999991E-002    -9.5326032566263761E-022
  -8.9200000000000002E-002    -1.5828667486441006E-021
  -8.8099999999999984E-002     4.2298019967289368E-022
  -8.6999999999999994E-002     7.2436028526683905E-021
  -8.5899999999999990E-002     1.4286099034496960E-020
  -8.4799999999999986E-002     4.5893232464470742E-021
  -8.3699999999999997E-002    -4.0098135955482076E-020
  -8.2599999999999993E-002    -1.0032441964773497E-019
  -8.1499999999999989E-002    -8.0111854252043993E-020
  -8.0399999999999999E-002     1.4804613647184131E-019
  -7.9299999999999995E-002     5.4616585177283779E-019
  -7.8199999999999992E-002     6.7475175007845365E-019
  -7.7100000000000002E-002    -1.9703840271682910E-019
  -7.5999999999999984E-002    -2.2574313127582536E-018
  -7.4899999999999994E-002    -3.9284445107756139E-018
  -7.3799999999999991E-002    -1.7856991016108468E-018
  -7.2699999999999987E-002     6.5445016324674578E-018
  -7.1599999999999997E-002     1.7033971535626889E-017
  -7.0499999999999993E-002     1.6654393241777330E-017
  -6.9399999999999989E-002    -8.7844480014375654E-018
  -6.8300000000000000E-002    -5.5035125332345811E-017
  -6.7199999999999996E-002    -8.2757990917831927E-017
  -6.6099999999999992E-002    -3.1389376737851914E-017
  -6.5000000000000002E-002     1.2153061967593211E-016
  -6.3899999999999985E-002     2.8806947320474433E-016
  -6.2799999999999995E-002     2.6888240347420112E-016
  -6.1699999999999991E-002    -1.0308163327980261E-016
  -6.0599999999999994E-002    -7.1970510173846179E-016
  -5.9499999999999990E-002    -1.0717652936000879E-015
  -5.8399999999999994E-002    -5.0293703561879195E-016
  -5.7299999999999990E-002     1.1369674546600006E-015
  -5.6199999999999986E-002     2.8917262244546873E-015
  -5.5099999999999996E-002     2.9047521088758008E-015
  -5.3999999999999992E-002    -1.8281501512677724E-016
  -5.2899999999999989E-002    -5.3547779681499194E-015
  -5.1799999999999985E-002    -8.6389178281668158E-015
  -5.0699999999999995E-002    -5.3630687266376445E-015
  -4.9599999999999991E-002     5.3488157032341964E-015
  -4.8499999999999988E-002     1.7289306176505349E-014
  -4.7399999999999998E-002     1.9350897972761696E-014
  -4.6299999999999994E-002     4.0781748027944424E-015
  -4.5199999999999990E-002    -2.2800053403430887E-014
  -4.4099999999999986E-002    -4.1256955534210715E-014
  -4.2999999999999997E-002    -2.9820018524785719E-014
  -4.1899999999999993E-002     1.3805344467967585E-014
  -4.0799999999999989E-002     6.1696355218698179E-014
  -3.9699999999999985E-002     7.0057885003232262E-014
  -3.8599999999999995E-002     1.5944138235168479E-014
  -3.7499999999999992E-002    -7.1108666643750901E-014
  -3.6399999999999988E-002    -1.1710813254458413E-013
  -3.5299999999999984E-002    -6.0323843359758045E-014
  -3.4199999999999994E-002     8.0414827899853714E-014
  -3.3099999999999991E-002     1.9092203946274866E-013
  -3.1999999999999987E-002     1.3856231158120014E-013
  -3.0899999999999997E-002    -9.8307362142273369E-014
  -2.9799999999999993E-002    -3.5750506830085904E-013
  -2.8699999999999989E-002    -3.7462269614554899E-013
  -2.7599999999999986E-002    -3.0050425038966044E-015
  -2.6499999999999996E-002     5.8723062220170097E-013
  -2.5399999999999992E-002     9.3320522750323098E-013
  -2.4299999999999988E-002     5.9157187612055018E-013
  -2.3199999999999985E-002    -4.4457479689806456E-013
  -2.2099999999999995E-002    -1.5705387294492890E-012
  -2.0999999999999991E-002    -1.8778518236922670E-012
  -1.9899999999999987E-002    -8.2678650167519740E-013
  -1.8799999999999983E-002     1.1942391520136653E-012
  -1.7699999999999994E-002     2.9326458796108401E-012
  -1.6599999999999990E-002     3.0589506622158424E-012
  -1.5499999999999986E-002     1.1807882146011583E-012
  -1.4399999999999996E-002    -1.7088466058856611E-012
  -1.3299999999999992E-002    -3.8108474709197537E-012
  -1.2199999999999989E-002    -3.7963274017449589E-012
  -1.1099999999999985E-002    -1.8083816779104755E-012
  -9.9999999999999950E-003     6.7726759530456482E-013
  -8.8999999999999913E-003     2.1115231958745984E-012
  -7.7999999999999875E-003     2.2231940680766948E-012
  -6.6999999999999837E-003     2.2024972991252501E-012
  -5.5999999999999939E-003     3.3544790209449893E-012
  -4.4999999999999901E-003     5.2769785069406439E-012
  -3.3999999999999864E-003     5.3480856895826712E-012
  -2.2999999999999826E-003     5.2444073389557033E-013
  -1.1999999999999927E-003    -9.4761316848934740E-012
  -9.9999999999988987E-005    -2.0134189454568130E-011
   1.0000000000000148E-003    -2.3533921339469188E-011
   2.1000000000000185E-003    -1.3242608398744693E-011
   3.2000000000000084E-003     1.0172557241006075E-011
   4.3000000000000121E-003     3.7061204799515579E-011
   5.4000000000000159E-003     5.2429532937381396E-011
   6.5000000000000058E-003     4.4115436997893553E-011
   7.6000000000000234E-003     1.0686436978379898E-011
   8.7000000000000133E-003    -3.6030643746354230E-011
   9.8000000000000032E-003    -7.5783407327278951E-011
   1.0900000000000021E-002    -8.9506152489704505E-011
   1.2000000000000011E-002    -6.8226577165653168E-011
   1.3100000000000001E-002    -1.6584492459892353E-011
   1.4200000000000018E-002     4.9913215921515430E-011
   1.5300000000000008E-002     1.1091053769840542E-010
   1.6400000000000026E-002     1.4652333513165416E-010
   1.7500000000000016E-002     1.4045306584442585E-010
   1.8600000000000005E-002     8.2835550918591849E-011
   1.9700000000000023E-002    -2.4369742335217381E-011
   2.0800000000000013E-002    -1.5998780078518848E-010
   2.1900000000000003E-002    -2.8005264773867111E-010
   2.3000000000000020E-002    -3.2607888611480007E-010
   2.4100000000000010E-002    -2.4844445944971483E-010
   2.5200000000000000E-002    -3.7499378602312561E-011
   2.6300000000000018E-002     2.5480381693476772E-010
   2.7400000000000008E-002     5.2059534461079693E-010
   2.8500000000000025E-002     6.3478933221006173E-010
   2.9600000000000015E-002     5.1291865199587505E-010
   3.0700000000000005E-002     1.5936482689049569E-010
   3.1800000000000023E-002    -3.2170532904274296E-010
   3.2900000000000013E-002    -7.6184714092875083E-010
   3.4000000000000002E-002    -9.9402241993118423E-010
   3.5100000000000020E-002    -9.1623797437989651E-010
   3.6200000000000010E-002    -5.2493676072629114E-010
   3.7300000000000028E-002     8.9646748357985473E-011
   3.8400000000000017E-002     7.7275297272194621E-010
   3.9500000000000007E-002     1.3392646991405854E-009
   4.0600000000000025E-002     1.6046687312254448E-009
   4.1700000000000015E-002     1.4212739873897817E-009
   4.2800000000000005E-002     7.3092265573393433E-010
   4.3900000000000022E-002    -3.7346364889501160E-010
   4.5000000000000012E-002    -1.6133048230670965E-009
   4.6100000000000002E-002    -2.5638293710272819E-009
   4.7200000000000020E-002    -2.7893567455805623E-009
   4.8300000000000010E-002    -2.0397028510643622E-009
   4.9400000000000027E-002    -4.1801656580631175E-010
   5.0500000000000017E-002     1.5824876964387613E-009
   5.1600000000000007E-002     3.2260405458117702E-009
   5.2700000000000025E-002     3.8262770729602380E-009
   5.3800000000000014E-002     3.0569369258159895E-009
   5.4900000000000004E-002     1.1296239499358762E-009
   5.6000000000000022E-002    -1.2579774999466053E-009
   5.7100000000000012E-002    -3.1900091457259805E-009
   5.8200000000000002E-002    -3.8979406369321623E-009
   5.9300000000000019E-002    -3.0625120217564472E-009
   6.0400000000000009E-002    -9.3160956726734412E-010
   6.1500000000000027E-002     1.7707916244447119E-009
   6.2600000000000017E-002     4.0771843679010544E-009
   6.3700000000000007E-002     5.0451558486486192E-009
   6.4800000000000024E-002     3.9844021415547104E-009
   6.5900000000000014E-002     6.2514871057572918E-010
   6.7000000000000004E-002    -4.7479846720932528E-009
   6.8100000000000022E-002    -1.1184360104721236E-008
   6.9200000000000012E-002    -1.7018939146851153E-008
   7.0300000000000029E-002    -1.9973313669652271E-008
   7.1400000000000019E-002    -1.7476862623766465E-008
   7.2500000000000009E-002    -7.1871726348149423E-009
   7.3600000000000027E-002     1.2439098640015800E-008
   7.4700000000000016E-002     4.1763872360434107E-008
   7.5800000000000006E-002     7.9998770274869457E-008
   7.6900000000000024E-002     1.2574390950703673E-007
   7.8000000000000014E-002     1.7792872597510723E-007
   7.9100000000000004E-002     2.3687076122769213E-007
   8.0200000000000021E-002     3.0509238513332093E-007
   8.1300000000000011E-002     3.8760427401030029E-007
   8.2400000000000029E-002     4.9155602255268604E-007
   8.3500000000000019E-002     6.2540073031414067E-007
   8.4600000000000009E-002     7.9792511087362072E-007
   8.5700000000000026E-002     1.0175799616263248E-006
   8.6800000000000016E-002     1.2924557495352929E-006
   8.7900000000000006E-002     1.6310189039359102E-006
   8.9000000000000024E-002     2.0434229099919321E-006
   9.0100000000000013E-002     2.5429942525079241E-006
   9.1200000000000003E-002     3.1474451134272385E-006
   9.2300000000000021E-002     3.8795433283667080E-006
   9.3400000000000011E-002     4.7672679102106486E-006
   9.4500000000000028E-002     5.8437426559976302E-006
   9.5600000000000018E-002     7.1473418756795581E-006
   9.6700000000000008E-002     8.7222224465222098E-006
   9.7800000000000026E-002     1.0619262866384815E-005
   9.8900000000000016E-002     1.2897182386950590E-005
  0.10000000000000001          1.5623587387381122E-005
  0.10110000000000002          1.8875856767408550E-005
  0.10220000000000001          2.2742069631931372E-005
  0.10330000000000003          2.7322304958943278E-005
  0.10440000000000002          3.2730538805481046E-005
  0.10550000000000001          3.9097038097679615E-005
  0.10660000000000003          4.6570828999392688E-005
  0.10770000000000002          5.5321710533462465E-005
  0.10880000000000001          6.5541462390683591E-005
  0.10990000000000003          7.7444303315132856E-005
  0.11100000000000002          9.1267153038643301E-005
  0.11210000000000001          1.0727040353231132E-004
  0.11320000000000002          1.2573935964610428E-004
  0.11430000000000001          1.4698639279231429E-004
  0.11540000000000003          1.7135303642135113E-004
  0.11650000000000002          1.9921125203836709E-004
  0.11760000000000001          2.3096361837815493E-004
  0.11870000000000003          2.6704234187491238E-004
  0.11980000000000002          3.0790743767283857E-004
  0.12090000000000001          3.5404515801928937E-004
  0.12200000000000003          4.0596618782728910E-004
  0.12310000000000001          4.6420333092100918E-004
  0.12420000000000003          5.2930862875655293E-004
  0.12530000000000002          6.0184864560142159E-004
  0.12640000000000001          6.8239885149523616E-004
  0.12750000000000003          7.7153608435764909E-004
  0.12860000000000002          8.6983141954988241E-004
  0.12970000000000001          9.7784143872559071E-004
  0.13080000000000003          1.0960994986817241E-003
  0.13190000000000002          1.2251042062416673E-003
  0.13300000000000001          1.3653080677613616E-003
  0.13410000000000000          1.5171025879681110E-003
  0.13520000000000004          1.6808034852147102E-003
  0.13630000000000003          1.8566357903182507E-003
  0.13740000000000002          2.0447187125682831E-003
  0.13850000000000001          2.2450513206422329E-003
  0.13960000000000000          2.4574983399361372E-003
  0.14070000000000005          2.6817750185728073E-003
  0.14180000000000004          2.9174329247325659E-003
  0.14290000000000003          3.1638448126614094E-003
  0.14400000000000002          3.4201904200017452E-003
  0.14510000000000001          3.6854459904134274E-003
  0.14620000000000000          3.9583737961947918E-003
  0.14730000000000004          4.2375163175165653E-003
  0.14840000000000003          4.5211906544864178E-003
  0.14950000000000002          4.8074917867779732E-003
  0.15060000000000001          5.0942897796630859E-003
  0.15170000000000000          5.3792400285601616E-003
  0.15280000000000005          5.6597953662276268E-003
  0.15390000000000004          5.9332186356186867E-003
  0.15500000000000003          6.1966050416231155E-003
  0.15610000000000002          6.4469045028090477E-003
  0.15720000000000001          6.6809495911002159E-003
  0.15830000000000000          6.8954876624047756E-003
  0.15940000000000004          7.0872176438570023E-003
  0.16050000000000003          7.2528286837041378E-003
  0.16160000000000002          7.3890471830964088E-003
  0.16270000000000001          7.4926880188286304E-003
  0.16380000000000000          7.5606987811625004E-003
  0.16490000000000005          7.5902170501649380E-003
  0.16600000000000004          7.5786137022078037E-003
  0.16710000000000003          7.5235441327095032E-003
  0.16820000000000002          7.4229966849088669E-003
  0.16930000000000001          7.2753373533487320E-003
  0.17040000000000000          7.0793572813272476E-003
  0.17150000000000004          6.8343086168169975E-003
  0.17260000000000003          6.5399417653679848E-003
  0.17370000000000002          6.1965337954461575E-003
  0.17480000000000001          5.8049075305461884E-003
  0.17590000000000000          5.3664445877075195E-003
  0.17700000000000005          4.8830877058207989E-003
  0.17810000000000004          4.3573370203375816E-003
  0.17920000000000003          3.7922379560768604E-003
  0.18030000000000002          3.1913600396364927E-003
  0.18140000000000001          2.5587654672563076E-003
  0.18250000000000000          1.8989724339917302E-003
  0.18360000000000004          1.2169050751253963E-003
  0.18470000000000003          5.1783764502033591E-004
  0.18580000000000002         -1.9266792514827102E-004
  0.18690000000000001         -9.0883043594658375E-004
  0.18800000000000000         -1.6247216844931245E-003
  0.18910000000000005         -2.3343414068222046E-003
  0.19020000000000004         -3.0316957272589207E-003
  0.19130000000000003         -3.7108759861439466E-003
  0.19240000000000002         -4.3661361560225487E-003
  0.19350000000000001         -4.9919709563255310E-003
  0.19460000000000005         -5.5831908248364925E-003
  0.19570000000000004         -6.1349868774414062E-003
  0.19680000000000003         -6.6429963335394859E-003
  0.19790000000000002         -7.1033518761396408E-003
  0.19900000000000001         -7.5127324089407921E-003
  0.20010000000000000         -7.8683998435735703E-003
  0.20120000000000005         -8.1682251766324043E-003
  0.20230000000000004         -8.4107145667076111E-003
  0.20340000000000003         -8.5950130596756935E-003
  0.20450000000000002         -8.7209064513444901E-003
  0.20560000000000000         -8.7888101115822792E-003
  0.20670000000000005         -8.7997457012534142E-003
  0.20780000000000004         -8.7553160265088081E-003
  0.20890000000000003         -8.6576631292700768E-003
