 -0.12000000000000000          0.0000000000000000
 -0.11889999999999999          0.0000000000000000
 -0.11780000000000000          0.0000000000000000
 -0.11670000000000000          2.6836141642228029E-010
 -0.11559999999999999          9.1323637541051994E-010
 -0.11449999999999999          8.8428320221822787E-010
 -0.11340000000000000         -1.6768991750737428E-009
 -0.11230000000000000         -6.8369390149314313E-009
 -0.11119999999999999         -1.0786713744437293E-008
 -0.11009999999999999         -8.2626083752757040E-009
 -0.10900000000000000          1.2398631010768213E-009
 -0.10790000000000000          1.0354934687484274E-008
 -0.10679999999999999          9.7012939903606821E-009
 -0.10569999999999999         -1.2921734793280848E-009
 -0.10460000000000000         -1.0922636128896102E-008
 -0.10349999999999999         -6.3363363445034793E-009
 -0.10239999999999999          9.8929131553404659E-009
 -0.10130000000000000          1.6810819403190180E-008
 -0.10020000000000000         -6.1675660134596910E-009
  -9.9099999999999994E-002    -5.4770691093608548E-008
  -9.7999999999999990E-002    -9.6635439206238516E-008
  -9.6899999999999986E-002    -9.7999397041803604E-008
  -9.5799999999999996E-002    -5.6697807337968698E-008
  -9.4699999999999993E-002    -6.5858505315929960E-009
  -9.3599999999999989E-002     1.4891481825429764E-008
  -9.2499999999999999E-002     4.2140193556861050E-009
  -9.1399999999999995E-002    -6.9242620526210885E-009
  -9.0299999999999991E-002     8.4956432999661047E-009
  -8.9200000000000002E-002     3.3730056969716316E-008
  -8.8099999999999984E-002     1.6916455791715634E-008
  -8.6999999999999994E-002    -7.4245306791453913E-008
  -8.5899999999999990E-002    -2.0728271010739263E-007
  -8.4799999999999986E-002    -3.0275688800429634E-007
  -8.3699999999999997E-002    -3.0540314810423297E-007
  -8.2599999999999993E-002    -2.3788605574281974E-007
  -8.1499999999999989E-002    -1.7671956697995483E-007
  -8.0399999999999999E-002    -1.6881472220120486E-007
  -7.9299999999999995E-002    -1.7465080759393459E-007
  -7.8199999999999992E-002    -1.0367381264586584E-007
  -7.7100000000000002E-002     8.7882092714153259E-008
  -7.5999999999999984E-002     3.3927014442269865E-007
  -7.4899999999999994E-002     5.3726745363746886E-007
  -7.3799999999999991E-002     6.3451250298385276E-007
  -7.2699999999999987E-002     7.1358192599291215E-007
  -7.1599999999999997E-002     9.2308721377776237E-007
  -7.0499999999999993E-002     1.3432330661089509E-006
  -6.9399999999999989E-002     1.9185736164217815E-006
  -6.8300000000000000E-002     2.5338197247037897E-006
  -6.7199999999999996E-002     3.1602562557964120E-006
  -6.6099999999999992E-002     3.9195233512145933E-006
  -6.5000000000000002E-002     4.9905952437256929E-006
  -6.3899999999999985E-002     6.4507880779274274E-006
  -6.2799999999999995E-002     8.2202423072885722E-006
  -6.1699999999999991E-002     1.0180265235248953E-005
  -6.0599999999999994E-002     1.2353528290987015E-005
  -5.9499999999999990E-002     1.4958995961933397E-005
  -5.8399999999999994E-002     1.8274824469699524E-005
  -5.7299999999999990E-002     2.2442623958340846E-005
  -5.6199999999999986E-002     2.7417565434006974E-005
  -5.5099999999999996E-002     3.3127242204500362E-005
  -5.3999999999999992E-002     3.9685630326857790E-005
  -5.2899999999999989E-002     4.7441972128581256E-005
  -5.1799999999999985E-002     5.6805958593031392E-005
  -5.0699999999999995E-002     6.8021472543478012E-005
  -4.9599999999999991E-002     8.1121652328874916E-005
  -4.8499999999999988E-002     9.6118092187680304E-005
  -4.7399999999999998E-002     1.1323609942337498E-004
  -4.6299999999999994E-002     1.3295508688315749E-004
  -4.5199999999999990E-002     1.5581004845444113E-004
  -4.4099999999999986E-002     1.8215671298094094E-004
  -4.2999999999999997E-002     2.1214337903074920E-004
  -4.1899999999999993E-002     2.4591962574049830E-004
  -4.0799999999999989E-002     2.8386365738697350E-004
  -3.9699999999999985E-002     3.2658409327268600E-004
  -3.8599999999999995E-002     3.7468134541995823E-004
  -3.7499999999999992E-002     4.2850314639508724E-004
  -3.6399999999999988E-002     4.8813715693540871E-004
  -3.5299999999999984E-002     5.5364036234095693E-004
  -3.4199999999999994E-002     6.2525825342163444E-004
  -3.3099999999999991E-002     7.0339511148631573E-004
  -3.1999999999999987E-002     7.8835018211975694E-004
  -3.0899999999999997E-002     8.8007212616503239E-004
  -2.9799999999999993E-002     9.7816158086061478E-004
  -2.8699999999999989E-002     1.0820885654538870E-003
  -2.7599999999999986E-002     1.1913665803149343E-003
  -2.6499999999999996E-002     1.3054723385721445E-003
  -2.5399999999999992E-002     1.4235641574487090E-003
  -2.4299999999999988E-002     1.5442612348124385E-003
  -2.3199999999999985E-002     1.6656751977279782E-003
  -2.2099999999999995E-002     1.7856149934232235E-003
  -2.0999999999999991E-002     1.9017097074538469E-003
  -1.9899999999999987E-002     2.0112800411880016E-003
  -1.8799999999999983E-002     2.1110649686306715E-003
  -1.7699999999999994E-002     2.1970602683722973E-003
  -1.6599999999999990E-002     2.2646137513220310E-003
  -1.5499999999999986E-002     2.3086438886821270E-003
  -1.4399999999999996E-002     2.3237282875925303E-003
  -1.3299999999999992E-002     2.3039560765028000E-003
  -1.2199999999999989E-002     2.2426953073590994E-003
  -1.1099999999999985E-002     2.1325354464352131E-003
  -9.9999999999999950E-003     1.9654827192425728E-003
  -8.8999999999999913E-003     1.7332283314317465E-003
  -7.7999999999999875E-003     1.4272500993683934E-003
  -6.6999999999999837E-003     1.0387022048234940E-003
  -5.5999999999999939E-003     5.5829755729064345E-004
  -4.4999999999999901E-003    -2.3577125830342993E-005
  -3.3999999999999864E-003    -7.1650574682280421E-004
  -2.2999999999999826E-003    -1.5296785859391093E-003
  -1.1999999999999927E-003    -2.4717480409890413E-003
  -9.9999999999988987E-005    -3.5508836153894663E-003
   1.0000000000000148E-003    -4.7747720964252949E-003
   2.1000000000000185E-003    -6.1503457836806774E-003
   3.2000000000000084E-003    -7.6832990162074566E-003
   4.3000000000000121E-003    -9.3776555731892586E-003
   5.4000000000000159E-003    -1.1235606856644154E-002
   6.5000000000000058E-003    -1.3257543556392193E-002
   7.6000000000000234E-003    -1.5441999770700932E-002
   8.7000000000000133E-003    -1.7785336822271347E-002
   9.8000000000000032E-003    -2.0281257107853889E-002
   1.0900000000000021E-002    -2.2920453920960426E-002
   1.2000000000000011E-002    -2.5690579786896706E-002
   1.3100000000000001E-002    -2.8576390817761421E-002
   1.4200000000000018E-002    -3.1559824943542480E-002
   1.5300000000000008E-002    -3.4619834274053574E-002
   1.6400000000000026E-002    -3.7732154130935669E-002
   1.7500000000000016E-002    -4.0869262069463730E-002
   1.8600000000000005E-002    -4.4000674039125443E-002
   1.9700000000000023E-002    -4.7093395143747330E-002
   2.0800000000000013E-002    -5.0112251192331314E-002
   2.1900000000000003E-002    -5.3020086139440536E-002
   2.3000000000000020E-002    -5.5777896195650101E-002
   2.4100000000000010E-002    -5.8345228433609009E-002
   2.5200000000000000E-002    -6.0680840164422989E-002
   2.6300000000000018E-002    -6.2743462622165680E-002
   2.7400000000000008E-002    -6.4492419362068176E-002
   2.8500000000000025E-002    -6.5888054668903351E-002
   2.9600000000000015E-002    -6.6892273724079132E-002
   3.0700000000000005E-002    -6.7469201982021332E-002
   3.1800000000000023E-002    -6.7586071789264679E-002
   3.2900000000000013E-002    -6.7213989794254303E-002
   3.4000000000000002E-002    -6.6328488290309906E-002
   3.5100000000000020E-002    -6.4909875392913818E-002
   3.6200000000000010E-002    -6.2943756580352783E-002
   3.7300000000000028E-002    -6.0421548783779144E-002
   3.8400000000000017E-002    -5.7341113686561584E-002
   3.9500000000000007E-002    -5.3707130253314972E-002
   4.0600000000000025E-002    -4.9531120806932449E-002
   4.1700000000000015E-002    -4.4831335544586182E-002
   4.2800000000000005E-002    -3.9632726460695267E-002
   4.3900000000000022E-002    -3.3967014402151108E-002
   4.5000000000000012E-002    -2.7872685343027115E-002
   4.6100000000000002E-002    -2.1394645795226097E-002
   4.7200000000000020E-002    -1.4583525247871876E-002
   4.8300000000000010E-002    -7.4948361143469810E-003
   4.9400000000000027E-002    -1.8832436762750149E-004
   5.0500000000000017E-002     7.2725252248346806E-003
   5.1600000000000007E-002     1.4821074903011322E-002
   5.2700000000000025E-002     2.2388461977243423E-002
   5.3800000000000014E-002     2.9904834926128387E-002
   5.4900000000000004E-002     3.7300553172826767E-002
   5.6000000000000022E-002     4.4507108628749847E-002
   5.7100000000000012E-002     5.1457788795232773E-002
   5.8200000000000002E-002     5.8088362216949463E-002
   5.9300000000000019E-002     6.4338050782680511E-002
   6.0400000000000009E-002     7.0150665938854218E-002
   6.1500000000000027E-002     7.5475640594959259E-002
   6.2600000000000017E-002     8.0268517136573792E-002
   6.3700000000000007E-002     8.4491230547428131E-002
   6.4800000000000024E-002     8.8112369179725647E-002
   6.5900000000000014E-002     9.1107629239559174E-002
   6.7000000000000004E-002     9.3460395932197571E-002
   6.8100000000000022E-002     9.5161937177181244E-002
   6.9200000000000012E-002     9.6211232244968414E-002
   7.0300000000000029E-002     9.6614487469196320E-002
   7.1400000000000019E-002     9.6384756267070770E-002
   7.2500000000000009E-002     9.5541723072528839E-002
   7.3600000000000027E-002     9.4111599028110504E-002
   7.4700000000000016E-002     9.2126585543155670E-002
   7.5800000000000006E-002     8.9624024927616119E-002
   7.6900000000000024E-002     8.6645431816577911E-002
   7.8000000000000014E-002     8.3235673606395721E-002
   7.9100000000000004E-002     7.9442530870437622E-002
   8.0200000000000021E-002     7.5316183269023895E-002
   8.1300000000000011E-002     7.0908427238464355E-002
   8.2400000000000029E-002     6.6271640360355377E-002
   8.3500000000000019E-002     6.1457730829715729E-002
   8.4600000000000009E-002     5.6517530232667923E-002
   8.5700000000000026E-002     5.1500491797924042E-002
   8.6800000000000016E-002     4.6454366296529770E-002
   8.7900000000000006E-002     4.1424572467803955E-002
   8.9000000000000024E-002     3.6453392356634140E-002
   9.0100000000000013E-002     3.1579382717609406E-002
   9.1200000000000003E-002     2.6837220415472984E-002
   9.2300000000000021E-002     2.2257886826992035E-002
   9.3400000000000011E-002     1.7868736758828163E-002
   9.4500000000000028E-002     1.3693252578377724E-002
   9.5600000000000018E-002     9.7506446763873100E-003
   9.6700000000000008E-002     6.0557429678738117E-003
   9.7800000000000026E-002     2.6193482335656881E-003
   9.8900000000000016E-002    -5.5119284661486745E-004
  0.10000000000000001         -3.4516293089836836E-003
  0.10110000000000002         -6.0808262787759304E-003
  0.10220000000000001         -8.4408922120928764E-003
  0.10330000000000003         -1.0536983609199524E-002
  0.10440000000000002         -1.2376694940030575E-002
  0.10550000000000001         -1.3969339430332184E-002
  0.10660000000000003         -1.5325559303164482E-002
  0.10770000000000002         -1.6457356512546539E-002
  0.10880000000000001         -1.7378183081746101E-002
  0.10990000000000003         -1.8102692440152168E-002
  0.11100000000000002         -1.8646093085408211E-002
  0.11210000000000001         -1.9023522734642029E-002
  0.11320000000000002         -1.9249828532338142E-002
  0.11430000000000001         -1.9339784979820251E-002
  0.11540000000000003         -1.9308265298604965E-002
  0.11650000000000002         -1.9170038402080536E-002
  0.11760000000000001         -1.8939215689897537E-002
  0.11870000000000003         -1.8628792837262154E-002
  0.11980000000000002         -1.8250670284032822E-002
  0.12090000000000001         -1.7816038802266121E-002
  0.12200000000000003         -1.7335666343569756E-002
  0.12310000000000001         -1.6819728538393974E-002
  0.12420000000000003         -1.6277357935905457E-002
  0.12530000000000002         -1.5716329216957092E-002
  0.12640000000000001         -1.5143266879022121E-002
  0.12750000000000003         -1.4564116485416889E-002
  0.12860000000000002         -1.3984453864395618E-002
  0.12970000000000001         -1.3409319333732128E-002
  0.13080000000000003         -1.2842814438045025E-002
  0.13190000000000002         -1.2287929654121399E-002
  0.13300000000000001         -1.1746841482818127E-002
  0.13410000000000000         -1.1221422813832760E-002
  0.13520000000000004         -1.0713488794863224E-002
  0.13630000000000003         -1.0224573314189911E-002
  0.13740000000000002         -9.7555471584200859E-003
  0.13850000000000001         -9.3065397813916206E-003
  0.13960000000000000         -8.8772950693964958E-003
  0.14070000000000005         -8.4676342085003853E-003
  0.14180000000000004         -8.0775804817676544E-003
  0.14290000000000003         -7.7070542611181736E-003
  0.14400000000000002         -7.3555167764425278E-003
  0.14510000000000001         -7.0219780318439007E-003
  0.14620000000000000         -6.7054061219096184E-003
  0.14730000000000004         -6.4051211811602116E-003
  0.14840000000000003         -6.1207781545817852E-003
  0.14950000000000002         -5.8519705198705196E-003
  0.15060000000000001         -5.5978936143219471E-003
  0.15170000000000000         -5.3574456833302975E-003
  0.15280000000000005         -5.1296739839017391E-003
  0.15390000000000004         -4.9141007475554943E-003
  0.15500000000000003         -4.7105704434216022E-003
  0.15610000000000002         -4.5187752693891525E-003
  0.15720000000000001         -4.3379501439630985E-003
  0.15830000000000000         -4.1670734062790871E-003
  0.15940000000000004         -4.0053687989711761E-003
  0.16050000000000003         -3.8525843992829323E-003
  0.16160000000000002         -3.7087467499077320E-003
  0.16270000000000001         -3.5736362915486097E-003
  0.16380000000000000         -3.4465291537344456E-003
  0.16490000000000005         -3.3264758531004190E-003
  0.16600000000000004         -3.2128356397151947E-003
  0.16710000000000003         -3.1055097933858633E-003
  0.16820000000000002         -3.0046296305954456E-003
  0.16930000000000001         -2.9100156389176846E-003
  0.17040000000000000         -2.8209683950990438E-003
  0.17150000000000004         -2.7366045396775007E-003
  0.17260000000000003         -2.6563920546323061E-003
  0.17370000000000002         -2.5803365278989077E-003
  0.17480000000000001         -2.5086314417421818E-003
  0.17590000000000000         -2.4411419872194529E-003
  0.17700000000000005         -2.3772558197379112E-003
  0.17810000000000004         -2.3162483703345060E-003
  0.17920000000000003         -2.2577780764549971E-003
  0.18030000000000002         -2.2019946482032537E-003
  0.18140000000000001         -2.1491597872227430E-003
  0.18250000000000000         -2.0991745404899120E-003
  0.18360000000000004         -2.0515052601695061E-003
  0.18470000000000003         -2.0055677741765976E-003
  0.18580000000000002         -1.9611560273915529E-003
  0.18690000000000001         -1.9184671109542251E-003
  0.18800000000000000         -1.8777048680931330E-003
  0.18910000000000005         -1.8386889714747667E-003
  0.19020000000000004         -1.8008793704211712E-003
  0.19130000000000003         -1.7637849086895585E-003
  0.19240000000000002         -1.7273200210183859E-003
  0.19350000000000001         -1.6917339526116848E-003
  0.19460000000000005         -1.6571931773796678E-003
  0.19570000000000004         -1.6234656795859337E-003
  0.19680000000000003         -1.5900383004918694E-003
  0.19790000000000002         -1.5565411886200309E-003
  0.19900000000000001         -1.5230267308652401E-003
  0.20010000000000000         -1.4898095978423953E-003
  0.20120000000000005         -1.4570403145626187E-003
  0.20230000000000004         -1.4244710328057408E-003
  0.20340000000000003         -1.3916649622842669E-003
  0.20450000000000002         -1.3584363041445613E-003
  0.20560000000000000         -1.3250580523163080E-003
  0.20670000000000005         -1.2920161243528128E-003
  0.20780000000000004         -1.2595650041475892E-003
  0.20890000000000003         -1.2275457847863436E-003
