 -0.12000000000000000          0.0000000000000000
 -0.11889999999999999          0.0000000000000000
 -0.11780000000000000          0.0000000000000000
 -0.11670000000000000          0.0000000000000000
 -0.11559999999999999          0.0000000000000000
 -0.11449999999999999          0.0000000000000000
 -0.11340000000000000          0.0000000000000000
 -0.11230000000000000          1.9851718193222371E-019
 -0.11119999999999999         -2.6800664771415168E-020
 -0.11009999999999999         -6.7430262202511032E-018
 -0.10900000000000000         -2.6058794914349914E-017
 -0.10790000000000000         -1.4966443520717947E-017
 -0.10679999999999999          1.6841295362928177E-016
 -0.10569999999999999          5.6684567148912891E-016
 -0.10460000000000000          5.0101051211982124E-016
 -0.10349999999999999         -1.6920245451057178E-015
 -0.10239999999999999         -6.5785034077071522E-015
 -0.10130000000000000         -8.7684190014066313E-015
 -0.10020000000000000          4.8206343329301477E-015
  -9.9099999999999994E-002     4.2386982189142677E-014
  -9.7999999999999990E-002     7.9162377878989193E-014
  -9.6899999999999986E-002     4.3023544389663229E-014
  -9.5799999999999996E-002    -1.3500057191931369E-013
  -9.4699999999999993E-002    -3.9531634801574789E-013
  -9.3599999999999989E-002    -4.5676515954967689E-013
  -9.2499999999999999E-002     4.8225610787752671E-014
  -9.1399999999999995E-002     1.1372337533482879E-012
  -9.0299999999999991E-002     2.0445197184554287E-012
  -8.9200000000000002E-002     1.4175652839065744E-012
  -8.8099999999999984E-002    -1.4972915485592098E-012
  -8.6999999999999994E-002    -5.3474308314704899E-012
  -8.5899999999999990E-002    -6.5302450946713719E-012
  -8.4799999999999986E-002    -1.7096144378642153E-012
  -8.3699999999999997E-002     8.0995973816833100E-012
  -8.2599999999999993E-002     1.5730066554864308E-011
  -8.1499999999999989E-002     1.2043067064426705E-011
  -8.0399999999999999E-002    -5.0440654257577489E-012
  -7.9299999999999995E-002    -2.4333481410399038E-011
  -7.8199999999999992E-002    -2.6789369333979351E-011
  -7.7100000000000002E-002    -2.8186992670486966E-012
  -7.5999999999999984E-002     3.2212878198212280E-011
  -7.4899999999999994E-002     4.3061401666655286E-011
  -7.3799999999999991E-002     5.0867608736293590E-012
  -7.2699999999999987E-002    -6.1833781150877343E-011
  -7.1599999999999997E-002    -9.2813583207895789E-011
  -7.0499999999999993E-002    -2.7960560949891189E-011
  -6.9399999999999989E-002     1.1823823864443028E-010
  -6.8300000000000000E-002     2.3475571486741842E-010
  -6.7199999999999996E-002     1.8388995881579717E-010
  -6.6099999999999992E-002    -7.0954873920836548E-011
  -6.5000000000000002E-002    -3.8734754292946150E-010
  -6.3899999999999985E-002    -5.1203796758159115E-010
  -6.2799999999999995E-002    -2.7728119800229933E-010
  -6.1699999999999991E-002     2.2523036213861758E-010
  -6.0599999999999994E-002     6.6402516818442336E-010
  -5.9499999999999990E-002     7.0841293942081052E-010
  -5.8399999999999994E-002     3.1041624826144698E-010
  -5.7299999999999990E-002    -2.2884300010517222E-010
  -5.6199999999999986E-002    -5.0539500362489775E-010
  -5.5099999999999996E-002    -3.8000652624603504E-010
  -5.3999999999999992E-002    -1.2248912995005412E-010
  -5.2899999999999989E-002    -1.5238199591038892E-010
  -5.1799999999999985E-002    -5.7404181408315935E-010
  -5.0699999999999995E-002    -9.5406271771736328E-010
  -4.9599999999999991E-002    -6.3127653104899650E-010
  -4.8499999999999988E-002     6.3395072524841112E-010
  -4.7399999999999998E-002     2.2472834704245770E-009
  -4.6299999999999994E-002     3.0626958746893251E-009
  -4.5199999999999990E-002     2.2313495495751567E-009
  -4.4099999999999986E-002    -6.2323646243811481E-011
  -4.2999999999999997E-002    -2.6350874815506131E-009
  -4.1899999999999993E-002    -4.1289940355682120E-009
  -4.0799999999999989E-002    -3.9414107533275455E-009
  -3.9699999999999985E-002    -2.4769808426583495E-009
  -3.8599999999999995E-002    -5.6951171556463009E-010
  -3.7499999999999992E-002     1.2964603834930699E-009
  -3.6399999999999988E-002     3.1704447955860360E-009
  -3.5299999999999984E-002     5.0756816527552928E-009
  -3.4199999999999994E-002     6.3765654978453767E-009
  -3.3099999999999991E-002     5.8958846693712985E-009
  -3.1999999999999987E-002     2.8639293159216095E-009
  -3.0899999999999997E-002    -2.1401047600733136E-009
  -2.9799999999999993E-002    -7.2312333898594261E-009
  -2.8699999999999989E-002    -1.0349278767307624E-008
  -2.7599999999999986E-002    -1.0516905568636048E-008
  -2.6499999999999996E-002    -8.1096178661255180E-009
  -2.5399999999999992E-002    -4.0051695293641387E-009
  -2.4299999999999988E-002     1.3605051529808065E-009
  -2.3199999999999985E-002     7.9037230094058941E-009
  -2.2099999999999995E-002     1.4806206927175936E-008
  -2.0999999999999991E-002     1.9735072243065588E-008
  -1.9899999999999987E-002     1.9631313463719380E-008
  -1.8799999999999983E-002     1.2818166084116456E-008
  -1.7699999999999994E-002     6.3380589665484877E-010
  -1.6599999999999990E-002    -1.3113960584121287E-008
  -1.5499999999999986E-002    -2.4689928324050925E-008
  -1.4399999999999996E-002    -3.2843555430872584E-008
  -1.3299999999999992E-002    -3.8956965653369480E-008
  -1.2199999999999989E-002    -4.4925986486532565E-008
  -1.1099999999999985E-002    -5.1038956172533290E-008
  -9.9999999999999950E-003    -5.6192238417906992E-008
  -8.8999999999999913E-003    -6.0406797786072275E-008
  -7.7999999999999875E-003    -6.7062821074159729E-008
  -6.6999999999999837E-003    -8.2208437390818290E-008
  -5.5999999999999939E-003    -1.1102639518867363E-007
  -4.4999999999999901E-003    -1.5448614476554212E-007
  -3.3999999999999864E-003    -2.0935573274982744E-007
  -2.2999999999999826E-003    -2.7172484351467574E-007
  -1.1999999999999927E-003    -3.4084953881574620E-007
  -9.9999999999988987E-005    -4.1982681864283222E-007
   1.0000000000000148E-003    -5.1277476131872390E-007
   2.1000000000000185E-003    -6.2174348158805515E-007
   3.2000000000000084E-003    -7.4688381346277311E-007
   4.3000000000000121E-003    -8.9002566028284491E-007
   5.4000000000000159E-003    -1.0581343303783797E-006
   6.5000000000000058E-003    -1.2629519687834545E-006
   7.6000000000000234E-003    -1.5168373010965297E-006
   8.7000000000000133E-003    -1.8286982594872825E-006
   9.8000000000000032E-003    -2.2039187115296954E-006
   1.0900000000000021E-002    -2.6481832264835248E-006
   1.2000000000000011E-002    -3.1711076644569403E-006
   1.3100000000000001E-002    -3.7858685573155526E-006
   1.4200000000000018E-002    -4.5053889152768534E-006
   1.5300000000000008E-002    -5.3395829127111938E-006
   1.6400000000000026E-002    -6.2973699641588610E-006
   1.7500000000000016E-002    -7.3921551120292861E-006
   1.8600000000000005E-002    -8.6453901531058364E-006
   1.9700000000000023E-002    -1.0084291716339067E-005
   2.0800000000000013E-002    -1.1735452972061466E-005
   2.1900000000000003E-002    -1.3620499885291792E-005
   2.3000000000000020E-002    -1.5757983419462107E-005
   2.4100000000000010E-002    -1.8169159375247546E-005
   2.5200000000000000E-002    -2.0880966985714622E-005
   2.6300000000000018E-002    -2.3921957108541392E-005
   2.7400000000000008E-002    -2.7314474209561013E-005
   2.8500000000000025E-002    -3.1070889235707000E-005
   2.9600000000000015E-002    -3.5198314435547218E-005
   3.0700000000000005E-002    -3.9707545511191711E-005
   3.1800000000000023E-002    -4.4616866944124922E-005
   3.2900000000000013E-002    -4.9945232603931800E-005
   3.4000000000000002E-002    -5.5699394579278305E-005
   3.5100000000000020E-002    -6.1865488532930613E-005
   3.6200000000000010E-002    -6.8411354732234031E-005
   3.7300000000000028E-002    -7.5295189162716269E-005
   3.8400000000000017E-002    -8.2469559856690466E-005
   3.9500000000000007E-002    -8.9874643890652806E-005
   4.0600000000000025E-002    -9.7425283456686884E-005
   4.1700000000000015E-002    -1.0500368807697669E-004
   4.2800000000000005E-002    -1.1246366921113804E-004
   4.3900000000000022E-002    -1.1964078294113278E-004
   4.5000000000000012E-002    -1.2635611346922815E-004
   4.6100000000000002E-002    -1.3240723637863994E-004
   4.7200000000000020E-002    -1.3755285181105137E-004
   4.8300000000000010E-002    -1.4150442439131439E-004
   4.9400000000000027E-002    -1.4393072342500091E-004
   5.0500000000000017E-002    -1.4446832938119769E-004
   5.1600000000000007E-002    -1.4272567932493985E-004
   5.2700000000000025E-002    -1.3827452494297177E-004
   5.3800000000000014E-002    -1.3063772348687053E-004
   5.4900000000000004E-002    -1.1928836465813220E-004
   5.6000000000000022E-002    -1.0366379865445197E-004
   5.7100000000000012E-002    -8.3185143012087792E-005
   5.8200000000000002E-002    -5.7265297073172405E-005
   5.9300000000000019E-002    -2.5301000277977437E-005
   6.0400000000000009E-002     1.3338177268451545E-005
   6.1500000000000027E-002     5.9308200434315950E-005
   6.2600000000000017E-002     1.1327068932587281E-004
   6.3700000000000007E-002     1.7586827743798494E-004
   6.4800000000000024E-002     2.4771169410087168E-004
   6.5900000000000014E-002     3.2938364893198013E-004
   6.7000000000000004E-002     4.2144214967265725E-004
   6.8100000000000022E-002     5.2440731087699533E-004
   6.9200000000000012E-002     6.3872890314087272E-004
   7.0300000000000029E-002     7.6475233072414994E-004
   7.1400000000000019E-002     9.0270419605076313E-004
   7.2500000000000009E-002     1.0527003323659301E-003
   7.3600000000000027E-002     1.2147552333772182E-003
   7.4700000000000016E-002     1.3887716922909021E-003
   7.5800000000000006E-002     1.5745073324069381E-003
   7.6900000000000024E-002     1.7715381691232324E-003
   7.8000000000000014E-002     1.9792478997260332E-003
   7.9100000000000004E-002     2.1968418732285500E-003
   8.0200000000000021E-002     2.4233630392700434E-003
   8.1300000000000011E-002     2.6576893869787455E-003
   8.2400000000000029E-002     2.8985047247260809E-003
   8.3500000000000019E-002     3.1442714389413595E-003
   8.4600000000000009E-002     3.3932346850633621E-003
   8.5700000000000026E-002     3.6434517242014408E-003
   8.6800000000000016E-002     3.8928263820707798E-003
   8.7900000000000006E-002     4.1391132399439812E-003
   8.9000000000000024E-002     4.3798959814012051E-003
   9.0100000000000013E-002     4.6125734224915504E-003
   9.1200000000000003E-002     4.8343767412006855E-003
   9.2300000000000021E-002     5.0424197688698769E-003
   9.3400000000000011E-002     5.2337483502924442E-003
   9.4500000000000028E-002     5.4053529165685177E-003
   9.5600000000000018E-002     5.5541438050568104E-003
   9.6700000000000008E-002     5.6769405491650105E-003
   9.7800000000000026E-002     5.7704946957528591E-003
   9.8900000000000016E-002     5.8315456844866276E-003
  0.10000000000000001          5.8568748645484447E-003
  0.10110000000000002          5.8433162048459053E-003
  0.10220000000000001          5.7877297513186932E-003
  0.10330000000000003          5.6869816035032272E-003
  0.10440000000000002          5.5379690602421761E-003
  0.10550000000000001          5.3376760333776474E-003
  0.10660000000000003          5.0832186825573444E-003
  0.10770000000000002          4.7718472778797150E-003
  0.10880000000000001          4.4009122066199780E-003
  0.10990000000000003          3.9678416214883327E-003
  0.11100000000000002          3.4701677504926920E-003
  0.11210000000000001          2.9055885970592499E-003
  0.11320000000000002          2.2720198612660170E-003
  0.11430000000000001          1.5676000621169806E-003
  0.11540000000000003          7.9065712634474039E-004
  0.11650000000000002         -6.0306072555249557E-005
  0.11760000000000001         -9.8656909540295601E-004
  0.11870000000000003         -1.9891033880412579E-003
  0.11980000000000002         -3.0684904195368290E-003
  0.12090000000000001         -4.2248880490660667E-003
  0.12200000000000003         -5.4580369032919407E-003
  0.12310000000000001         -6.7672431468963623E-003
  0.12420000000000003         -8.1513067707419395E-003
  0.12530000000000002         -9.6084009855985641E-003
  0.12640000000000001         -1.1135966517031193E-002
  0.12750000000000003         -1.2730661779642105E-002
  0.12860000000000002         -1.4388339594006538E-002
  0.12970000000000001         -1.6104027628898621E-002
  0.13080000000000003         -1.7871834337711334E-002
  0.13190000000000002         -1.9684839993715286E-002
  0.13300000000000001         -2.1534988656640053E-002
  0.13410000000000000         -2.3413047194480896E-002
  0.13520000000000004         -2.5308633223176003E-002
  0.13630000000000003         -2.7210241183638573E-002
  0.13740000000000002         -2.9105244204401970E-002
  0.13850000000000001         -3.0979840084910393E-002
  0.13960000000000000         -3.2819036394357681E-002
  0.14070000000000005         -3.4606724977493286E-002
  0.14180000000000004         -3.6325823515653610E-002
  0.14290000000000003         -3.7958454340696335E-002
  0.14400000000000002         -3.9486061781644821E-002
  0.14510000000000001         -4.0889501571655273E-002
  0.14620000000000000         -4.2149212211370468E-002
  0.14730000000000004         -4.3245431035757065E-002
  0.14840000000000003         -4.4158518314361572E-002
  0.14950000000000002         -4.4869218021631241E-002
  0.15060000000000001         -4.5358952134847641E-002
  0.15170000000000000         -4.5610021799802780E-002
  0.15280000000000005         -4.5605909079313278E-002
  0.15390000000000004         -4.5331593602895737E-002
  0.15500000000000003         -4.4773917645215988E-002
  0.15610000000000002         -4.3921906501054764E-002
  0.15720000000000001         -4.2767032980918884E-002
  0.15830000000000000         -4.1303414851427078E-002
  0.15940000000000004         -3.9528030902147293E-002
  0.16050000000000003         -3.7440955638885498E-002
  0.16160000000000002         -3.5045590251684189E-002
  0.16270000000000001         -3.2348789274692535E-002
  0.16380000000000000         -2.9360905289649963E-002
  0.16490000000000005         -2.6095764711499214E-002
  0.16600000000000004         -2.2570617496967316E-002
  0.16710000000000003         -1.8806098029017448E-002
  0.16820000000000002         -1.4826128259301186E-002
  0.16930000000000001         -1.0657744482159615E-002
  0.17040000000000000         -6.3307913951575756E-003
  0.17150000000000004         -1.8775648204609752E-003
  0.17260000000000003          2.6675669942051172E-003
  0.17370000000000002          7.2685210034251213E-003
  0.17480000000000001          1.1887870728969574E-002
  0.17590000000000000          1.6487302258610725E-002
  0.17700000000000005          2.1028131246566772E-002
  0.17810000000000004          2.5471875444054604E-002
  0.17920000000000003          2.9780775308609009E-002
  0.18030000000000002          3.3918261528015137E-002
  0.18140000000000001          3.7849374115467072E-002
  0.18250000000000000          4.1541218757629395E-002
  0.18360000000000004          4.4963441789150238E-002
  0.18470000000000003          4.8088654875755310E-002
  0.18580000000000002          5.0892818719148636E-002
  0.18690000000000001          5.3355515003204346E-002
  0.18800000000000000          5.5460136383771896E-002
  0.18910000000000005          5.7194042950868607E-002
  0.19020000000000004          5.8548714965581894E-002
  0.19130000000000003          5.9519838541746140E-002
  0.19240000000000002          6.0107320547103882E-002
  0.19350000000000001          6.0315165668725967E-002
  0.19460000000000005          6.0151286423206329E-002
  0.19570000000000004          5.9627320617437363E-002
  0.19680000000000003          5.8758385479450226E-002
  0.19790000000000002          5.7562809437513351E-002
  0.19900000000000001          5.6061822921037674E-002
  0.20010000000000000          5.4279152303934097E-002
  0.20120000000000005          5.2240572869777679E-002
  0.20230000000000004          4.9973521381616592E-002
  0.20340000000000003          4.7506690025329590E-002
  0.20450000000000002          4.4869624078273773E-002
  0.20560000000000000          4.2092319577932358E-002
  0.20670000000000005          3.9204776287078857E-002
  0.20780000000000004          3.6236569285392761E-002
  0.20890000000000003          3.3216509968042374E-002
