 -0.12000000000000000          0.0000000000000000
 -0.11889999999999999          0.0000000000000000
 -0.11780000000000000          0.0000000000000000
 -0.11670000000000000          0.0000000000000000
 -0.11559999999999999          0.0000000000000000
 -0.11449999999999999          0.0000000000000000
 -0.11340000000000000          0.0000000000000000
 -0.11230000000000000          0.0000000000000000
 -0.11119999999999999          0.0000000000000000
 -0.11009999999999999          0.0000000000000000
 -0.10900000000000000          0.0000000000000000
 -0.10790000000000000         -8.3745017638051782E-026
 -0.10679999999999999         -1.0335541195374440E-024
 -0.10569999999999999         -4.9372504528244410E-024
 -0.10460000000000000         -7.0741906313817559E-024
 -0.10349999999999999          3.7270986178284194E-023
 -0.10239999999999999          2.2996363189313801E-022
 -0.10130000000000000          5.1150947736171032E-022
 -0.10020000000000000         -4.9918613211406286E-024
  -9.9099999999999994E-002    -3.3330190631703303E-021
  -9.7999999999999990E-002    -9.8014197900928125E-021
  -9.6899999999999986E-002    -1.0485755842822022E-020
  -9.5799999999999996E-002     1.6676458749906277E-020
  -9.4699999999999993E-002     8.4972147811555375E-020
  -9.3599999999999989E-002     1.4185213049686181E-019
  -9.2499999999999999E-002     3.5444521226835311E-020
  -9.1399999999999995E-002    -3.6498848220534814E-019
  -9.0299999999999991E-002    -8.5655550216479908E-019
  -8.9200000000000002E-002    -7.1654923812954642E-019
  -8.8099999999999984E-002     7.4553959215405723E-019
  -8.6999999999999994E-002     2.8159217420678252E-018
  -8.5899999999999990E-002     2.6938848911657331E-018
  -8.4799999999999986E-002    -1.9948149099576213E-018
  -8.3699999999999997E-002    -7.6238317111450249E-018
  -8.2599999999999993E-002    -2.6145851537918057E-018
  -8.1499999999999989E-002     2.0979857976798796E-017
  -8.0399999999999999E-002     4.3935509638574403E-017
  -7.9299999999999995E-002     1.1734367626065000E-017
  -7.8199999999999992E-002    -1.1847967317437112E-016
  -7.7100000000000002E-002    -2.7854604355074782E-016
  -7.5999999999999984E-002    -2.3603128940612715E-016
  -7.4899999999999994E-002     2.5940079607197528E-016
  -7.3799999999999991E-002     1.1037897035116417E-015
  -7.2699999999999987E-002     1.5374021745953527E-015
  -7.1599999999999997E-002     4.4945923991697727E-016
  -7.0499999999999993E-002    -2.4731568467559759E-015
  -6.9399999999999989E-002    -5.4713652770758958E-015
  -6.8300000000000000E-002    -4.9291845697361017E-015
  -6.7199999999999996E-002     1.7838022590066158E-015
  -6.6099999999999992E-002     1.2163305031145238E-014
  -6.5000000000000002E-002     1.7294218967599424E-014
  -6.3899999999999985E-002     7.4294928458580774E-015
  -6.2799999999999995E-002    -1.7080089038533537E-014
  -6.1699999999999991E-002    -3.8859733708868430E-014
  -6.0599999999999994E-002    -3.1948683472003345E-014
  -5.9499999999999990E-002     1.3697537502572847E-014
  -5.8399999999999994E-002     6.9999690451624103E-014
  -5.7299999999999990E-002     7.8925832070007168E-014
  -5.6199999999999986E-002     1.3043392592133191E-015
  -5.5099999999999996E-002    -1.2530171941260021E-013
  -5.3999999999999992E-002    -1.8213660018129990E-013
  -5.2899999999999989E-002    -5.6856286985342702E-014
  -5.1799999999999985E-002     2.2207837782270423E-013
  -5.0699999999999995E-002     4.3101939660623867E-013
  -4.9599999999999991E-002     2.8644957499740498E-013
  -4.8499999999999988E-002    -2.7278694711072027E-013
  -4.7399999999999998E-002    -8.8854059743584402E-013
  -4.6299999999999994E-002    -9.3631515301478840E-013
  -4.5199999999999990E-002    -4.8773539460672533E-014
  -4.4099999999999986E-002     1.3620425317120710E-012
  -4.2999999999999997E-002     2.1404945958064525E-012
  -4.1899999999999993E-002     1.2136223016129266E-012
  -4.0799999999999989E-002    -1.2836488599496376E-012
  -3.9699999999999985E-002    -3.6101063544818901E-012
  -3.8599999999999995E-002    -3.4682231045413126E-012
  -3.7499999999999992E-002    -4.2125699629969038E-014
  -3.6399999999999988E-002     4.6298312406101161E-012
  -3.5299999999999984E-002     6.5770600771175580E-012
  -3.4199999999999994E-002     3.0535717183977074E-012
  -3.3099999999999991E-002    -4.3865167574652641E-012
  -3.1999999999999987E-002    -9.9526125188487136E-012
  -3.0899999999999997E-002    -7.8211135484673733E-012
  -2.9799999999999993E-002     2.2715761563429915E-012
  -2.8699999999999989E-002     1.3057960095153032E-011
  -2.7599999999999986E-002     1.4441016091271131E-011
  -2.6499999999999996E-002     2.3474668389700248E-012
  -2.5399999999999992E-002    -1.5585458271183406E-011
  -2.4299999999999988E-002    -2.3893670028640734E-011
  -2.3199999999999985E-002    -1.1755067405583297E-011
  -2.2099999999999995E-002     1.5449896570429722E-011
  -2.0999999999999991E-002     3.6690529087168855E-011
  -1.9899999999999987E-002     3.0625696423314253E-011
  -1.8799999999999983E-002    -4.8349154541105221E-012
  -1.7699999999999994E-002    -4.5847398794096605E-011
  -1.6599999999999990E-002    -5.7985408141725259E-011
  -1.5499999999999986E-002    -2.4520458580257198E-011
  -1.4399999999999996E-002     3.5261574909961624E-011
  -1.3299999999999992E-002     7.6160987239060063E-011
  -1.2199999999999989E-002     6.1833919928755421E-011
  -1.1099999999999985E-002    -2.4345872540187941E-012
  -9.9999999999999950E-003    -6.8386803164788290E-011
  -8.8999999999999913E-003    -8.0927577139622286E-011
  -7.7999999999999875E-003    -2.5230761924177614E-011
  -6.6999999999999837E-003     5.5349346633759566E-011
  -5.5999999999999939E-003     9.0353224901917883E-011
  -4.4999999999999901E-003     4.1213366053227674E-011
  -3.3999999999999864E-003    -6.0319638173211843E-011
  -2.2999999999999826E-003    -1.3062464998547796E-010
  -1.1999999999999927E-003    -1.0016629886644424E-010
  -9.9999999999988987E-005     2.4849736851573212E-011
   1.0000000000000148E-003     1.5847315126826800E-010
   2.1000000000000185E-003     1.9745943768967322E-010
   3.2000000000000084E-003     1.0317843107676694E-010
   4.3000000000000121E-003    -6.3704409802856077E-011
   5.4000000000000159E-003    -1.8682229374622494E-010
   6.5000000000000058E-003    -1.8348422781144791E-010
   7.6000000000000234E-003    -6.8520467078059255E-011
   8.7000000000000133E-003     5.9378633954221272E-011
   9.8000000000000032E-003     9.8277191939999398E-011
   1.0900000000000021E-002     2.5733297437380287E-011
   1.2000000000000011E-002    -8.2624275477005682E-011
   1.3100000000000001E-002    -1.1323318671596638E-010
   1.4200000000000018E-002    -6.1038049614658973E-012
   1.5300000000000008E-002     1.9242138438180234E-010
   1.6400000000000026E-002     3.5426023226037273E-010
   1.7500000000000016E-002     3.5261921160767429E-010
   1.8600000000000005E-002     1.4578006857224324E-010
   1.9700000000000023E-002    -1.9147883278947120E-010
   2.0800000000000013E-002    -5.0453768940528221E-010
   2.1900000000000003E-002    -6.3911753667156290E-010
   2.3000000000000020E-002    -5.2056753352403007E-010
   2.4100000000000010E-002    -1.9233882542213365E-010
   2.5200000000000000E-002     2.0555539215205698E-010
   2.6300000000000018E-002     5.0894322090044852E-010
   2.7400000000000008E-002     6.1554444874545311E-010
   2.8500000000000025E-002     5.3318471859853389E-010
   2.9600000000000015E-002     3.5477673576700397E-010
   3.0700000000000005E-002     1.7297367704838251E-010
   3.1800000000000023E-002    -3.3767780238669332E-013
   3.2900000000000013E-002    -2.3481602773323118E-010
   3.4000000000000002E-002    -5.8489579846110473E-010
   3.5100000000000020E-002    -9.6863961296378420E-010
   3.6200000000000010E-002    -1.1428208379626881E-009
   3.7300000000000028E-002    -8.3989148969010330E-010
   3.8400000000000017E-002     1.3779255514378974E-012
   3.9500000000000007E-002     1.0877602152348231E-009
   4.0600000000000025E-002     1.8585757377564960E-009
   4.1700000000000015E-002     1.7981399702549083E-009
   4.2800000000000005E-002     7.7922962526955075E-010
   4.3900000000000022E-002    -8.0885848019462969E-010
   4.5000000000000012E-002    -2.2526858156624030E-009
   4.6100000000000002E-002    -2.8963684783889221E-009
   4.7200000000000020E-002    -2.4380881757934958E-009
   4.8300000000000010E-002    -9.3728502736922792E-010
   4.9400000000000027E-002     1.4403294112952381E-009
   5.0500000000000017E-002     4.7092494348532909E-009
   5.1600000000000007E-002     9.1427585502401598E-009
   5.2700000000000025E-002     1.5094258287717821E-008
   5.3800000000000014E-002     2.2738888105777733E-008
   5.4900000000000004E-002     3.1987823945200944E-008
   5.6000000000000022E-002     4.2692494872653697E-008
   5.7100000000000012E-002     5.5026951883974107E-008
   5.8200000000000002E-002     6.9797799540083361E-008
   5.9300000000000019E-002     8.8483282922879880E-008
   6.0400000000000009E-002     1.1299179192292286E-007
   6.1500000000000027E-002     1.4530763792208745E-007
   6.2600000000000017E-002     1.8724269068570720E-007
   6.3700000000000007E-002     2.4042682866820542E-007
   6.4800000000000024E-002     3.0652708460365830E-007
   6.5900000000000014E-002     3.8757548281864729E-007
   6.7000000000000004E-002     4.8625355475451215E-007
   6.8100000000000022E-002     6.0603349538723705E-007
   6.9200000000000012E-002     7.5118134645890677E-007
   7.0300000000000029E-002     9.2674167717632372E-007
   7.1400000000000019E-002     1.1386708820282365E-006
   7.2500000000000009E-002     1.3942116083853762E-006
   7.3600000000000027E-002     1.7024100316120894E-006
   7.4700000000000016E-002     2.0745012534462148E-006
   7.5800000000000006E-002     2.5238953185180435E-006
   7.6900000000000024E-002     3.0657483875984326E-006
   7.8000000000000014E-002     3.7164570585446199E-006
   7.9100000000000004E-002     4.4935954974789638E-006
   8.0200000000000021E-002     5.4166048357728869E-006
   8.1300000000000011E-002     6.5080562308139633E-006
   8.2400000000000029E-002     7.7949180194991641E-006
   8.3500000000000019E-002     9.3092439783504233E-006
   8.4600000000000009E-002     1.1088172868767288E-005
   8.5700000000000026E-002     1.3173655133869033E-005
   8.6800000000000016E-002     1.5612533388775773E-005
   8.7900000000000006E-002     1.8457216356182471E-005
   8.9000000000000024E-002     2.1766663849120960E-005
   9.0100000000000013E-002     2.5607081624912098E-005
   9.1200000000000003E-002     3.0052013244130649E-005
   9.2300000000000021E-002     3.5182027204427868E-005
   9.3400000000000011E-002     4.1084629629040137E-005
   9.4500000000000028E-002     4.7854886361164972E-005
   9.5600000000000018E-002     5.5596621677977964E-005
   9.6700000000000008E-002     6.4423693402204663E-005
   9.7800000000000026E-002     7.4460695032030344E-005
   9.8900000000000016E-002     8.5842904809396714E-005
  0.10000000000000001          9.8715725471265614E-005
  0.10110000000000002          1.1323406943120062E-004
  0.10220000000000001          1.2956194404978305E-004
  0.10330000000000003          1.4787202235311270E-004
  0.10440000000000002          1.6834518464747816E-004
  0.10550000000000001          1.9116973271593451E-004
  0.10660000000000003          2.1654029842466116E-004
  0.10770000000000002          2.4465663591399789E-004
  0.10880000000000001          2.7572218095883727E-004
  0.10990000000000003          3.0994223197922111E-004
  0.11100000000000002          3.4752191277220845E-004
  0.11210000000000001          3.8866407703608274E-004
  0.11320000000000002          4.3356724199838936E-004
  0.11430000000000001          4.8242293996736407E-004
  0.11540000000000003          5.3541269153356552E-004
  0.11650000000000002          5.9270387282595038E-004
  0.11760000000000001          6.5444537904113531E-004
  0.11870000000000003          7.2076352080330253E-004
  0.11980000000000002          7.9175864811986685E-004
  0.12090000000000001          8.6750247282907367E-004
  0.12200000000000003          9.4803486717864871E-004
  0.12310000000000001          1.0333600221201777E-003
  0.12420000000000003          1.1234417324885726E-003
  0.12530000000000002          1.2181989150121808E-003
  0.12640000000000001          1.3175022322684526E-003
  0.12750000000000003          1.4211714733392000E-003
  0.12860000000000002          1.5289741568267345E-003
  0.12970000000000001          1.6406244831159711E-003
  0.13080000000000003          1.7557798419147730E-003
  0.13190000000000002          1.8740396481007338E-003
  0.13300000000000001          1.9949444103986025E-003
  0.13410000000000000          2.1179777104407549E-003
  0.13520000000000004          2.2425677161663771E-003
  0.13630000000000003          2.3680909071117640E-003
  0.13740000000000002          2.4938748683780432E-003
  0.13850000000000001          2.6192008517682552E-003
  0.13960000000000000          2.7433072682470083E-003
  0.14070000000000005          2.8653973713517189E-003
  0.14180000000000004          2.9846457764506340E-003
  0.14290000000000003          3.1002070754766464E-003
  0.14400000000000002          3.2112225890159607E-003
  0.14510000000000001          3.3168275840580463E-003
  0.14620000000000000          3.4161615185439587E-003
  0.14730000000000004          3.5083775874227285E-003
  0.14840000000000003          3.5926545970141888E-003
  0.14950000000000002          3.6682055797427893E-003
  0.15060000000000001          3.7342882715165615E-003
  0.15170000000000000          3.7902130279690027E-003
  0.15280000000000005          3.8353521376848221E-003
  0.15390000000000004          3.8691493682563305E-003
  0.15500000000000003          3.8911290466785431E-003
  0.15610000000000002          3.9009035099297762E-003
  0.15720000000000001          3.8981772959232330E-003
  0.15830000000000000          3.8827515672892332E-003
  0.15940000000000004          3.8545290008187294E-003
  0.16050000000000003          3.8135170470923185E-003
  0.16160000000000002          3.7598318886011839E-003
  0.16270000000000001          3.6936975084245205E-003
  0.16380000000000000          3.6154428962618113E-003
  0.16490000000000005          3.5254971589893103E-003
  0.16600000000000004          3.4243850968778133E-003
  0.16710000000000003          3.3127232454717159E-003
  0.16820000000000002          3.1912152189761400E-003
  0.16930000000000001          3.0606440268456936E-003
  0.17040000000000000          2.9218606650829315E-003
  0.17150000000000004          2.7757741045206785E-003
  0.17260000000000003          2.6233382523059845E-003
  0.17370000000000002          2.4655431043356657E-003
  0.17480000000000001          2.3034047335386276E-003
  0.17590000000000000          2.1379541140049696E-003
  0.17700000000000005          1.9702222198247910E-003
  0.17810000000000004          1.8012262880802155E-003
  0.17920000000000003          1.6319561982527375E-003
  0.18030000000000002          1.4633652754127979E-003
  0.18140000000000001          1.2963619083166122E-003
  0.18250000000000000          1.1318003525957465E-003
  0.18360000000000004          9.7046757582575083E-004
  0.18470000000000003          8.1307138316333294E-004
  0.18580000000000002          6.6023028921335936E-004
  0.18690000000000001          5.1246833754703403E-004
  0.18800000000000000          3.7021058960817754E-004
  0.18910000000000005          2.3377929755952209E-004
  0.19020000000000004          1.0338637366658077E-004
  0.19130000000000003         -2.0874529582215473E-005
  0.19240000000000002         -1.3903403305448592E-004
  0.19350000000000001         -2.5124970125034451E-004
  0.19460000000000005         -3.5780653706751764E-004
  0.19570000000000004         -4.5911880442872643E-004
  0.19680000000000003         -5.5573403369635344E-004
  0.19790000000000002         -6.4833817305043340E-004
  0.19900000000000001         -7.3775986675173044E-004
  0.20010000000000000         -8.2497147377580404E-004
  0.20120000000000005         -9.1108935885131359E-004
  0.20230000000000004         -9.9737523123621941E-004
  0.20340000000000003         -1.0852403938770294E-003
  0.20450000000000002         -1.1762510985136032E-003
  0.20560000000000000         -1.2721314560621977E-003
  0.20670000000000005         -1.3747647171840072E-003
  0.20780000000000004         -1.4861915260553360E-003
  0.20890000000000003         -1.6086094547063112E-003
