 -0.12000000000000000          0.0000000000000000
 -0.11889999999999999          0.0000000000000000
 -0.11780000000000000          0.0000000000000000
 -0.11670000000000000          0.0000000000000000
 -0.11559999999999999          0.0000000000000000
 -0.11449999999999999          0.0000000000000000
 -0.11340000000000000          0.0000000000000000
 -0.11230000000000000         -6.7666029422505399E-026
 -0.11119999999999999          7.0051532423218338E-019
 -0.11009999999999999          4.9563297456166706E-018
 -0.10900000000000000          1.0801446034267481E-017
 -0.10790000000000000         -1.9451014792202762E-017
 -0.10679999999999999         -1.7707816685414227E-016
 -0.10569999999999999         -4.5634376489358261E-016
 -0.10460000000000000         -3.3751015106126740E-016
 -0.10349999999999999          1.3943570504080594E-015
 -0.10239999999999999          5.3090983283374422E-015
 -0.10130000000000000          7.9867177053740551E-015
 -0.10020000000000000          8.8193070468117751E-017
  -9.9099999999999994E-002    -2.6687668662982687E-014
  -9.7999999999999990E-002    -6.0792306789698297E-014
  -9.6899999999999986E-002    -5.5600157453355309E-014
  -9.5799999999999996E-002     4.8361092013600102E-014
  -9.4699999999999993E-002     2.4531676061194385E-013
  -9.3599999999999989E-002     3.8010344654768047E-013
  -9.2499999999999999E-002     1.8131904398061005E-013
  -9.1399999999999995E-002    -4.9725902648983800E-013
  -9.0299999999999991E-002    -1.3401429488704708E-012
  -8.9200000000000002E-002    -1.5009225416348637E-012
  -8.8099999999999984E-002    -1.4474115265714071E-013
  -8.6999999999999994E-002     2.5503332085063946E-012
  -8.5899999999999990E-002     4.7917698454968960E-012
  -8.4799999999999986E-002     3.9843696918173688E-012
  -8.3699999999999997E-002    -1.0214251319751178E-012
  -8.2599999999999993E-002    -7.8916482723623282E-012
  -8.1499999999999989E-002    -1.1359403868926865E-011
  -8.0399999999999999E-002    -7.0989269150556478E-012
  -7.9299999999999995E-002     3.7090998675215481E-012
  -7.8199999999999992E-002     1.3751963109931431E-011
  -7.7100000000000002E-002     1.5120406662849639E-011
  -7.5999999999999984E-002     7.1552425442988898E-012
  -7.4899999999999994E-002    -1.4806666092867515E-012
  -7.3799999999999991E-002    -1.1140480898896854E-012
  -7.2699999999999987E-002     6.1668795070524141E-012
  -7.1599999999999997E-002     3.3749908250058080E-012
  -7.0499999999999993E-002    -2.5861536870341872E-011
  -6.9399999999999989E-002    -7.2509234727569094E-011
  -6.8300000000000000E-002    -9.3549834545569865E-011
  -6.7199999999999996E-002    -3.9113479816110797E-011
  -6.6099999999999992E-002     9.6215410638755827E-011
  -6.5000000000000002E-002     2.4150056954219679E-010
  -6.3899999999999985E-002     2.7892943510465784E-010
  -6.2799999999999995E-002     1.3036161039536864E-010
  -6.1699999999999991E-002    -1.6145129677624936E-010
  -6.0599999999999994E-002    -4.3348402645193573E-010
  -5.9499999999999990E-002    -5.0459592060292380E-010
  -5.8399999999999994E-002    -3.0942559625657395E-010
  -5.7299999999999990E-002     4.7209298970063429E-011
  -5.6199999999999986E-002     3.6953470838874125E-010
  -5.5099999999999996E-002     5.2052773202859726E-010
  -5.3999999999999992E-002     5.0784781935320211E-010
  -5.2899999999999989E-002     4.2501593910948543E-010
  -5.1799999999999985E-002     3.0872568390627464E-010
  -5.0699999999999995E-002     7.0016506481529461E-011
  -4.9599999999999991E-002    -4.0067868467552614E-010
  -4.8499999999999988E-002    -1.0331824285003677E-009
  -4.7399999999999998E-002    -1.4922162394626071E-009
  -4.6299999999999994E-002    -1.3520540242950574E-009
  -4.5199999999999990E-002    -4.4153355971410235E-010
  -4.4099999999999986E-002     9.2595831002739715E-010
  -4.2999999999999997E-002     2.0745900553009733E-009
  -4.1899999999999993E-002     2.3926207681768119E-009
  -4.0799999999999989E-002     1.7383763317724288E-009
  -3.9699999999999985E-002     4.9713677618967722E-010
  -3.8599999999999995E-002    -7.4298273089468125E-010
  -3.7499999999999992E-002    -1.5953365295473532E-009
  -3.6399999999999988E-002    -2.0066766026616278E-009
  -3.5299999999999984E-002    -2.0511452536453589E-009
  -3.4199999999999994E-002    -1.6686318993208715E-009
  -3.3099999999999991E-002    -6.8447203460664241E-010
  -3.1999999999999987E-002     8.6378182384549973E-010
  -3.0899999999999997E-002     2.4397854847535427E-009
  -2.9799999999999993E-002     3.1495575036899481E-009
  -2.8699999999999989E-002     2.3233699408820030E-009
  -2.7599999999999986E-002     1.0303846664783123E-010
  -2.6499999999999996E-002    -2.4770037132526568E-009
  -2.5399999999999992E-002    -4.0275747181794941E-009
  -2.4299999999999988E-002    -3.5632328199142194E-009
  -2.3199999999999985E-002    -9.4140195638914292E-010
  -2.2099999999999995E-002     3.2121054704958851E-009
  -2.0999999999999991E-002     7.8199784425692087E-009
  -1.9899999999999987E-002     1.1530195465070392E-008
  -1.8799999999999983E-002     1.2693512907446802E-008
  -1.7699999999999994E-002     9.4387173632526356E-009
  -1.6599999999999990E-002     8.4844575809484013E-011
  -1.5499999999999986E-002    -1.6322507789823248E-008
  -1.4399999999999996E-002    -3.9899180848124161E-008
  -1.3299999999999992E-002    -7.0540536967200751E-008
  -1.2199999999999989E-002    -1.0889113610801360E-007
  -1.1099999999999985E-002    -1.5684457821407705E-007
  -9.9999999999999950E-003    -2.1709743691644690E-007
  -8.8999999999999913E-003    -2.9219731345619948E-007
  -7.7999999999999875E-003    -3.8414296454902797E-007
  -6.6999999999999837E-003    -4.9522350309416652E-007
  -5.5999999999999939E-003    -6.2966171299194684E-007
  -4.4999999999999901E-003    -7.9478564884993830E-007
  -3.3999999999999864E-003    -1.0007502169173677E-006
  -2.2999999999999826E-003    -1.2590728601935552E-006
  -1.1999999999999927E-003    -1.5813227491889847E-006
  -9.9999999999988987E-005    -1.9792007606156403E-006
   1.0000000000000148E-003    -2.4660701001266716E-006
   2.1000000000000185E-003    -3.0588475965487305E-006
   3.2000000000000084E-003    -3.7790939586557215E-006
   4.3000000000000121E-003    -4.6531058615073562E-006
   5.4000000000000159E-003    -5.7117931646644138E-006
   6.5000000000000058E-003    -6.9911875471007079E-006
   7.6000000000000234E-003    -8.5335805124486797E-006
   8.7000000000000133E-003    -1.0388612281531096E-005
   9.8000000000000032E-003    -1.2613792932825163E-005
   1.0900000000000021E-002    -1.5274827092071064E-005
   1.2000000000000011E-002    -1.8446564354235306E-005
   1.3100000000000001E-002    -2.2215002900338732E-005
   1.4200000000000018E-002    -2.6679710572352633E-005
   1.5300000000000008E-002    -3.1955645681591704E-005
   1.6400000000000026E-002    -3.8173940993146971E-005
   1.7500000000000016E-002    -4.5482400309992954E-005
   1.8600000000000005E-002    -5.4046817240305245E-005
   1.9700000000000023E-002    -6.4053339883685112E-005
   2.0800000000000013E-002    -7.5710930104833096E-005
   2.1900000000000003E-002    -8.9252891484647989E-005
   2.3000000000000020E-002    -1.0493719310034066E-004
   2.4100000000000010E-002    -1.2304696429055184E-004
   2.5200000000000000E-002    -1.4389220450539142E-004
   2.6300000000000018E-002    -1.6781271551735699E-004
   2.7400000000000008E-002    -1.9518051703926176E-004
   2.8500000000000025E-002    -2.2640012321062386E-004
   2.9600000000000015E-002    -2.6190659264102578E-004
   3.0700000000000005E-002    -3.0216280720196664E-004
   3.1800000000000023E-002    -3.4765811869874597E-004
   3.2900000000000013E-002    -3.9890830521471798E-004
   3.4000000000000002E-002    -4.5645554200746119E-004
   3.5100000000000020E-002    -5.2086624782532454E-004
   3.6200000000000010E-002    -5.9272616636008024E-004
   3.7300000000000028E-002    -6.7263387609273195E-004
   3.8400000000000017E-002    -7.6119421282783151E-004
   3.9500000000000007E-002    -8.5901108104735613E-004
   4.0600000000000025E-002    -9.6667971229180694E-004
   4.1700000000000015E-002    -1.0847772937268019E-003
   4.2800000000000005E-002    -1.2138517340645194E-003
   4.3900000000000022E-002    -1.3544110115617514E-003
   4.5000000000000012E-002    -1.5069112414494157E-003
   4.6100000000000002E-002    -1.6717445105314255E-003
   4.7200000000000020E-002    -1.8492242088541389E-003
   4.8300000000000010E-002    -2.0395682659000158E-003
   4.9400000000000027E-002    -2.2428841330111027E-003
   5.0500000000000017E-002    -2.4591519031673670E-003
   5.1600000000000007E-002    -2.6882099919021130E-003
   5.2700000000000025E-002    -2.9297419823706150E-003
   5.3800000000000014E-002    -3.1832624226808548E-003
   5.4900000000000004E-002    -3.4480988979339600E-003
   5.6000000000000022E-002    -3.7233801558613777E-003
   5.7100000000000012E-002    -4.0080239996314049E-003
   5.8200000000000002E-002    -4.3007321655750275E-003
   5.9300000000000019E-002    -4.5999847352504730E-003
   6.0400000000000009E-002    -4.9040392041206360E-003
   6.1500000000000027E-002    -5.2109267562627792E-003
   6.2600000000000017E-002    -5.5184569209814072E-003
   6.3700000000000007E-002    -5.8242250233888626E-003
   6.4800000000000024E-002    -6.1256275512278080E-003
   6.5900000000000014E-002    -6.4198756590485573E-003
   6.7000000000000004E-002    -6.7040119320154190E-003
   6.8100000000000022E-002    -6.9749364629387856E-003
   6.9200000000000012E-002    -7.2294357232749462E-003
   7.0300000000000029E-002    -7.4642202816903591E-003
   7.1400000000000019E-002    -7.6759629882872105E-003
   7.2500000000000009E-002    -7.8613385558128357E-003
   7.3600000000000027E-002    -8.0170640721917152E-003
   7.4700000000000016E-002    -8.1399418413639069E-003
   7.5800000000000006E-002    -8.2269133999943733E-003
   7.6900000000000024E-002    -8.2751065492630005E-003
   7.8000000000000014E-002    -8.2818893715739250E-003
   7.9100000000000004E-002    -8.2449121400713921E-003
   8.0200000000000021E-002    -8.1621510908007622E-003
   8.1300000000000011E-002    -8.0319494009017944E-003
   8.2400000000000029E-002    -7.8530656173825264E-003
   8.3500000000000019E-002    -7.6247095130383968E-003
   8.4600000000000009E-002    -7.3465714231133461E-003
   8.5700000000000026E-002    -7.0188445970416069E-003
   8.6800000000000016E-002    -6.6422345116734505E-003
   8.7900000000000006E-002    -6.2179695814847946E-003
   8.9000000000000024E-002    -5.7478034868836403E-003
   9.0100000000000013E-002    -5.2340119145810604E-003
   9.1200000000000003E-002    -4.6793720684945583E-003
   9.2300000000000021E-002    -4.0871337987482548E-003
   9.3400000000000011E-002    -3.4609781578183174E-003
   9.4500000000000028E-002    -2.8049764223396778E-003
   9.5600000000000018E-002    -2.1235446911305189E-003
   9.6700000000000008E-002    -1.4213932445272803E-003
   9.7800000000000026E-002    -7.0346024585887790E-004
   9.8900000000000016E-002     2.5166298655676655E-005
  0.10000000000000001          7.5932947220280766E-004
  0.10110000000000002          1.4938787790015340E-003
  0.10220000000000001          2.2237384691834450E-003
  0.10330000000000003          2.9439756181091070E-003
  0.10440000000000002          3.6498790141195059E-003
  0.10550000000000001          4.3370411731302738E-003
  0.10660000000000003          5.0014350563287735E-003
  0.10770000000000002          5.6394706480205059E-003
  0.10880000000000001          6.2480424530804157E-003
  0.10990000000000003          6.8245646543800831E-003
  0.11100000000000002          7.3670139536261559E-003
  0.11210000000000001          7.8739663586020470E-003
  0.11320000000000002          8.3446232602000237E-003
  0.11430000000000001          8.7788170203566551E-003
  0.11540000000000003          9.1769853606820107E-003
  0.11650000000000002          9.5401396974921227E-003
  0.11760000000000001          9.8698446527123451E-003
  0.11870000000000003          1.0168188251554966E-002
  0.11980000000000002          1.0437740944325924E-002
  0.12090000000000001          1.0681484825909138E-002
  0.12200000000000003          1.0902734473347664E-002
  0.12310000000000001          1.1105045676231384E-002
  0.12420000000000003          1.1292142793536186E-002
  0.12530000000000002          1.1467843316495419E-002
  0.12640000000000001          1.1635975912213326E-002
  0.12750000000000003          1.1800281703472137E-002
  0.12860000000000002          1.1964291334152222E-002
  0.12970000000000001          1.2131238356232643E-002
  0.13080000000000003          1.2303979136049747E-002
  0.13190000000000002          1.2484922073781490E-002
  0.13300000000000001          1.2675969861447811E-002
  0.13410000000000000          1.2878440320491791E-002
  0.13520000000000004          1.3092987239360809E-002
  0.13630000000000003          1.3319546356797218E-002
  0.13740000000000002          1.3557313010096550E-002
  0.13850000000000001          1.3804740272462368E-002
  0.13960000000000000          1.4059534296393394E-002
  0.14070000000000005          1.4318655245006084E-002
  0.14180000000000004          1.4578328467905521E-002
  0.14290000000000003          1.4834073372185230E-002
  0.14400000000000002          1.5080761164426804E-002
  0.14510000000000001          1.5312694944441319E-002
  0.14620000000000000          1.5523693524301052E-002
  0.14730000000000004          1.5707189217209816E-002
  0.14840000000000003          1.5856299549341202E-002
  0.14950000000000002          1.5963939949870110E-002
  0.15060000000000001          1.6022948548197746E-002
  0.15170000000000000          1.6026247292757034E-002
  0.15280000000000005          1.5966966748237610E-002
  0.15390000000000004          1.5838563442230225E-002
  0.15500000000000003          1.5634946525096893E-002
  0.15610000000000002          1.5350600704550743E-002
  0.15720000000000001          1.4980727806687355E-002
  0.15830000000000000          1.4521369710564613E-002
  0.15940000000000004          1.3969516381621361E-002
  0.16050000000000003          1.3323189690709114E-002
  0.16160000000000002          1.2581510469317436E-002
  0.16270000000000001          1.1744764633476734E-002
  0.16380000000000000          1.0814462788403034E-002
  0.16490000000000005          9.7933802753686905E-003
  0.16600000000000004          8.6855553090572357E-003
  0.16710000000000003          7.4962661601603031E-003
  0.16820000000000002          6.2319813296198845E-003
  0.16930000000000001          4.9002962186932564E-003
  0.17040000000000000          3.5098753869533539E-003
  0.17150000000000004          2.0703671034425497E-003
  0.17260000000000003          5.9229135513305664E-004
  0.17370000000000002         -9.1310671996325254E-004
  0.17480000000000001         -2.4340141098946333E-003
  0.17590000000000000         -3.9582001045346260E-003
  0.17700000000000005         -5.4731690324842930E-003
  0.17810000000000004         -6.9663194008171558E-003
  0.17920000000000003         -8.4251211956143379E-003
  0.18030000000000002         -9.8373088985681534E-003
  0.18140000000000001         -1.1191048659384251E-002
  0.18250000000000000         -1.2475103139877319E-002
  0.18360000000000004         -1.3678967952728271E-002
  0.18470000000000003         -1.4793009497225285E-002
  0.18580000000000002         -1.5808600932359695E-002
  0.18690000000000001         -1.6718238592147827E-002
  0.18800000000000000         -1.7515629529953003E-002
  0.18910000000000005         -1.8195765092968941E-002
  0.19020000000000004         -1.8754959106445312E-002
  0.19130000000000003         -1.9190879538655281E-002
  0.19240000000000002         -1.9502567127346992E-002
  0.19350000000000001         -1.9690407440066338E-002
  0.19460000000000005         -1.9756106659770012E-002
  0.19570000000000004         -1.9702633842825890E-002
  0.19680000000000003         -1.9534138962626457E-002
  0.19790000000000002         -1.9255869090557098E-002
  0.19900000000000001         -1.8874069675803185E-002
  0.20010000000000000         -1.8395869061350822E-002
  0.20120000000000005         -1.7829149961471558E-002
  0.20230000000000004         -1.7182404175400734E-002
  0.20340000000000003         -1.6464605927467346E-002
  0.20450000000000002         -1.5685075893998146E-002
  0.20560000000000000         -1.4853368513286114E-002
  0.20670000000000005         -1.3979126699268818E-002
  0.20780000000000004         -1.3071941211819649E-002
  0.20890000000000003         -1.2141215614974499E-002
