 -0.12000000000000000          0.0000000000000000
 -0.11889999999999999          0.0000000000000000
 -0.11780000000000000          0.0000000000000000
 -0.11670000000000000          0.0000000000000000
 -0.11559999999999999          0.0000000000000000
 -0.11449999999999999          0.0000000000000000
 -0.11340000000000000          0.0000000000000000
 -0.11230000000000000          6.9002062530678170E-019
 -0.11119999999999999         -5.0525722098872153E-018
 -0.11009999999999999         -6.7620929815246343E-017
 -0.10900000000000000         -2.6534858201825618E-016
 -0.10790000000000000         -3.9656536755317603E-016
 -0.10679999999999999          5.5514126434485058E-016
 -0.10569999999999999          3.9409580064380875E-015
 -0.10460000000000000          8.2768688414560157E-015
 -0.10349999999999999          5.2698874791431462E-015
 -0.10239999999999999         -1.6584044521764790E-014
 -0.10130000000000000         -5.3812673989159926E-014
 -0.10020000000000000         -6.8077176383109228E-014
  -9.9099999999999994E-002    -1.8195453553148527E-015
  -9.7999999999999990E-002     1.4874826901895705E-013
  -9.6899999999999986E-002     2.6036274915555713E-013
  -9.5799999999999996E-002     1.3868595128644495E-013
  -9.4699999999999993E-002    -2.4241649269549082E-013
  -9.3599999999999989E-002    -5.2204383394274800E-013
  -9.2499999999999999E-002    -1.4760469322500080E-013
  -9.1399999999999995E-002     8.9502027750959501E-013
  -9.0299999999999991E-002     1.4510940192502542E-012
  -8.9200000000000002E-002    -2.0848942147363991E-013
  -8.8099999999999984E-002    -4.2414791297240573E-012
  -8.6999999999999994E-002    -7.2559254611637147E-012
  -8.5899999999999990E-002    -3.5603685798191176E-012
  -8.4799999999999986E-002     9.1895440909595116E-012
  -8.3699999999999997E-002     2.3848345173660412E-011
  -8.2599999999999993E-002     2.4786225155670749E-011
  -8.1499999999999989E-002     1.5934302488584962E-013
  -8.0399999999999999E-002    -4.1677879897283887E-011
  -7.9299999999999995E-002    -6.8485848936372662E-011
  -7.8199999999999992E-002    -4.5271252024914332E-011
  -7.7100000000000002E-002     2.9692248659785037E-011
  -7.5999999999999984E-002     1.0643350784045325E-010
  -7.4899999999999994E-002     1.1172175684581731E-010
  -7.3799999999999991E-002     1.5425386662437646E-011
  -7.2699999999999987E-002    -1.2038205154940584E-010
  -7.1599999999999997E-002    -1.7017479092551469E-010
  -7.0499999999999993E-002    -5.2796537974852953E-011
  -6.9399999999999989E-002     1.6583345807674732E-010
  -6.8300000000000000E-002     2.8691060638408317E-010
  -6.7199999999999996E-002     1.3869178028258489E-010
  -6.6099999999999992E-002    -2.3360613443657030E-010
  -6.5000000000000002E-002    -5.3637438934828197E-010
  -6.3899999999999985E-002    -4.4100981200223544E-010
  -6.2799999999999995E-002     9.7844593538454205E-011
  -6.1699999999999991E-002     7.1087968844807392E-010
  -6.0599999999999994E-002     8.5679330297239176E-010
  -5.9499999999999990E-002     2.9974112081276871E-010
  -5.8399999999999994E-002    -5.9136134877846303E-010
  -5.7299999999999990E-002    -1.0607624778558034E-009
  -5.6199999999999986E-002    -6.0656923928092965E-010
  -5.5099999999999996E-002     4.9009341029915277E-010
  -5.3999999999999992E-002     1.2857174214175870E-009
  -5.2899999999999989E-002     9.5341057271269847E-010
  -5.1799999999999985E-002    -4.1328535038687164E-010
  -5.0699999999999995E-002    -1.7413608333072261E-009
  -4.9599999999999991E-002    -1.8367041221267755E-009
  -4.8499999999999988E-002    -4.6945514142748834E-010
  -4.7399999999999998E-002     1.3209946470027489E-009
  -4.6299999999999994E-002     2.0831594227388450E-009
  -4.5199999999999990E-002     1.2714864716656393E-009
  -4.4099999999999986E-002    -2.0481261131521933E-010
  -4.2999999999999997E-002    -8.1020240516593844E-010
  -4.1899999999999993E-002     9.9063923730824399E-011
  -4.0799999999999989E-002     1.5121158769559884E-009
  -3.9699999999999985E-002     1.6017833726067465E-009
  -3.8599999999999995E-002    -4.9661375012277631E-010
  -3.7499999999999992E-002    -3.6303153816419353E-009
  -3.6399999999999988E-002    -5.4091553458590624E-009
  -3.5299999999999984E-002    -4.2275307698957931E-009
  -3.4199999999999994E-002    -6.8202543612727595E-010
  -3.3099999999999991E-002     2.9752362795676390E-009
  -3.1999999999999987E-002     4.8444084299603674E-009
  -3.0899999999999997E-002     4.8926014351025060E-009
  -2.9799999999999993E-002     4.4836609980336561E-009
  -2.8699999999999989E-002     4.4517469710569912E-009
  -2.7599999999999986E-002     3.8258565204785100E-009
  -2.6499999999999996E-002     7.5048744996308869E-010
  -2.5399999999999992E-002    -5.1416844115692584E-009
  -2.4299999999999988E-002    -1.1380824282980484E-008
  -2.3199999999999985E-002    -1.4063151532184293E-008
  -2.2099999999999995E-002    -1.1026723534257599E-008
  -2.0999999999999991E-002    -3.8113832090402866E-009
  -1.9899999999999987E-002     3.6871508068969661E-009
  -1.8799999999999983E-002     8.7839424622870865E-009
  -1.7699999999999994E-002     1.2353995160196973E-008
  -1.6599999999999990E-002     1.7544214969689165E-008
  -1.5499999999999986E-002     2.6072793701814589E-008
  -1.4399999999999996E-002     3.6022072436026065E-008
  -1.3299999999999992E-002     4.3818406680884436E-008
  -1.2199999999999989E-002     4.8868358248910226E-008
  -1.1099999999999985E-002     5.6235890610878414E-008
  -9.9999999999999950E-003     7.4179865805490408E-008
  -8.8999999999999913E-003     1.0830903107716949E-007
  -7.7999999999999875E-003     1.5777568762587180E-007
  -6.6999999999999837E-003     2.1740942202086444E-007
  -5.5999999999999939E-003     2.8408754815245629E-007
  -4.4999999999999901E-003     3.6135207892584731E-007
  -3.3999999999999864E-003     4.5777912305311474E-007
  -2.2999999999999826E-003     5.8074408570973901E-007
  -1.1999999999999927E-003     7.3202079420298105E-007
  -9.9999999999988987E-005     9.1011781933048042E-007
   1.0000000000000148E-003     1.1176065299878246E-006
   2.1000000000000185E-003     1.3664712241734378E-006
   3.2000000000000084E-003     1.6761404140197556E-006
   4.3000000000000121E-003     2.0659911115217255E-006
   5.4000000000000159E-003     2.5496992748230696E-006
   6.5000000000000058E-003     3.1370673241326585E-006
   7.6000000000000234E-003     3.8414545997511595E-006
   8.7000000000000133E-003     4.6853128878865391E-006
   9.8000000000000032E-003     5.6984608818311244E-006
   1.0900000000000021E-002     6.9116213126108050E-006
   1.2000000000000011E-002     8.3531404015957378E-006
   1.3100000000000001E-002     1.0053829100797884E-005
   1.4200000000000018E-002     1.2056210834998637E-005
   1.5300000000000008E-002     1.4419279978028499E-005
   1.6400000000000026E-002     1.7213917089975439E-005
   1.7500000000000016E-002     2.0513796698651277E-005
   1.8600000000000005E-002     2.4391745682805777E-005
   1.9700000000000023E-002     2.8926287996000610E-005
   2.0800000000000013E-002     3.4212429454782978E-005
   2.1900000000000003E-002     4.0365761378780007E-005
   2.3000000000000020E-002     4.7515670303255320E-005
   2.4100000000000010E-002     5.5795360822230577E-005
   2.5200000000000000E-002     6.5341009758412838E-005
   2.6300000000000018E-002     7.6303789683151990E-005
   2.7400000000000008E-002     8.8864573626779020E-005
   2.8500000000000025E-002     1.0323694004910067E-004
   2.9600000000000015E-002     1.1965454905293882E-004
   3.0700000000000005E-002     1.3835483696311712E-004
   3.1800000000000023E-002     1.5957596770022064E-004
   3.2900000000000013E-002     1.8357121734879911E-004
   3.4000000000000002E-002     2.1062740415800363E-004
   3.5100000000000020E-002     2.4106807541102171E-004
   3.6200000000000010E-002     2.7523696189746261E-004
   3.7300000000000028E-002     3.1347665935754776E-004
   3.8400000000000017E-002     3.5612317151390016E-004
   3.9500000000000007E-002     4.0352175710722804E-004
   4.0600000000000025E-002     4.5604622573591769E-004
   4.1700000000000015E-002     5.1409989828243852E-004
   4.2800000000000005E-002     5.7809293502941728E-004
   4.3900000000000022E-002     6.4841518178582191E-004
   4.5000000000000012E-002     7.2542909765616059E-004
   4.6100000000000002E-002     8.0948584945872426E-004
   4.7200000000000020E-002     9.0094475308433175E-004
   4.8300000000000010E-002     1.0001689661294222E-003
   4.9400000000000027E-002     1.1074952781200409E-003
   5.0500000000000017E-002     1.2231994187459350E-003
   5.1600000000000007E-002     1.3474889565259218E-003
   5.2700000000000025E-002     1.4805236132815480E-003
   5.3800000000000014E-002     1.6224371502175927E-003
   5.4900000000000004E-002     1.7733295680955052E-003
   5.6000000000000022E-002     1.9332277588546276E-003
   5.7100000000000012E-002     2.1020451094955206E-003
   5.8200000000000002E-002     2.2795731201767921E-003
   5.9300000000000019E-002     2.4655088782310486E-003
   6.0400000000000009E-002     2.6594819501042366E-003
   6.1500000000000027E-002     2.8610508888959885E-003
   6.2600000000000017E-002     3.0696601606905460E-003
   6.3700000000000007E-002     3.2846005633473396E-003
   6.4800000000000024E-002     3.5050059668719769E-003
   6.5900000000000014E-002     3.7298898678272963E-003
   6.7000000000000004E-002     3.9581833407282829E-003
   6.8100000000000022E-002     4.1887303814291954E-003
   6.9200000000000012E-002     4.4202459976077080E-003
   7.0300000000000029E-002     4.6512759290635586E-003
   7.1400000000000019E-002     4.8802075907588005E-003
   7.2500000000000009E-002     5.1053222268819809E-003
   7.3600000000000027E-002     5.3248470649123192E-003
   7.4700000000000016E-002     5.5369599722325802E-003
   7.5800000000000006E-002     5.7397466152906418E-003
   7.6900000000000024E-002     5.9311627410352230E-003
   7.8000000000000014E-002     6.1090444214642048E-003
   7.9100000000000004E-002     6.2711723148822784E-003
   8.0200000000000021E-002     6.4153284765779972E-003
   8.1300000000000011E-002     6.5393019467592239E-003
   8.2400000000000029E-002     6.6408463753759861E-003
   8.3500000000000019E-002     6.7176418378949165E-003
   8.4600000000000009E-002     6.7673134617507458E-003
   8.5700000000000026E-002     6.7874952219426632E-003
   8.6800000000000016E-002     6.7758816294372082E-003
   8.7900000000000006E-002     6.7302235402166843E-003
   8.9000000000000024E-002     6.6482722759246826E-003
   9.0100000000000013E-002     6.5277335233986378E-003
   9.1200000000000003E-002     6.3662780448794365E-003
   9.2300000000000021E-002     6.1616073362529278E-003
   9.3400000000000011E-002     5.9114978648722172E-003
   9.4500000000000028E-002     5.6137884967029095E-003
   9.5600000000000018E-002     5.2663115784525871E-003
   9.6700000000000008E-002     4.8668375238776207E-003
   9.7800000000000026E-002     4.4130925089120865E-003
   9.8900000000000016E-002     3.9028220344334841E-003
  0.10000000000000001          3.3338475041091442E-003
  0.10110000000000002          2.7040513232350349E-003
  0.10220000000000001          2.0113177597522736E-003
  0.10330000000000003          1.2534927809610963E-003
  0.10440000000000002          4.2842060793191195E-004
  0.10550000000000001         -4.6596463653258979E-004
  0.10660000000000003         -1.4315606094896793E-003
  0.10770000000000002         -2.4700844660401344E-003
  0.10880000000000001         -3.5831029526889324E-003
  0.10990000000000003         -4.7720270231366158E-003
  0.11100000000000002         -6.0380264185369015E-003
  0.11210000000000001         -7.3818848468363285E-003
  0.11320000000000002         -8.8038751855492592E-003
  0.11430000000000001         -1.0303709656000137E-002
  0.11540000000000003         -1.1880529113113880E-002
  0.11650000000000002         -1.3532866723835468E-002
  0.11760000000000001         -1.5258518047630787E-002
  0.11870000000000003         -1.7054364085197449E-002
  0.11980000000000002         -1.8916238099336624E-002
  0.12090000000000001         -2.0838849246501923E-002
  0.12200000000000003         -2.2815773263573647E-002
  0.12310000000000001         -2.4839418008923531E-002
  0.12420000000000003         -2.6900922879576683E-002
  0.12530000000000002         -2.8990022838115692E-002
  0.12640000000000001         -3.1094975769519806E-002
  0.12750000000000003         -3.3202588558197021E-002
  0.12860000000000002         -3.5298269242048264E-002
  0.12970000000000001         -3.7366110831499100E-002
  0.13080000000000003         -3.9388898760080338E-002
  0.13190000000000002         -4.1348133236169815E-002
  0.13300000000000001         -4.3224103748798370E-002
  0.13410000000000000         -4.4996075332164764E-002
  0.13520000000000004         -4.6642526984214783E-002
  0.13630000000000003         -4.8141404986381531E-002
  0.13740000000000002         -4.9470316618680954E-002
  0.13850000000000001         -5.0606742501258850E-002
  0.13960000000000000         -5.1528301090002060E-002
  0.14070000000000005         -5.2213087677955627E-002
  0.14180000000000004         -5.2640058100223541E-002
  0.14290000000000003         -5.2789412438869476E-002
  0.14400000000000002         -5.2642915397882462E-002
  0.14510000000000001         -5.2184179425239563E-002
  0.14620000000000000         -5.1398996263742447E-002
  0.14730000000000004         -5.0275698304176331E-002
  0.14840000000000003         -4.8805538564920425E-002
  0.14950000000000002         -4.6983003616333008E-002
  0.15060000000000001         -4.4806029647588730E-002
  0.15170000000000000         -4.2276144027709961E-002
  0.15280000000000005         -3.9398629218339920E-002
  0.15390000000000004         -3.6182671785354614E-002
  0.15500000000000003         -3.2641496509313583E-002
  0.15610000000000002         -2.8792394325137138E-002
  0.15720000000000001         -2.4656586349010468E-002
  0.15830000000000000         -2.0259050652384758E-002
  0.15940000000000004         -1.5628324821591377E-002
  0.16050000000000003         -1.0796314105391502E-002
  0.16160000000000002         -5.7980138808488846E-003
  0.16270000000000001         -6.7113968543708324E-004
  0.16380000000000000          4.5443526469171047E-003
  0.16490000000000005          9.8067792132496834E-003
  0.16600000000000004          1.5073217451572418E-002
  0.16710000000000003          2.0299991592764854E-002
  0.16820000000000002          2.5443185120820999E-002
  0.16930000000000001          3.0459241941571236E-002
  0.17040000000000000          3.5305600613355637E-002
  0.17150000000000004          3.9941295981407166E-002
  0.17260000000000003          4.4327471405267715E-002
  0.17370000000000002          4.8427827656269073E-002
  0.17480000000000001          5.2209079265594482E-002
  0.17590000000000000          5.5641438812017441E-002
  0.17700000000000005          5.8699034154415131E-002
  0.17810000000000004          6.1360243707895279E-002
  0.17920000000000003          6.3607901334762573E-002
  0.18030000000000002          6.5429419279098511E-002
  0.18140000000000001          6.6816903650760651E-002
  0.18250000000000000          6.7767217755317688E-002
  0.18360000000000004          6.8281993269920349E-002
  0.18470000000000003          6.8367496132850647E-002
  0.18580000000000002          6.8034425377845764E-002
  0.18690000000000001          6.7297585308551788E-002
  0.18800000000000000          6.6175639629364014E-002
  0.18910000000000005          6.4690761268138885E-002
  0.19020000000000004          6.2868282198905945E-002
  0.19130000000000003          6.0736231505870819E-002
  0.19240000000000002          5.8324851095676422E-002
  0.19350000000000001          5.5666070431470871E-002
  0.19460000000000005          5.2793048322200775E-002
  0.19570000000000004          4.9739737063646317E-002
  0.19680000000000003          4.6540439128875732E-002
  0.19790000000000002          4.3229278177022934E-002
  0.19900000000000001          3.9839737117290497E-002
  0.20010000000000000          3.6404222249984741E-002
  0.20120000000000005          3.2953783869743347E-002
  0.20230000000000004          2.9517859220504761E-002
  0.20340000000000003          2.6123963296413422E-002
  0.20450000000000002          2.2797400131821632E-002
  0.20560000000000000          1.9561015069484711E-002
  0.20670000000000005          1.6435073688626289E-002
  0.20780000000000004          1.3437262736260891E-002
  0.20890000000000003          1.0582711547613144E-002
