 -0.12000000000000000          0.0000000000000000
 -0.11889999999999999          0.0000000000000000
 -0.11780000000000000          0.0000000000000000
 -0.11670000000000000          0.0000000000000000
 -0.11559999999999999          0.0000000000000000
 -0.11449999999999999          0.0000000000000000
 -0.11340000000000000          0.0000000000000000
 -0.11230000000000000         -3.8211401660109682E-025
 -0.11119999999999999          4.0440402103521515E-024
 -0.11009999999999999          9.1070512631173788E-024
 -0.10900000000000000         -8.2472930617614390E-024
 -0.10790000000000000         -3.1842820089962118E-024
 -0.10679999999999999         -8.7790689311363544E-023
 -0.10569999999999999         -2.5665311872326981E-023
 -0.10460000000000000         -2.8754062036840023E-023
 -0.10349999999999999          9.8585443005746144E-023
 -0.10239999999999999          2.2592494173744507E-022
 -0.10130000000000000         -6.9016155701143899E-022
 -0.10020000000000000         -1.6062481314909699E-021
  -9.9099999999999994E-002    -4.6091868902582841E-021
  -9.7999999999999990E-002    -1.1785830926368928E-020
  -9.6899999999999986E-002     1.9060478901402199E-021
  -9.5799999999999996E-002     3.2292743373158066E-020
  -9.4699999999999993E-002     6.2679442895143747E-020
  -9.3599999999999989E-002     8.4718733276081512E-020
  -9.2499999999999999E-002     1.4014764729651387E-019
  -9.1399999999999995E-002     2.6235584090767810E-019
  -9.0299999999999991E-002     5.1812256785091191E-019
  -8.9200000000000002E-002     7.4049963238055992E-019
  -8.8099999999999984E-002     4.2864258943132371E-019
  -8.6999999999999994E-002    -4.1744863854497915E-019
  -8.5899999999999990E-002    -1.2635398923706762E-018
  -8.4799999999999986E-002    -1.1747213740977948E-018
  -8.3699999999999997E-002     1.1612406048598650E-019
  -8.2599999999999993E-002     1.6740865875833011E-018
  -8.1499999999999989E-002     2.1635808480240590E-018
  -8.0399999999999999E-002     7.8325566766523680E-019
  -7.9299999999999995E-002    -6.2835456913489491E-020
  -7.8199999999999992E-002    -9.0892652979342750E-019
  -7.7100000000000002E-002    -6.8654931016741463E-019
  -7.5999999999999984E-002    -9.9840627556846842E-019
  -7.4899999999999994E-002    -5.0499020708698942E-018
  -7.3799999999999991E-002    -1.3375271449785430E-017
  -7.2699999999999987E-002    -1.4221362238322032E-017
  -7.1599999999999997E-002    -5.4512385235520475E-018
  -7.0499999999999993E-002     6.5242903013803371E-018
  -6.9399999999999989E-002     4.6097336243314390E-018
  -6.8300000000000000E-002     9.1059855132461156E-018
  -6.7199999999999996E-002     3.2834669717496417E-017
  -6.6099999999999992E-002     7.3658845361071013E-017
  -6.5000000000000002E-002     7.1744286202480277E-017
  -6.3899999999999985E-002     1.4477546691474605E-018
  -6.2799999999999995E-002    -1.4577849950808295E-016
  -6.1699999999999991E-002    -2.7590925645572478E-016
  -6.0599999999999994E-002    -1.7952472887805771E-016
  -5.9499999999999990E-002     2.3740030640712691E-016
  -5.8399999999999994E-002     7.7399382560815405E-016
  -5.7299999999999990E-002     9.1739099786414995E-016
  -5.6199999999999986E-002     3.0858651701137481E-016
  -5.5099999999999996E-002    -8.7932787831338345E-016
  -5.3999999999999992E-002    -1.8962871756108028E-015
  -5.2899999999999989E-002    -1.6994663648220573E-015
  -5.1799999999999985E-002     1.0433074217920668E-016
  -5.0699999999999995E-002     2.5064702290550139E-015
  -4.9599999999999991E-002     3.5409702022615305E-015
  -4.8499999999999988E-002     2.1137192626215608E-015
  -4.7399999999999998E-002    -1.0230811220445814E-015
  -4.6299999999999994E-002    -3.8521626955444720E-015
  -4.5199999999999990E-002    -4.3819004888891004E-015
  -4.4099999999999986E-002    -2.2618367377343681E-015
  -4.2999999999999997E-002     1.7387312123667408E-015
  -4.1899999999999993E-002     5.8760627961974236E-015
  -4.0799999999999989E-002     7.7567906118418753E-015
  -3.9699999999999985E-002     4.8849707204388481E-015
  -3.8599999999999995E-002    -2.0555763800231839E-015
  -3.7499999999999992E-002    -8.7909771828579078E-015
  -3.6399999999999988E-002    -9.9874383259089192E-015
  -3.5299999999999984E-002    -3.6960740051232913E-015
  -3.4199999999999994E-002     8.3137317153205229E-015
  -3.3099999999999991E-002     1.9092663038132278E-014
  -3.1999999999999987E-002     1.6331964128530121E-014
  -3.0899999999999997E-002    -9.8153678178389443E-015
  -2.9799999999999993E-002    -5.0254529135101630E-014
  -2.8699999999999989E-002    -7.6641194475882135E-014
  -2.7599999999999986E-002    -3.7894031445703802E-014
  -2.6499999999999996E-002     7.1218177839435515E-014
  -2.5399999999999992E-002     1.7971493976136343E-013
  -2.4299999999999988E-002     1.9276758195328064E-013
  -2.3199999999999985E-002     6.9603340018681292E-014
  -2.2099999999999995E-002    -1.5121035662740007E-013
  -2.0999999999999991E-002    -3.3277281754826027E-013
  -1.9899999999999987E-002    -3.6184347618900548E-013
  -1.8799999999999983E-002    -1.8193882815251139E-013
  -1.7699999999999994E-002     1.3691798346135431E-013
  -1.6599999999999990E-002     4.0872798309950220E-013
  -1.5499999999999986E-002     4.8140972545157590E-013
  -1.4399999999999996E-002     3.0025754018531137E-013
  -1.3299999999999992E-002    -2.9693837720699140E-014
  -1.2199999999999989E-002    -2.9618671339333436E-013
  -1.1099999999999985E-002    -3.0884572243400354E-013
  -9.9999999999999950E-003    -1.6395265949997045E-013
  -8.8999999999999913E-003    -3.6917528496022145E-013
  -7.7999999999999875E-003    -1.0558069175881091E-012
  -6.6999999999999837E-003    -1.6198981175538640E-012
  -5.5999999999999939E-003    -1.3174529826451287E-012
  -4.4999999999999901E-003     1.4037382367604323E-013
  -3.3999999999999864E-003     2.7360767731327007E-012
  -2.2999999999999826E-003     4.2814324134610171E-012
  -1.1999999999999927E-003     4.0587038938055819E-012
  -9.9999999999988987E-005     1.7702927882293218E-012
   1.0000000000000148E-003    -5.1811820892672111E-013
   2.1000000000000185E-003    -1.4564998512822669E-013
   3.2000000000000084E-003     3.3185306174028650E-013
   4.3000000000000121E-003    -2.3766967126997995E-012
   5.4000000000000159E-003    -7.8861726177104075E-012
   6.5000000000000058E-003    -1.1294952820262161E-011
   7.6000000000000234E-003    -5.1105638818049748E-012
   8.7000000000000133E-003     5.2752138594847064E-012
   9.8000000000000032E-003     1.2579973521220644E-011
   1.0900000000000021E-002     1.1622001971911544E-011
   1.2000000000000011E-002     5.8069998462584316E-013
   1.3100000000000001E-002    -1.5222175950291295E-011
   1.4200000000000018E-002    -1.4779684420762607E-011
   1.5300000000000008E-002    -2.8533976396960536E-012
   1.6400000000000026E-002     1.4674740589359914E-011
   1.7500000000000016E-002     1.7638066354686011E-011
   1.8600000000000005E-002     1.4439355960904621E-011
   1.9700000000000023E-002     2.5245272886054160E-011
   2.0800000000000013E-002     6.1259518291389981E-011
   2.1900000000000003E-002     5.9181180789291687E-011
   2.3000000000000020E-002    -1.1239741776192247E-011
   2.4100000000000010E-002    -1.1807270439145867E-010
   2.5200000000000000E-002    -1.2967420193188417E-010
   2.6300000000000018E-002    -1.2294262830003788E-012
   2.7400000000000008E-002     1.4626165556475001E-010
   2.8500000000000025E-002     1.6266940572329247E-010
   2.9600000000000015E-002     9.6169773533549829E-011
   3.0700000000000005E-002     8.9049753682068911E-011
   3.1800000000000023E-002     1.4467047004806943E-010
   3.2900000000000013E-002     8.8254167862622523E-011
   3.4000000000000002E-002    -9.8125070568944039E-011
   3.5100000000000020E-002    -4.0102277054643309E-010
   3.6200000000000010E-002    -5.9412424979754519E-010
   3.7300000000000028E-002    -3.7268871322382324E-010
   3.8400000000000017E-002     9.7468991211435707E-011
   3.9500000000000007E-002     4.3990450171449424E-010
   4.0600000000000025E-002     3.5659936115095547E-010
   4.1700000000000015E-002    -9.0390889218028292E-012
   4.2800000000000005E-002    -1.7749240965869717E-010
   4.3900000000000022E-002    -2.3279073113613435E-011
   4.5000000000000012E-002     5.9230564897205795E-011
   4.6100000000000002E-002    -1.7644491423496333E-010
   4.7200000000000020E-002    -9.5886099060749075E-010
   4.8300000000000010E-002    -1.7995362977529794E-009
   4.9400000000000027E-002    -1.5646562934179542E-009
   5.0500000000000017E-002    -3.5729491587588313E-010
   5.1600000000000007E-002     6.3047395082449498E-010
   5.2700000000000025E-002     6.5920591207913048E-010
   5.3800000000000014E-002    -1.0080272727641670E-010
   5.4900000000000004E-002    -6.7258915104062567E-010
   5.6000000000000022E-002    -3.6600536490460911E-010
   5.7100000000000012E-002     8.1446727140388475E-010
   5.8200000000000002E-002     2.0442361137185117E-009
   5.9300000000000019E-002     2.5995421371050043E-009
   6.0400000000000009E-002     1.8552188674192394E-009
   6.1500000000000027E-002     1.1893214191260881E-009
   6.2600000000000017E-002     1.2830349005454877E-009
   6.3700000000000007E-002     1.7873640345555941E-009
   6.4800000000000024E-002     1.7116217332358019E-009
   6.5900000000000014E-002     5.4127763382538774E-010
   6.7000000000000004E-002    -2.0474550943561098E-009
   6.8100000000000022E-002    -4.6182617730039510E-009
   6.9200000000000012E-002    -4.6749577542470888E-009
   7.0300000000000029E-002    -2.1592838628237132E-009
   7.1400000000000019E-002     1.3064638260118500E-009
   7.2500000000000009E-002     4.0013969915264624E-009
   7.3600000000000027E-002     4.2673673483761831E-009
   7.4700000000000016E-002     2.3732638076978674E-009
   7.5800000000000006E-002    -2.0202470252250748E-010
   7.6900000000000024E-002    -2.7056092921640129E-009
   7.8000000000000014E-002    -4.7251935697545377E-009
   7.9100000000000004E-002    -5.7947042719774799E-009
   8.0200000000000021E-002    -5.4480668865153348E-009
   8.1300000000000011E-002    -3.8107632605033359E-009
   8.2400000000000029E-002    -9.7242291996479935E-010
   8.3500000000000019E-002     1.6866582575048028E-009
   8.4600000000000009E-002     3.1447027204478673E-009
   8.5700000000000026E-002     2.4695623324078042E-009
   8.6800000000000016E-002    -3.2083702361518363E-010
   8.7900000000000006E-002    -3.3980509517306245E-009
   8.9000000000000024E-002    -4.7543764480906248E-009
   9.0100000000000013E-002    -3.4935174753059073E-009
   9.1200000000000003E-002    -1.3184363600871052E-009
   9.2300000000000021E-002     3.3679312116952076E-010
   9.3400000000000011E-002     1.1315781645038214E-009
   9.4500000000000028E-002     1.6216226139675882E-009
   9.5600000000000018E-002     1.5559633581574417E-009
   9.6700000000000008E-002     1.3827485823014740E-009
   9.7800000000000026E-002     1.0840524033994825E-009
   9.8900000000000016E-002     8.5705986752060426E-010
  0.10000000000000001          7.3762290719869839E-010
  0.10110000000000002          9.7670438403696380E-010
  0.10220000000000001          1.1620080453411674E-009
  0.10330000000000003          1.2756080636222578E-009
  0.10440000000000002          1.2547636263349204E-009
  0.10550000000000001          7.5440087510258991E-010
  0.10660000000000003          7.0666766882609977E-010
  0.10770000000000002          6.1524002559210089E-010
  0.10880000000000001          8.2386486521812685E-011
  0.10990000000000003         -1.0845966347261538E-009
  0.11100000000000002         -1.4897280076198172E-009
  0.11210000000000001         -1.6797483404218383E-009
  0.11320000000000002         -1.4843613005410816E-009
  0.11430000000000001         -8.0497430943182735E-010
  0.11540000000000003          1.9707932508161718E-010
  0.11650000000000002          6.4342925432114839E-010
  0.11760000000000001         -1.1125766974373619E-010
  0.11870000000000003         -2.1924626558700311E-009
  0.11980000000000002         -3.9330756429478697E-009
  0.12090000000000001         -3.3791702769292442E-009
  0.12200000000000003          1.8629009446158307E-010
  0.12310000000000001          4.8093800053550240E-009
  0.12420000000000003          6.3850635889650675E-009
  0.12530000000000002          4.4651917718852019E-009
  0.12640000000000001          5.7346816184633553E-010
  0.12750000000000003         -1.7587000744612169E-009
  0.12860000000000002         -1.1330908433748732E-009
  0.12970000000000001          9.2659230288560934E-010
  0.13080000000000003          1.7673127405970490E-009
  0.13190000000000002          8.0478068653633272E-011
  0.13300000000000001         -2.1441344255634931E-009
  0.13410000000000000         -2.2176360747749868E-009
  0.13520000000000004          2.3641744117952612E-010
  0.13630000000000003          3.3178784164533681E-009
  0.13740000000000002          3.9614138636068219E-009
  0.13850000000000001          5.3576476588546029E-010
  0.13960000000000000         -4.3598098464769919E-009
  0.14070000000000005         -6.6740515336505268E-009
  0.14180000000000004         -4.3813308536755358E-009
  0.14290000000000003          8.0426887372198053E-011
  0.14400000000000002          2.7137407876409725E-009
  0.14510000000000001          1.8156476322417348E-009
  0.14620000000000000         -2.6555641019498921E-010
  0.14730000000000004         -7.0168093557754219E-011
  0.14840000000000003          3.4415159611000945E-009
  0.14950000000000002          7.2400152539842111E-009
  0.15060000000000001          7.3278485501759860E-009
  0.15170000000000000          3.2030895713575092E-009
  0.15280000000000005         -1.5311505396908842E-009
  0.15390000000000004         -2.4650954610905274E-009
  0.15500000000000003          1.0824404705900292E-009
  0.15610000000000002          5.2932351835011104E-009
  0.15720000000000001          5.6768456602185324E-009
  0.15830000000000000          1.9285306684935222E-009
  0.15940000000000004         -1.8735624163213060E-009
  0.16050000000000003         -1.3420635713856655E-009
  0.16160000000000002          3.5947309573458597E-009
  0.16270000000000001          8.3320994548330418E-009
  0.16380000000000000          7.7482704696762994E-009
  0.16490000000000005          1.5973218303599879E-009
  0.16600000000000004         -5.2437751918432696E-009
  0.16710000000000003         -7.1910961629839676E-009
  0.16820000000000002         -3.3931584209057064E-009
  0.16930000000000001          1.2159273587997177E-009
  0.17040000000000000          1.0477547718323876E-009
  0.17150000000000004         -4.4533798870816099E-009
  0.17260000000000003         -1.0178588638609654E-008
  0.17370000000000002         -1.0427427810100198E-008
  0.17480000000000001         -4.7696762095483791E-009
  0.17590000000000000          1.7395568319145127E-009
  0.17700000000000005          3.2116049819563841E-009
  0.17810000000000004         -1.1422720547216159E-009
  0.17920000000000003         -6.3565930297215800E-009
  0.18030000000000002         -6.6592109604357574E-009
  0.18140000000000001         -1.2793113235431974E-009
  0.18250000000000000          4.4411803123978189E-009
  0.18360000000000004          5.3037467750982614E-009
  0.18470000000000003          1.0215732704210723E-009
  0.18580000000000002         -3.8880076935754460E-009
  0.18690000000000001         -4.7463304397865613E-009
  0.18800000000000000         -1.1769498708957826E-009
  0.18910000000000005          3.1632454433605517E-009
  0.19020000000000004          4.1692196361964307E-009
  0.19130000000000003          1.8588979244782422E-009
  0.19240000000000002         -5.2312759679651322E-010
  0.19350000000000001         -4.8515358397338559E-010
  0.19460000000000005          7.8970902039898760E-010
  0.19570000000000004         -1.4835466188856117E-011
  0.19680000000000003         -4.1804906203424252E-009
  0.19790000000000002         -8.6777749430666518E-009
  0.19900000000000001         -9.1686152003944699E-009
  0.20010000000000000         -5.0704196397077794E-009
  0.20120000000000005         -8.4890622309430341E-011
  0.20230000000000004          1.0913794312727987E-009
  0.20340000000000003         -2.1242017034239780E-009
  0.20450000000000002         -5.2949680195979454E-009
  0.20560000000000000         -3.8363645593619822E-009
  0.20670000000000005          1.6376457967481883E-009
  0.20780000000000004          5.4176565456032222E-009
  0.20890000000000003          2.4216675331700799E-009
