 -0.12000000000000000          0.0000000000000000
 -0.11889999999999999          0.0000000000000000
 -0.11780000000000000          0.0000000000000000
 -0.11670000000000000          0.0000000000000000
 -0.11559999999999999          0.0000000000000000
 -0.11449999999999999          0.0000000000000000
 -0.11340000000000000          0.0000000000000000
 -0.11230000000000000         -1.2737134297568282E-025
 -0.11119999999999999          1.8150415418773550E-024
 -0.11009999999999999         -2.1016272145655490E-024
 -0.10900000000000000         -1.0603664761867294E-023
 -0.10790000000000000         -3.1333350051543231E-023
 -0.10679999999999999          2.1302859001635041E-023
 -0.10569999999999999          6.5787301315508708E-023
 -0.10460000000000000          2.8961057876192568E-022
 -0.10349999999999999          7.7429042973141350E-022
 -0.10239999999999999          8.0247131805629442E-022
 -0.10130000000000000         -1.8105198385002824E-021
 -0.10020000000000000         -6.2495066436868951E-021
  -9.9099999999999994E-002    -6.5147888783495497E-021
  -9.7999999999999990E-002    -1.5629414095992151E-021
  -9.6899999999999986E-002     1.5910019366826210E-020
  -9.5799999999999996E-002     3.9643535585398831E-020
  -9.4699999999999993E-002     5.7116498179359782E-020
  -9.3599999999999989E-002     1.0940468496211072E-020
  -9.2499999999999999E-002    -8.5320009570876601E-020
  -9.1399999999999995E-002    -2.2749123791372781E-019
  -9.0299999999999991E-002    -3.1749115104709388E-019
  -8.9200000000000002E-002    -2.7393254377308743E-019
  -8.8099999999999984E-002     3.0386019682919739E-019
  -8.6999999999999994E-002     1.1153802641338532E-018
  -8.5899999999999990E-002     1.5930040691941688E-018
  -8.4799999999999986E-002     1.0021595042003512E-018
  -8.3699999999999997E-002    -9.2427031656597988E-019
  -8.2599999999999993E-002    -3.3849345291545308E-018
  -8.1499999999999989E-002    -5.5784816492295483E-018
  -8.0399999999999999E-002    -5.1008580509643858E-018
  -7.9299999999999995E-002    -3.4936117927784321E-019
  -7.8199999999999992E-002     8.1417749875981659E-018
  -7.7100000000000002E-002     1.5564442164034582E-017
  -7.5999999999999984E-002     1.2035310822162817E-017
  -7.4899999999999994E-002    -1.1100358501961480E-018
  -7.3799999999999991E-002    -1.7460786805536900E-017
  -7.2699999999999987E-002    -2.9537666762202957E-017
  -7.1599999999999997E-002    -2.9861392166731710E-017
  -7.0499999999999993E-002    -1.6295032896459793E-017
  -6.9399999999999989E-002     1.8640693774894790E-017
  -6.8300000000000000E-002     5.8785198270191715E-017
  -6.7199999999999996E-002     8.3971153856536899E-017
  -6.6099999999999992E-002     7.2829189824125226E-017
  -6.5000000000000002E-002     3.9115832611693330E-017
  -6.3899999999999985E-002     3.2655378319725548E-018
  -6.2799999999999995E-002    -3.2584755293386995E-017
  -6.1699999999999991E-002    -8.7667479906901558E-017
  -6.0599999999999994E-002    -1.8976280287663063E-016
  -5.9499999999999990E-002    -2.1492841643735191E-016
  -5.8399999999999994E-002    -1.1187783220902210E-016
  -5.7299999999999990E-002     1.9792137128502485E-016
  -5.6199999999999986E-002     6.0174581119617023E-016
  -5.5099999999999996E-002     8.9444953400424085E-016
  -5.3999999999999992E-002     7.8540918275918185E-016
  -5.2899999999999989E-002     1.7205182040557604E-016
  -5.1799999999999985E-002    -8.5159729016969854E-016
  -5.0699999999999995E-002    -1.8666986206973156E-015
  -4.9599999999999991E-002    -2.2278973980873092E-015
  -4.8499999999999988E-002    -1.4522459290013784E-015
  -4.7399999999999998E-002     5.3718559523115790E-016
  -4.6299999999999994E-002     3.1292329923153723E-015
  -4.5199999999999990E-002     4.8408627502600013E-015
  -4.4099999999999986E-002     4.1591236239811678E-015
  -4.2999999999999997E-002     5.5405536810647056E-016
  -4.1899999999999993E-002    -4.6921805159296122E-015
  -4.0799999999999989E-002    -8.7588272003119236E-015
  -3.9699999999999985E-002    -8.9618923379878278E-015
  -3.8599999999999995E-002    -4.5491750964117214E-015
  -3.7499999999999992E-002     2.4962476001728386E-015
  -3.6399999999999988E-002     8.6697998023907603E-015
  -3.5299999999999984E-002     1.1304585570317671E-014
  -3.4199999999999994E-002     1.0229649091242181E-014
  -3.3099999999999991E-002     6.6331268684096875E-015
  -3.1999999999999987E-002     8.9966831575051141E-016
  -3.0899999999999997E-002    -7.4664954801588815E-015
  -2.9799999999999993E-002    -1.7166108622459000E-014
  -2.8699999999999989E-002    -2.3036331550001579E-014
  -2.7599999999999986E-002    -1.6837136272338481E-014
  -2.6499999999999996E-002     4.0983739974876157E-015
  -2.5399999999999992E-002     3.0572824138855662E-014
  -2.4299999999999988E-002     4.2687058857300564E-014
  -2.3199999999999985E-002     2.4713226392603441E-014
  -2.2099999999999995E-002    -1.8151645009116535E-014
  -2.0999999999999991E-002    -5.2605533454709932E-014
  -1.9899999999999987E-002    -4.3739439696023619E-014
  -1.8799999999999983E-002     7.3867134468569989E-015
  -1.7699999999999994E-002     4.7571752174449186E-014
  -1.6599999999999990E-002    -4.5655075857006788E-017
  -1.5499999999999986E-002    -1.4818455165190036E-013
  -1.4399999999999996E-002    -2.9714403680658474E-013
  -1.3299999999999992E-002    -2.9374850533774033E-013
  -1.2199999999999989E-002    -6.2504241691262175E-014
  -1.1099999999999985E-002     2.6173949617923353E-013
  -9.9999999999999950E-003     3.7454617857722583E-013
  -8.8999999999999913E-003     3.4390703175860016E-014
  -7.7999999999999875E-003    -6.4658055385496960E-013
  -6.6999999999999837E-003    -1.1853173607564993E-012
  -5.5999999999999939E-003    -1.0085051283664770E-012
  -4.4999999999999901E-003     1.5149421430868393E-014
  -3.3999999999999864E-003     1.3407788334446336E-012
  -2.2999999999999826E-003     2.0865290831922900E-012
  -1.1999999999999927E-003     1.5390395121522848E-012
  -9.9999999999988987E-005    -2.6011370791653721E-013
   1.0000000000000148E-003    -2.4619002583076144E-012
   2.1000000000000185E-003    -4.0159728841027142E-012
   3.2000000000000084E-003    -4.3052523351905236E-012
   4.3000000000000121E-003    -2.9927523133299605E-012
   5.4000000000000159E-003    -6.4741121534941937E-013
   6.5000000000000058E-003     2.2055976836576896E-012
   7.6000000000000234E-003     4.4634096765805431E-012
   8.7000000000000133E-003     4.9531377263600795E-012
   9.8000000000000032E-003     3.3246656296059829E-012
   1.0900000000000021E-002     1.5211354311567282E-012
   1.2000000000000011E-002     5.9289444014065662E-013
   1.3100000000000001E-002     2.2204978741141579E-012
   1.4200000000000018E-002     7.0341545088670188E-012
   1.5300000000000008E-002     1.2793124198884342E-011
   1.6400000000000026E-002     1.4980912343975916E-011
   1.7500000000000016E-002     8.6258777898251537E-012
   1.8600000000000005E-002    -5.7117938850881345E-012
   1.9700000000000023E-002    -2.0469606912265625E-011
   2.0800000000000013E-002    -2.6964687427355472E-011
   2.1900000000000003E-002    -1.9035002740697138E-011
   2.3000000000000020E-002     2.1990777254732308E-012
   2.4100000000000010E-002     2.6374132044981735E-011
   2.5200000000000000E-002     4.1446172882597665E-011
   2.6300000000000018E-002     3.7191829477256633E-011
   2.7400000000000008E-002     2.1453692988782080E-011
   2.8500000000000025E-002     1.2717870159772993E-011
   2.9600000000000015E-002     2.0787600807370410E-011
   3.0700000000000005E-002     3.6980016271392913E-011
   3.1800000000000023E-002     3.1325213256661044E-011
   3.2900000000000013E-002    -9.8106418822130337E-014
   3.4000000000000002E-002    -3.4882537830460691E-011
   3.5100000000000020E-002    -4.8379935474462954E-011
   3.6200000000000010E-002    -2.6025485586056440E-011
   3.7300000000000028E-002     1.3694705092159865E-011
   3.8400000000000017E-002     4.1090825186884672E-011
   3.9500000000000007E-002     2.1431398322668826E-011
   4.0600000000000025E-002    -4.1922465499055761E-011
   4.1700000000000015E-002    -1.4897076627828909E-010
   4.2800000000000005E-002    -2.4145427324206992E-010
   4.3900000000000022E-002    -2.8240074168017770E-010
   4.5000000000000012E-002    -2.6732868696477396E-010
   4.6100000000000002E-002    -1.8503443222073201E-010
   4.7200000000000020E-002    -1.2290685136306934E-010
   4.8300000000000010E-002    -8.7668150516861942E-011
   4.9400000000000027E-002    -1.0844795200748436E-010
   5.0500000000000017E-002    -1.8748699814885583E-010
   5.1600000000000007E-002    -3.4271122051343639E-010
   5.2700000000000025E-002    -4.5312065211078334E-010
   5.3800000000000014E-002    -4.2684492052025291E-010
   5.4900000000000004E-002    -2.5716179186119348E-010
   5.6000000000000022E-002    -2.3305281315888493E-012
   5.7100000000000012E-002     2.6146371179258665E-010
   5.8200000000000002E-002     4.1322092969586777E-010
   5.9300000000000019E-002     4.1260778127494291E-010
   6.0400000000000009E-002     2.8203170354679230E-010
   6.1500000000000027E-002    -9.9507319051284071E-011
   6.2600000000000017E-002    -5.9308336020080787E-010
   6.3700000000000007E-002    -1.0194372013216935E-009
   6.4800000000000024E-002    -1.2844576513515449E-009
   6.5900000000000014E-002    -1.1551077871985171E-009
   6.7000000000000004E-002    -9.0475799074951624E-010
   6.8100000000000022E-002    -7.1714889582352725E-010
   6.9200000000000012E-002    -5.4298426865884153E-010
   7.0300000000000029E-002    -4.5396775227857233E-010
   7.1400000000000019E-002    -2.8876609436956358E-010
   7.2500000000000009E-002    -1.8182366723351606E-010
   7.3600000000000027E-002    -4.3510882397068684E-011
   7.4700000000000016E-002     2.7579681594058769E-011
   7.5800000000000006E-002     5.8336918629109391E-011
   7.6900000000000024E-002     1.5631637650947994E-010
   7.8000000000000014E-002     2.5429580663427487E-010
   7.9100000000000004E-002     5.0016407682207387E-010
   8.0200000000000021E-002     5.3540277766828126E-010
   8.1300000000000011E-002     5.2134524475277999E-010
   8.2400000000000029E-002     6.1036176113304919E-010
   8.3500000000000019E-002     7.1282268976347041E-010
   8.4600000000000009E-002     8.0183915063258837E-010
   8.5700000000000026E-002     5.4578164210283830E-010
   8.6800000000000016E-002     6.6860406100488490E-013
   8.7900000000000006E-002    -7.7972217571442570E-010
   8.9000000000000024E-002    -1.6923165091498049E-009
   9.0100000000000013E-002    -1.9601378298261807E-009
   9.1200000000000003E-002    -1.3647840635400144E-009
   9.2300000000000021E-002    -7.2559985797582272E-011
   9.3400000000000011E-002     1.2622383138705118E-009
   9.4500000000000028E-002     2.1578514530773418E-009
   9.5600000000000018E-002     2.2960944257022220E-009
   9.6700000000000008E-002     1.8607075880083812E-009
   9.7800000000000026E-002     9.0546903308563742E-010
   9.8900000000000016E-002    -2.1110276027247465E-010
  0.10000000000000001         -1.2918227598746057E-009
  0.10110000000000002         -1.8885428776371782E-009
  0.10220000000000001         -1.7054853085340937E-009
  0.10330000000000003         -6.3509453251953119E-010
  0.10440000000000002          5.5181476055210510E-010
  0.10550000000000001          9.8583541330299340E-010
  0.10660000000000003          2.9052288352815481E-010
  0.10770000000000002         -1.5161968347499055E-009
  0.10880000000000001         -3.0002500484016537E-009
  0.10990000000000003         -2.7096369592527481E-009
  0.11100000000000002         -9.4909813341814697E-010
  0.11210000000000001          9.7277408350748829E-010
  0.11320000000000002          1.7294612408846888E-009
  0.11430000000000001          5.1429682734749349E-010
  0.11540000000000003         -2.0990895688299815E-009
  0.11650000000000002         -4.3898094048699932E-009
  0.11760000000000001         -4.6011221499497879E-009
  0.11870000000000003         -3.1273974521184300E-009
  0.11980000000000002         -1.7970802623779036E-009
  0.12090000000000001         -9.6868901788838002E-010
  0.12200000000000003         -1.3951122479483047E-009
  0.12310000000000001         -1.4271652748476527E-009
  0.12420000000000003         -5.2707027631271330E-010
  0.12530000000000002          2.0580614989995638E-009
  0.12640000000000001          4.2846748371516696E-009
  0.12750000000000003          3.3921772057965427E-009
  0.12860000000000002         -2.9676450186144621E-010
  0.12970000000000001         -3.5554843513807555E-009
  0.13080000000000003         -3.3365750162772656E-009
  0.13190000000000002          6.8263017460878928E-010
  0.13300000000000001          4.1282057772207281E-009
  0.13410000000000000          2.3035602314536163E-009
  0.13520000000000004         -2.5326405417303022E-009
  0.13630000000000003         -6.2932858924114043E-009
  0.13740000000000002         -6.7197101216720512E-009
  0.13850000000000001         -5.8554676662936345E-009
  0.13960000000000000         -5.3676698641424991E-009
  0.14070000000000005         -6.1884639634968153E-009
  0.14180000000000004         -6.4356289186662252E-009
  0.14290000000000003         -5.6789417612890247E-009
  0.14400000000000002         -3.2282549966566876E-009
  0.14510000000000001          4.7724652008085400E-010
  0.14620000000000000          4.6801926778528014E-009
  0.14730000000000004          8.1123241457703443E-009
  0.14840000000000003          8.5508267133604932E-009
  0.14950000000000002          6.4438476776729203E-009
  0.15060000000000001          3.4584979324847609E-009
  0.15170000000000000          1.3694442246858785E-009
  0.15280000000000005         -3.2523905790782237E-010
  0.15390000000000004         -1.8048111893875785E-009
  0.15500000000000003         -1.5634947780895914E-009
  0.15610000000000002          7.5722872416861264E-010
  0.15720000000000001          3.4364708856315929E-009
  0.15830000000000000          3.5343801219056559E-009
  0.15940000000000004          8.3584550392146184E-010
  0.16050000000000003         -3.7269849428867019E-009
  0.16160000000000002         -6.7123346880748613E-009
  0.16270000000000001         -5.3954622991625456E-009
  0.16380000000000000         -3.0747384638374342E-009
  0.16490000000000005         -5.6298659067977042E-009
  0.16600000000000004         -1.2558918349725445E-008
  0.16710000000000003         -1.7480267899827595E-008
  0.16820000000000002         -1.3295249345901539E-008
  0.16930000000000001          3.5465719250282746E-010
  0.17040000000000000          1.4506489343091289E-008
  0.17150000000000004          1.7042323108285018E-008
  0.17260000000000003          4.6637911310654090E-009
  0.17370000000000002         -1.0439481279433949E-008
  0.17480000000000001         -1.6292979410081898E-008
  0.17590000000000000         -1.0673884887069107E-008
  0.17700000000000005         -1.6847152561894063E-009
  0.17810000000000004          2.8588256206774076E-009
  0.17920000000000003          1.6885381981524006E-011
  0.18030000000000002         -1.9646104743031856E-009
  0.18140000000000001          3.2242626346601355E-009
  0.18250000000000000          1.6766616539598544E-008
  0.18360000000000004          2.8839044929895863E-008
  0.18470000000000003          2.4043181667821045E-008
  0.18580000000000002          3.2439482211543691E-009
  0.18690000000000001         -1.7575452204710018E-008
  0.18800000000000000         -2.1885078638206323E-008
  0.18910000000000005         -7.0408523455967043E-009
  0.19020000000000004          1.0079965306886152E-008
  0.19130000000000003          1.3971451551242353E-008
  0.19240000000000002          4.0958303415550290E-009
  0.19350000000000001         -3.6286798010820576E-009
  0.19460000000000005          3.8838448013223115E-009
  0.19570000000000004          2.1327331012344075E-008
  0.19680000000000003          2.6975559563879870E-008
  0.19790000000000002          1.2044829134083557E-008
  0.19900000000000001         -1.0414788143009446E-008
  0.20010000000000000         -1.9143149287970118E-008
  0.20120000000000005         -5.3565525348631127E-009
  0.20230000000000004          1.5887227533539772E-008
  0.20340000000000003          2.3220490419362250E-008
  0.20450000000000002          9.7955341615829639E-009
  0.20560000000000000         -8.9713472206653933E-009
  0.20670000000000005         -1.2680454020141951E-008
  0.20780000000000004          3.8308813898879635E-009
  0.20890000000000003          2.3102810331465662E-008
