 -0.12000000000000000          0.0000000000000000
 -0.11889999999999999          0.0000000000000000
 -0.11780000000000000          0.0000000000000000
 -0.11670000000000000          0.0000000000000000
 -0.11559999999999999          0.0000000000000000
 -0.11449999999999999          0.0000000000000000
 -0.11340000000000000          0.0000000000000000
 -0.11230000000000000          6.9002062530678170E-019
 -0.11119999999999999         -5.0525722098872153E-018
 -0.11009999999999999         -6.7620929815246343E-017
 -0.10900000000000000         -2.6534858201825618E-016
 -0.10790000000000000         -3.9656536755317603E-016
 -0.10679999999999999          5.5514126434485058E-016
 -0.10569999999999999          3.9409580064380875E-015
 -0.10460000000000000          8.2768688414560157E-015
 -0.10349999999999999          5.2698874791431462E-015
 -0.10239999999999999         -1.6584044521764790E-014
 -0.10130000000000000         -5.3812673989159926E-014
 -0.10020000000000000         -6.8077176383109228E-014
  -9.9099999999999994E-002    -1.8195453553148527E-015
  -9.7999999999999990E-002     1.4874826901895705E-013
  -9.6899999999999986E-002     2.6036274915555713E-013
  -9.5799999999999996E-002     1.3868595128644495E-013
  -9.4699999999999993E-002    -2.4241649269549082E-013
  -9.3599999999999989E-002    -5.2204383394274800E-013
  -9.2499999999999999E-002    -1.4760469322500080E-013
  -9.1399999999999995E-002     8.9502027750959501E-013
  -9.0299999999999991E-002     1.4510940192502542E-012
  -8.9200000000000002E-002    -2.0848942147363991E-013
  -8.8099999999999984E-002    -4.2414791297240573E-012
  -8.6999999999999994E-002    -7.2559254611637147E-012
  -8.5899999999999990E-002    -3.5603685798191176E-012
  -8.4799999999999986E-002     9.1895440909595116E-012
  -8.3699999999999997E-002     2.3848345173660412E-011
  -8.2599999999999993E-002     2.4786225155670749E-011
  -8.1499999999999989E-002     1.5934302488584962E-013
  -8.0399999999999999E-002    -4.1677879897283887E-011
  -7.9299999999999995E-002    -6.8485848936372662E-011
  -7.8199999999999992E-002    -4.5271252024914332E-011
  -7.7100000000000002E-002     2.9692248659785037E-011
  -7.5999999999999984E-002     1.0643350784045325E-010
  -7.4899999999999994E-002     1.1172175684581731E-010
  -7.3799999999999991E-002     1.5425386662437646E-011
  -7.2699999999999987E-002    -1.2038205154940584E-010
  -7.1599999999999997E-002    -1.7017479092551469E-010
  -7.0499999999999993E-002    -5.2796537974852953E-011
  -6.9399999999999989E-002     1.6583345807674732E-010
  -6.8300000000000000E-002     2.8691060638408317E-010
  -6.7199999999999996E-002     1.3869178028258489E-010
  -6.6099999999999992E-002    -2.3360613443657030E-010
  -6.5000000000000002E-002    -5.3637438934828197E-010
  -6.3899999999999985E-002    -4.4100981200223544E-010
  -6.2799999999999995E-002     9.7844593538454205E-011
  -6.1699999999999991E-002     7.1087968844807392E-010
  -6.0599999999999994E-002     8.5679330297239176E-010
  -5.9499999999999990E-002     2.9974112081276871E-010
  -5.8399999999999994E-002    -5.9136134877846303E-010
  -5.7299999999999990E-002    -1.0607624778558034E-009
  -5.6199999999999986E-002    -6.0656923928092965E-010
  -5.5099999999999996E-002     4.9009341029915277E-010
  -5.3999999999999992E-002     1.2857174214175870E-009
  -5.2899999999999989E-002     9.5341057271269847E-010
  -5.1799999999999985E-002    -4.1328535038687164E-010
  -5.0699999999999995E-002    -1.7413608333072261E-009
  -4.9599999999999991E-002    -1.8367041221267755E-009
  -4.8499999999999988E-002    -4.6945514142748834E-010
  -4.7399999999999998E-002     1.3209946470027489E-009
  -4.6299999999999994E-002     2.0831594227388450E-009
  -4.5199999999999990E-002     1.2714864716656393E-009
  -4.4099999999999986E-002    -2.0481261131521933E-010
  -4.2999999999999997E-002    -8.1020223863248475E-010
  -4.1899999999999993E-002     9.9064090264278093E-011
  -4.0799999999999989E-002     1.5121159879782908E-009
  -3.9699999999999985E-002     1.6017833726067465E-009
  -3.8599999999999995E-002    -4.9661375012277631E-010
  -3.7499999999999992E-002    -3.6303153816419353E-009
  -3.6399999999999988E-002    -5.4091557899482723E-009
  -3.5299999999999984E-002    -4.2275312139850030E-009
  -3.4199999999999994E-002    -6.8202488101576364E-010
  -3.3099999999999991E-002     2.9752376118352686E-009
  -3.1999999999999987E-002     4.8444093181387871E-009
  -3.0899999999999997E-002     4.8926018791917159E-009
  -2.9799999999999993E-002     4.4836601098552364E-009
  -2.8699999999999989E-002     4.4517465269677814E-009
  -2.7599999999999986E-002     3.8258569645677198E-009
  -2.6499999999999996E-002     7.5049011449834779E-010
  -2.5399999999999992E-002    -5.1416799706771599E-009
  -2.4299999999999988E-002    -1.1380818065731546E-008
  -2.3199999999999985E-002    -1.4063147979470614E-008
  -2.2099999999999995E-002    -1.1026729751506537E-008
  -2.0999999999999991E-002    -3.8113987521626314E-009
  -1.9899999999999987E-002     3.6871390385329050E-009
  -1.8799999999999983E-002     8.7839540086065426E-009
  -1.7699999999999994E-002     1.2354032463690601E-008
  -1.6599999999999990E-002     1.7544255825896471E-008
  -1.5499999999999986E-002     2.6072790149100911E-008
  -1.4399999999999996E-002     3.6021997829038810E-008
  -1.3299999999999992E-002     4.3818292994046715E-008
  -1.2199999999999989E-002     4.8868333379914475E-008
  -1.1099999999999985E-002     5.6236057588421318E-008
  -9.9999999999999950E-003     7.4180192655148858E-008
  -8.8999999999999913E-003     1.0830926555627229E-007
  -7.7999999999999875E-003     1.5777558814988879E-007
  -6.6999999999999837E-003     2.1740889621923998E-007
  -5.5999999999999939E-003     2.8408692287484882E-007
  -4.4999999999999901E-003     3.6135187997388130E-007
  -3.3999999999999864E-003     4.5777946411362791E-007
  -2.2999999999999826E-003     5.8074459730050876E-007
  -1.1999999999999927E-003     7.3202096473323763E-007
  -9.9999999999988987E-005     9.1011730773971067E-007
   1.0000000000000148E-003     1.1176055068062851E-006
   2.1000000000000185E-003     1.3664712241734378E-006
   3.2000000000000084E-003     1.6761417782618082E-006
   4.3000000000000121E-003     2.0659927031374536E-006
   5.4000000000000159E-003     2.5496992748230696E-006
   6.5000000000000058E-003     3.1370645956485532E-006
   7.6000000000000234E-003     3.8414505070250016E-006
   8.7000000000000133E-003     4.6853101594024338E-006
   9.8000000000000032E-003     5.6984627008205280E-006
   1.0900000000000021E-002     6.9116263148316648E-006
   1.2000000000000011E-002     8.3531458585639484E-006
   1.3100000000000001E-002     1.0053830919787288E-005
   1.4200000000000018E-002     1.2056208106514532E-005
   1.5300000000000008E-002     1.4419274521060288E-005
   1.6400000000000026E-002     1.7213913451996632E-005
   1.7500000000000016E-002     2.0513798517640680E-005
   1.8600000000000005E-002     2.4391745682805777E-005
   1.9700000000000023E-002     2.8926278901053593E-005
   2.0800000000000013E-002     3.4212411264888942E-005
   2.1900000000000003E-002     4.0365743188885972E-005
   2.3000000000000020E-002     4.7515663027297705E-005
   2.4100000000000010E-002     5.5795379012124613E-005
   2.5200000000000000E-002     6.5341075242031366E-005
   2.6300000000000018E-002     7.6303869718685746E-005
   2.7400000000000008E-002     8.8864610006567091E-005
   2.8500000000000025E-002     1.0323690366931260E-004
   2.9600000000000015E-002     1.1965446901740506E-004
   3.0700000000000005E-002     1.3835476420354098E-004
   3.1800000000000023E-002     1.5957595314830542E-004
   3.2900000000000013E-002     1.8357124645262957E-004
   3.4000000000000002E-002     2.1062744781374931E-004
   3.5100000000000020E-002     2.4106810451485217E-004
   3.6200000000000010E-002     2.7523696189746261E-004
   3.7300000000000028E-002     3.1347665935754776E-004
   3.8400000000000017E-002     3.5612320061773062E-004
   3.9500000000000007E-002     4.0352181531488895E-004
   4.0600000000000025E-002     4.5604625483974814E-004
   4.1700000000000015E-002     5.1409989828243852E-004
   4.2800000000000005E-002     5.7809287682175636E-004
   4.3900000000000022E-002     6.4841512357816100E-004
   4.5000000000000012E-002     7.2542909765616059E-004
   4.6100000000000002E-002     8.0948596587404609E-004
   4.7200000000000020E-002     9.0094486949965358E-004
   4.8300000000000010E-002     1.0001690825447440E-003
   4.9400000000000027E-002     1.1074951617047191E-003
   5.0500000000000017E-002     1.2231991859152913E-003
   5.1600000000000007E-002     1.3474888401106000E-003
   5.2700000000000025E-002     1.4805238461121917E-003
   5.3800000000000014E-002     1.6224374994635582E-003
   5.4900000000000004E-002     1.7733298009261489E-003
   5.6000000000000022E-002     1.9332279916852713E-003
   5.7100000000000012E-002     2.1020453423261642E-003
   5.8200000000000002E-002     2.2795738186687231E-003
   5.9300000000000019E-002     2.4655095767229795E-003
   6.0400000000000009E-002     2.6594826485961676E-003
   6.1500000000000027E-002     2.8610511217266321E-003
   6.2600000000000017E-002     3.0696601606905460E-003
   6.3700000000000007E-002     3.2846003305166960E-003
   6.4800000000000024E-002     3.5050055012106895E-003
   6.5900000000000014E-002     3.7298894021660089E-003
   6.7000000000000004E-002     3.9581833407282829E-003
   6.8100000000000022E-002     4.1887308470904827E-003
   6.9200000000000012E-002     4.4202469289302826E-003
   7.0300000000000029E-002     4.6512763947248459E-003
   7.1400000000000019E-002     4.8802071250975132E-003
   7.2500000000000009E-002     5.1053212955594063E-003
   7.3600000000000027E-002     5.3248461335897446E-003
   7.4700000000000016E-002     5.5369595065712929E-003
   7.5800000000000006E-002     5.7397475466132164E-003
   7.6900000000000024E-002     5.9311650693416595E-003
   7.8000000000000014E-002     6.1090476810932159E-003
   7.9100000000000004E-002     6.2711746431887150E-003
   8.0200000000000021E-002     6.4153289422392845E-003
   8.1300000000000011E-002     6.5393005497753620E-003
   8.2400000000000029E-002     6.6408440470695496E-003
   8.3500000000000019E-002     6.7176404409110546E-003
   8.4600000000000009E-002     6.7673134617507458E-003
   8.5700000000000026E-002     6.7874942906200886E-003
   8.6800000000000016E-002     6.7758783698081970E-003
   8.7900000000000006E-002     6.7302198149263859E-003
   8.9000000000000024E-002     6.6482713446021080E-003
   9.0100000000000013E-002     6.5277367830276489E-003
   9.1200000000000003E-002     6.3662845641374588E-003
   9.2300000000000021E-002     6.1616124585270882E-003
   9.3400000000000011E-002     5.9114983305335045E-003
   9.4500000000000028E-002     5.6137843057513237E-003
   9.5600000000000018E-002     5.2663050591945648E-003
   9.6700000000000008E-002     4.8668337985873222E-003
   9.7800000000000026E-002     4.4130925089120865E-003
   9.8900000000000016E-002     3.9028236642479897E-003
  0.10000000000000001          3.3338470384478569E-003
  0.10110000000000002          2.7040478307753801E-003
  0.10220000000000001          2.0113147329539061E-003
  0.10330000000000003          1.2534935958683491E-003
  0.10440000000000002          4.2842514812946320E-004
  0.10550000000000001         -4.6596003812737763E-004
  0.10660000000000003         -1.4315599109977484E-003
  0.10770000000000002         -2.4700884241610765E-003
  0.10880000000000001         -3.5831085406243801E-003
  0.10990000000000003         -4.7720316797494888E-003
  0.11100000000000002         -6.0380287468433380E-003
  0.11210000000000001         -7.3818876408040524E-003
  0.11320000000000002         -8.8038817048072815E-003
  0.11430000000000001         -1.0303718969225883E-002
  0.11540000000000003         -1.1880536563694477E-002
  0.11650000000000002         -1.3532868586480618E-002
  0.11760000000000001         -1.5258516184985638E-002
  0.11870000000000003         -1.7054365947842598E-002
  0.11980000000000002         -1.8916245549917221E-002
  0.12090000000000001         -2.0838858559727669E-002
  0.12200000000000003         -2.2815778851509094E-002
  0.12310000000000001         -2.4839412420988083E-002
  0.12420000000000003         -2.6900911703705788E-002
  0.12530000000000002         -2.8990017250180244E-002
  0.12640000000000001         -3.1094985082745552E-002
  0.12750000000000003         -3.3202599734067917E-002
  0.12860000000000002         -3.5298272967338562E-002
  0.12970000000000001         -3.7366099655628204E-002
  0.13080000000000003         -3.9388880133628845E-002
  0.13190000000000002         -4.1348122060298920E-002
  0.13300000000000001         -4.3224100023508072E-002
  0.13410000000000000         -4.4996071606874466E-002
  0.13520000000000004         -4.6642515808343887E-002
  0.13630000000000003         -4.8141386359930038E-002
  0.13740000000000002         -4.9470294266939163E-002
  0.13850000000000001         -5.0606731325387955E-002
  0.13960000000000000         -5.1528304815292358E-002
  0.14070000000000005         -5.2213091403245926E-002
  0.14180000000000004         -5.2640054374933243E-002
  0.14290000000000003         -5.2789401262998581E-002
  0.14400000000000002         -5.2642904222011566E-002
  0.14510000000000001         -5.2184171974658966E-002
  0.14620000000000000         -5.1398992538452148E-002
  0.14730000000000004         -5.0275698304176331E-002
  0.14840000000000003         -4.8805549740791321E-002
  0.14950000000000002         -4.6983025968074799E-002
  0.15060000000000001         -4.4806048274040222E-002
  0.15170000000000000         -4.2276155203580856E-002
  0.15280000000000005         -3.9398632943630219E-002
  0.15390000000000004         -3.6182668060064316E-002
  0.15500000000000003         -3.2641496509313583E-002
  0.15610000000000002         -2.8792394325137138E-002
  0.15720000000000001         -2.4656582623720169E-002
  0.15830000000000000         -2.0259043201804161E-002
  0.15940000000000004         -1.5628322958946228E-002
  0.16050000000000003         -1.0796325281262398E-002
  0.16160000000000002         -5.7980399578809738E-003
  0.16270000000000001         -6.7117059370502830E-004
  0.16380000000000000          4.5443335548043251E-003
  0.16490000000000005          9.8067810758948326E-003
  0.16600000000000004          1.5073236078023911E-002
  0.16710000000000003          2.0300012081861496E-002
  0.16820000000000002          2.5443198159337044E-002
  0.16930000000000001          3.0459249392151833E-002
  0.17040000000000000          3.5305615514516830E-002
  0.17150000000000004          3.9941322058439255E-002
  0.17260000000000003          4.4327490031719208E-002
  0.17370000000000002          4.8427823930978775E-002
  0.17480000000000001          5.2209064364433289E-002
  0.17590000000000000          5.5641435086727142E-002
  0.17700000000000005          5.8699056506156921E-002
  0.17810000000000004          6.1360284686088562E-002
  0.17920000000000003          6.3607946038246155E-002
  0.18030000000000002          6.5429456532001495E-002
  0.18140000000000001          6.6816926002502441E-002
  0.18250000000000000          6.7767240107059479E-002
  0.18360000000000004          6.8282023072242737E-002
  0.18470000000000003          6.8367533385753632E-002
  0.18580000000000002          6.8034455180168152E-002
  0.18690000000000001          6.7297615110874176E-002
  0.18800000000000000          6.6175661981105804E-002
  0.18910000000000005          6.4690776169300079E-002
  0.19020000000000004          6.2868289649486542E-002
  0.19130000000000003          6.0736246407032013E-002
  0.19240000000000002          5.8324865996837616E-002
  0.19350000000000001          5.5666081607341766E-002
  0.19460000000000005          5.2793066948652267E-002
  0.19570000000000004          4.9739781767129898E-002
  0.19680000000000003          4.6540491282939911E-002
  0.19790000000000002          4.3229307979345322E-002
  0.19900000000000001          3.9839718490839005E-002
  0.20010000000000000          3.6404173821210861E-002
  0.20120000000000005          3.2953754067420959E-002
  0.20230000000000004          2.9517872259020805E-002
  0.20340000000000003          2.6123996824026108E-002
  0.20450000000000002          2.2797413170337677E-002
  0.20560000000000000          1.9560983404517174E-002
  0.20670000000000005          1.6435025259852409E-002
  0.20780000000000004          1.3437248766422272E-002
  0.20890000000000003          1.0582757182419300E-002
