 -0.12000000000000000          0.0000000000000000
 -0.11889999999999999          0.0000000000000000
 -0.11780000000000000          0.0000000000000000
 -0.11670000000000000          0.0000000000000000
 -0.11559999999999999          0.0000000000000000
 -0.11449999999999999          0.0000000000000000
 -0.11340000000000000          0.0000000000000000
 -0.11230000000000000          0.0000000000000000
 -0.11119999999999999          0.0000000000000000
 -0.11009999999999999          0.0000000000000000
 -0.10900000000000000          0.0000000000000000
 -0.10790000000000000         -9.8036499692477208E-030
 -0.10679999999999999          1.8561998451913731E-029
 -0.10569999999999999          4.6283466941027955E-028
 -0.10460000000000000          7.7676206886562536E-028
 -0.10349999999999999         -5.8927759397473920E-027
 -0.10239999999999999         -2.3368050653836888E-026
 -0.10130000000000000          2.1006275059315043E-026
 -0.10020000000000000          3.1219022412701813E-025
  -9.9099999999999994E-002     5.9237350170843839E-025
  -9.7999999999999990E-002    -1.1595803683880635E-024
  -9.6899999999999986E-002    -7.4866481333983724E-024
  -9.5799999999999996E-002    -1.0762885291533482E-023
  -9.4699999999999993E-002     2.0716650152078066E-023
  -9.3599999999999989E-002     1.1287035715854169E-022
  -9.2499999999999999E-002     1.5697945787598939E-022
  -9.1399999999999995E-002    -2.0353941689732669E-022
  -9.0299999999999991E-002    -1.2210295547695281E-021
  -8.9200000000000002E-002    -1.8744785097503909E-021
  -8.8099999999999984E-002     9.9176087777945359E-022
  -8.6999999999999994E-002     9.8402132683518424E-021
  -8.5899999999999990E-002     1.7810167940547021E-020
  -8.4799999999999986E-002     2.1646557304559805E-021
  -8.3699999999999997E-002    -5.8833919001475935E-020
  -8.2599999999999993E-002    -1.3243701859311547E-019
  -8.1499999999999989E-002    -8.4132876144892294E-020
  -8.0399999999999999E-002     2.4689350881358920E-019
  -7.9299999999999995E-002     7.6696341492281580E-019
  -7.8199999999999992E-002     8.2620846853812473E-019
  -7.7100000000000002E-002    -5.4975266200523258E-019
  -7.5999999999999984E-002    -3.4154818955858078E-018
  -7.4899999999999994E-002    -5.2616119176176349E-018
  -7.3799999999999991E-002    -1.2633986512810827E-018
  -7.2699999999999987E-002     1.1131576298279232E-017
  -7.1599999999999997E-002     2.4640107371927567E-017
  -7.0499999999999993E-002     1.9771343793136372E-017
  -6.9399999999999989E-002    -2.1581473053753513E-017
  -6.8300000000000000E-002    -8.6903317222135270E-017
  -6.7199999999999996E-002    -1.1277330485294750E-016
  -6.6099999999999992E-002    -1.4215078974389079E-017
  -6.5000000000000002E-002     2.2104621777801450E-016
  -6.3899999999999985E-002     4.3365625209917220E-016
  -6.2799999999999995E-002     3.2033592278097602E-016
  -6.1699999999999991E-002    -3.1773603455871775E-016
  -6.0599999999999994E-002    -1.2134709410604170E-015
  -5.9499999999999990E-002    -1.5188632703579162E-015
  -5.8399999999999994E-002    -3.1188563093159150E-016
  -5.7299999999999990E-002     2.3501195936948948E-015
  -5.6199999999999986E-002     4.6503696991037190E-015
  -5.5099999999999996E-002     3.6740985823397257E-015
  -5.3999999999999992E-002    -2.1156687089496666E-015
  -5.2899999999999989E-002    -1.0074118595533241E-014
  -5.1799999999999985E-002    -1.3220737574365718E-014
  -5.0699999999999995E-002    -4.8121292751067673E-015
  -4.9599999999999991E-002     1.4198360979230003E-014
  -4.8499999999999988E-002     3.1114708384663917E-014
  -4.7399999999999998E-002     2.7458077315762469E-014
  -4.6299999999999994E-002    -5.3039102515355097E-015
  -4.5199999999999990E-002    -5.1189368905800101E-014
  -4.4099999999999986E-002    -7.2304650060219661E-014
  -4.2999999999999997E-002    -3.5369141426419559E-014
  -4.1899999999999993E-002     5.2570693295523468E-014
  -4.0799999999999989E-002     1.3120950994541941E-013
  -3.9699999999999985E-002     1.2131891628450187E-013
  -3.8599999999999995E-002    -5.8303988264944706E-015
  -3.7499999999999992E-002    -1.7775987929888326E-013
  -3.6399999999999988E-002    -2.4822925290789166E-013
  -3.5299999999999984E-002    -1.0967752585040041E-013
  -3.4199999999999994E-002     1.8520573258611756E-013
  -3.3099999999999991E-002     4.1002027077394199E-013
  -3.1999999999999987E-002     3.1715347579078235E-013
  -3.0899999999999997E-002    -1.2754601790964520E-013
  -2.9799999999999993E-002    -6.2641195399185112E-013
  -2.8699999999999989E-002    -7.0929872218739032E-013
  -2.7599999999999986E-002    -1.2199841289105284E-013
  -2.6499999999999996E-002     8.4534609130423877E-013
  -2.5399999999999992E-002     1.4261787280658855E-012
  -2.4299999999999988E-002     9.1899610751150496E-013
  -2.3199999999999985E-002    -6.4100574891437501E-013
  -2.2099999999999995E-002    -2.2580054145904249E-012
  -2.0999999999999991E-002    -2.5463884473220233E-012
  -1.9899999999999987E-002    -8.2257312940259286E-013
  -1.8799999999999983E-002     2.1042772559154432E-012
  -1.7699999999999994E-002     4.2176336208232801E-012
  -1.6599999999999990E-002     3.6751600027140618E-012
  -1.5499999999999986E-002     3.5119726137650131E-013
  -1.4399999999999996E-002    -3.7402433580857597E-012
  -1.3299999999999992E-002    -5.7145338808184398E-012
  -1.2199999999999989E-002    -3.9987874123070810E-012
  -1.1099999999999985E-002     2.7521485524567568E-013
  -9.9999999999999950E-003     3.9680671942710077E-012
  -8.8999999999999913E-003     4.4072115748527985E-012
  -7.7999999999999875E-003     1.7178787689239861E-012
  -6.6999999999999837E-003    -1.0861744446574728E-012
  -5.5999999999999939E-003    -6.8736411961561883E-013
  -4.4999999999999901E-003     3.1840428731111370E-012
  -3.3999999999999864E-003     6.6079958345455214E-012
  -2.2999999999999826E-003     4.1374291145923614E-012
  -1.1999999999999927E-003    -6.2110685518368403E-012
  -9.9999999999988987E-005    -1.9528424016757029E-011
   1.0000000000000148E-003    -2.5606803136235534E-011
   2.1000000000000185E-003    -1.5588540874800216E-011
   3.2000000000000084E-003     1.0433110105012577E-011
   4.3000000000000121E-003     4.0599915790417995E-011
   5.4000000000000159E-003     5.6455014274536808E-011
   6.5000000000000058E-003     4.3910319824647104E-011
   7.6000000000000234E-003     3.3060542151130967E-012
   8.7000000000000133E-003    -4.8394940832530153E-011
   9.8000000000000032E-003    -8.5587335829639954E-011
   1.0900000000000021E-002    -8.7841775520125509E-011
   1.2000000000000011E-002    -5.1147218405045436E-011
   1.3100000000000001E-002     1.0318435342271393E-011
   1.4200000000000018E-002     7.2493101799242510E-011
   1.5300000000000008E-002     1.1370656499698484E-010
   1.6400000000000026E-002     1.2263111359711587E-010
   1.7500000000000016E-002     9.7748739658065631E-011
   1.8600000000000005E-002     4.1617730095477867E-011
   1.9700000000000023E-002    -4.2091254093268304E-011
   2.0800000000000013E-002    -1.4342635412667448E-010
   2.1900000000000003E-002    -2.3631493983877760E-010
   2.3000000000000020E-002    -2.7563748505876617E-010
   2.4100000000000010E-002    -2.1214305312433623E-010
   2.5200000000000000E-002    -2.4271945564535713E-011
   2.6300000000000018E-002     2.5028401573479186E-010
   2.7400000000000008E-002     5.0838094844962711E-010
   2.8500000000000025E-002     6.1599947365209573E-010
   2.9600000000000015E-002     4.7437070938016745E-010
   3.0700000000000005E-002     8.3980031262420596E-011
   3.1800000000000023E-002    -4.3331238597232868E-010
   3.2900000000000013E-002    -8.7401630377570427E-010
   3.4000000000000002E-002    -1.0393922389440036E-009
   3.5100000000000020E-002    -8.2518963884226082E-010
   3.6200000000000010E-002    -2.6948365761114701E-010
   3.7300000000000028E-002     4.6148312948801617E-010
   3.8400000000000017E-002     1.1351886097799024E-009
   3.9500000000000007E-002     1.5280656739946608E-009
   4.0600000000000025E-002     1.4848722251770141E-009
   4.1700000000000015E-002     9.5415519929531456E-010
   4.2800000000000005E-002     7.9641571115729448E-012
   4.3900000000000022E-002    -1.1491406715080643E-009
   4.5000000000000012E-002    -2.1941322092544624E-009
   4.6100000000000002E-002    -2.7460316243121952E-009
   4.7200000000000020E-002    -2.4827355726841915E-009
   4.8300000000000010E-002    -1.2871006482839675E-009
   4.9400000000000027E-002     6.4159988433232229E-010
   5.0500000000000017E-002     2.7816136061176167E-009
   5.1600000000000007E-002     4.4218486650038358E-009
   5.2700000000000025E-002     4.9018589187710404E-009
   5.3800000000000014E-002     3.8670635582604973E-009
   5.4900000000000004E-002     1.4306977824674050E-009
   5.6000000000000022E-002    -1.8284815883617966E-009
   5.7100000000000012E-002    -5.0313806454482801E-009
   5.8200000000000002E-002    -7.2574901643918110E-009
   5.9300000000000019E-002    -7.8003283832117631E-009
   6.0400000000000009E-002    -6.3432312735756113E-009
   6.1500000000000027E-002    -3.0283766605521123E-009
   6.2600000000000017E-002     1.5668492059361938E-009
   6.3700000000000007E-002     6.5229532886235120E-009
   6.4800000000000024E-002     1.0734737543316442E-008
   6.5900000000000014E-002     1.3136294718663066E-008
   6.7000000000000004E-002     1.2975770680156984E-008
   6.8100000000000022E-002     1.0063834210427558E-008
   6.9200000000000012E-002     4.8720454337569663E-009
   7.0300000000000029E-002    -1.6257500901062372E-009
   7.1400000000000019E-002    -8.3740676615207121E-009
   7.2500000000000009E-002    -1.4780505708245073E-008
   7.3600000000000027E-002    -2.1152187557049729E-008
   7.4700000000000016E-002    -2.8820656083894391E-008
   7.5800000000000006E-002    -3.9902900539345865E-008
   7.6900000000000024E-002    -5.6832210049151399E-008
   7.8000000000000014E-002    -8.1896402548409242E-008
   7.9100000000000004E-002    -1.1697940038857269E-007
   8.0200000000000021E-002    -1.6355606646811793E-007
   8.1300000000000011E-002    -2.2285233569618867E-007
   8.2400000000000029E-002    -2.9605118356812454E-007
   8.3500000000000019E-002    -3.8450920669674815E-007
   8.4600000000000009E-002    -4.9005655000655679E-007
   8.5700000000000026E-002    -6.1547450513899093E-007
   8.6800000000000016E-002    -7.6513885005624616E-007
   8.7900000000000006E-002    -9.4564921937489999E-007
   8.9000000000000024E-002    -1.1661765029202797E-006
   9.0100000000000013E-002    -1.4383365396497538E-006
   9.1200000000000003E-002    -1.7756311763150734E-006
   9.2300000000000021E-002    -2.1927535271970555E-006
   9.3400000000000011E-002    -2.7051755751017481E-006
   9.4500000000000028E-002    -3.3293470096396049E-006
   9.5600000000000018E-002    -4.0835625441104639E-006
   9.6700000000000008E-002    -4.9892696551978588E-006
   9.7800000000000026E-002    -6.0724164541170467E-006
   9.8900000000000016E-002    -7.3644923759275116E-006
  0.10000000000000001         -8.9031354946200736E-006
  0.10110000000000002         -1.0732434020610526E-005
  0.10220000000000001         -1.2903205970360432E-005
  0.10330000000000003         -1.5473429812118411E-005
  0.10440000000000002         -1.8508895664126612E-005
  0.10550000000000001         -2.2083899239078164E-005
  0.10660000000000003         -2.6281859391019680E-005
  0.10770000000000002         -3.1195853807730600E-005
  0.10880000000000001         -3.6929217458236963E-005
  0.10990000000000003         -4.3596461182460189E-005
  0.11100000000000002         -5.1324481319170445E-005
  0.11210000000000001         -6.0253907577134669E-005
  0.11320000000000002         -7.0540125307161361E-005
  0.11430000000000001         -8.2353675679769367E-005
  0.11540000000000003         -9.5880131993908435E-005
  0.11650000000000002         -1.1131958308396861E-004
  0.11760000000000001         -1.2888616765849292E-004
  0.11870000000000003         -1.4880784146953374E-004
  0.11980000000000002         -1.7132621724158525E-004
  0.12090000000000001         -1.9669598259497434E-004
  0.12200000000000003         -2.2518372861668468E-004
  0.12310000000000001         -2.5706583983264863E-004
  0.12420000000000003         -2.9262597672641277E-004
  0.12530000000000002         -3.3215188886970282E-004
  0.12640000000000001         -3.7593202432617545E-004
  0.12750000000000003         -4.2425122228451073E-004
  0.12860000000000002         -4.7738611465319991E-004
  0.12970000000000001         -5.3559965454041958E-004
  0.13080000000000003         -5.9913465520367026E-004
  0.13190000000000002         -6.6820747451856732E-004
  0.13300000000000001         -7.4300164123997092E-004
  0.13410000000000000         -8.2366052083671093E-004
  0.13520000000000004         -9.1028021415695548E-004
  0.13630000000000003         -1.0029019322246313E-003
  0.13740000000000002         -1.1015031486749649E-003
  0.13850000000000001         -1.2059891596436501E-003
  0.13960000000000000         -1.3161846436560154E-003
  0.14070000000000005         -1.4318237081170082E-003
  0.14180000000000004         -1.5525424387305975E-003
  0.14290000000000003         -1.6778714489191771E-003
  0.14400000000000002         -1.8072305247187614E-003
  0.14510000000000001         -1.9399228040128946E-003
  0.14620000000000000         -2.0751315169036388E-003
  0.14730000000000004         -2.2119164932519197E-003
  0.14840000000000003         -2.3492146283388138E-003
  0.14950000000000002         -2.4858398828655481E-003
  0.15060000000000001         -2.6204893365502357E-003
  0.15170000000000000         -2.7517483104020357E-003
  0.15280000000000005         -2.8780987486243248E-003
  0.15390000000000004         -2.9979301616549492E-003
  0.15500000000000003         -3.1095519661903381E-003
  0.15610000000000002         -3.2112090848386288E-003
  0.15720000000000001         -3.3011008054018021E-003
  0.15830000000000000         -3.3774008043110371E-003
  0.15940000000000004         -3.4382820595055819E-003
  0.16050000000000003         -3.4819399006664753E-003
  0.16160000000000002         -3.5066206473857164E-003
  0.16270000000000001         -3.5106474533677101E-003
  0.16380000000000000         -3.4924501087516546E-003
  0.16490000000000005         -3.4505934454500675E-003
  0.16600000000000004         -3.3838080707937479E-003
  0.16710000000000003         -3.2910169102251530E-003
  0.16820000000000002         -3.1713633798062801E-003
  0.16930000000000001         -3.0242367647588253E-003
  0.17040000000000000         -2.8492952696979046E-003
  0.17150000000000004         -2.6464853435754776E-003
  0.17260000000000003         -2.4160591419786215E-003
  0.17370000000000002         -2.1585868671536446E-003
  0.17480000000000001         -1.8749663140624762E-003
  0.17590000000000000         -1.5664247330278158E-003
  0.17700000000000005         -1.2345176655799150E-003
  0.17810000000000004         -8.8112155208364129E-004
  0.17920000000000003         -5.0842127529904246E-004
  0.18030000000000002         -1.1889239976881072E-004
  0.18140000000000001          2.8472160920500755E-004
  0.18250000000000000          6.9943733979016542E-004
  0.18360000000000004          1.1220640735700727E-003
  0.18470000000000003          1.5492411330342293E-003
  0.18580000000000002          1.9774786196649075E-003
  0.18690000000000001          2.4032003711909056E-003
  0.18800000000000000          2.8227898292243481E-003
  0.18910000000000005          3.2326378859579563E-003
  0.19020000000000004          3.6291885189712048E-003
  0.19130000000000003          4.0089874528348446E-003
  0.19240000000000002          4.3687284924089909E-003
  0.19350000000000001          4.7052977606654167E-003
  0.19460000000000005          5.0158151425421238E-003
  0.19570000000000004          5.2976729348301888E-003
  0.19680000000000003          5.5485717020928860E-003
  0.19790000000000002          5.7665468193590641E-003
  0.19900000000000001          5.9499954804778099E-003
  0.20010000000000000          6.0976934619247913E-003
  0.20120000000000005          6.2088090926408768E-003
  0.20230000000000004          6.2829083763062954E-003
  0.20340000000000003          6.3199540600180626E-003
  0.20450000000000002          6.3203014433383942E-003
  0.20560000000000000          6.2846881337463856E-003
  0.20670000000000005          6.2142135575413704E-003
  0.20780000000000004          6.1103170737624168E-003
  0.20890000000000003          5.9747528284788132E-003
