 -0.12000000000000000          0.0000000000000000
 -0.11889999999999999          0.0000000000000000
 -0.11780000000000000          0.0000000000000000
 -0.11670000000000000          0.0000000000000000
 -0.11559999999999999          0.0000000000000000
 -0.11449999999999999          0.0000000000000000
 -0.11340000000000000          0.0000000000000000
 -0.11230000000000000          1.1833299461302107E-019
 -0.11119999999999999         -2.7536441926281086E-019
 -0.11009999999999999         -6.8277340644699023E-018
 -0.10900000000000000         -2.9554342723352026E-017
 -0.10790000000000000         -4.7941317043319651E-017
 -0.10679999999999999          5.4374671244058971E-017
 -0.10569999999999999          4.3480615226462911E-016
 -0.10460000000000000          8.9193331675530355E-016
 -0.10349999999999999          3.3852545239744969E-016
 -0.10239999999999999         -2.7031320094079124E-015
 -0.10130000000000000         -7.4151695187200072E-015
 -0.10020000000000000         -7.3872386072842966E-015
  -9.9099999999999994E-002     7.3772707235610080E-015
  -9.7999999999999990E-002     3.7756469906937914E-014
  -9.6899999999999986E-002     5.8422220511854250E-014
  -9.5799999999999996E-002     1.9698188257399538E-014
  -9.4699999999999993E-002    -1.0865658009841586E-013
  -9.3599999999999989E-002    -2.6656921028184177E-013
  -9.2499999999999999E-002    -2.7804554448770946E-013
  -9.1399999999999995E-002     4.4917018780614437E-014
  -9.0299999999999991E-002     6.7804453458136793E-013
  -8.9200000000000002E-002     1.2122578331788536E-012
  -8.8099999999999984E-002     9.8126281405930271E-013
  -8.6999999999999994E-002    -4.3009649661196470E-013
  -8.5899999999999990E-002    -2.5864757384475023E-012
  -8.4799999999999986E-002    -4.0682158163052318E-012
  -8.3699999999999997E-002    -3.1760843954842244E-012
  -8.2599999999999993E-002     7.8996921851204327E-013
  -8.1499999999999989E-002     6.5499081852715690E-012
  -8.0399999999999999E-002     1.1005457829782461E-011
  -7.9299999999999995E-002     1.0635349372012382E-011
  -7.8199999999999992E-002     3.3703957593583800E-012
  -7.7100000000000002E-002    -9.9636444927941881E-012
  -7.5999999999999984E-002    -2.5014056798111639E-011
  -7.4899999999999994E-002    -3.4127142084505735E-011
  -7.3799999999999991E-002    -2.8033374233071839E-011
  -7.2699999999999987E-002    -2.1795065752172604E-013
  -7.1599999999999997E-002     4.6051835955740472E-011
  -7.0499999999999993E-002     9.1852157824146019E-011
  -6.9399999999999989E-002     1.0510502884697459E-010
  -6.8300000000000000E-002     5.6570286649515467E-011
  -6.7199999999999996E-002    -5.5366679990731527E-011
  -6.6099999999999992E-002    -1.8769868992407623E-010
  -6.5000000000000002E-002    -2.6266874786351480E-010
  -6.3899999999999985E-002    -2.0905306652441169E-010
  -6.2799999999999995E-002    -1.4200599030012029E-011
  -6.1699999999999991E-002     2.5004465165068268E-010
  -6.0599999999999994E-002     4.5370521228882410E-010
  -5.9499999999999990E-002     4.7800252644947250E-010
  -5.8399999999999994E-002     2.8398031148846314E-010
  -5.7299999999999990E-002    -6.6088988448509411E-011
  -5.6199999999999986E-002    -4.4576820013020324E-010
  -5.5099999999999996E-002    -7.2605554901628011E-010
  -5.3999999999999992E-002    -8.1357054426689501E-010
  -5.2899999999999989E-002    -6.4968341817461805E-010
  -5.1799999999999985E-002    -2.0324961158557642E-010
  -5.0699999999999995E-002     4.9806314628142445E-010
  -4.9599999999999991E-002     1.2991768771897227E-009
  -4.8499999999999988E-002     1.8807986279512079E-009
  -4.7399999999999998E-002     1.8411716595778671E-009
  -4.6299999999999994E-002     9.1144647385021926E-010
  -4.5199999999999990E-002    -8.0082135367476326E-010
  -4.4099999999999986E-002    -2.7161868310088266E-009
  -4.2999999999999997E-002    -3.9568868182016104E-009
  -4.1899999999999993E-002    -3.7485721193775134E-009
  -4.0799999999999989E-002    -1.8493068187908079E-009
  -3.9699999999999985E-002     1.2373444491231567E-009
  -3.8599999999999995E-002     4.4006083221859171E-009
  -3.7499999999999992E-002     6.3619300938455581E-009
  -3.6399999999999988E-002     6.2155653957063350E-009
  -3.5299999999999984E-002     3.8291156911895996E-009
  -3.4199999999999994E-002    -7.1489314468209386E-011
  -3.3099999999999991E-002    -4.1793866145667380E-009
  -3.1999999999999987E-002    -7.1449139937840300E-009
  -3.0899999999999997E-002    -8.1429787357478745E-009
  -2.9799999999999993E-002    -7.1838504034360540E-009
  -2.8699999999999989E-002    -4.9701736060114854E-009
  -2.7599999999999986E-002    -2.3452269015677984E-009
  -2.6499999999999996E-002     3.3879901661926226E-010
  -2.5399999999999992E-002     3.4824085837215080E-009
  -2.4299999999999988E-002     7.8669817327181590E-009
  -2.3199999999999985E-002     1.3811451538003894E-008
  -2.2099999999999995E-002     2.0394804067791483E-008
  -2.0999999999999991E-002     2.5300849415543780E-008
  -1.9899999999999987E-002     2.5439257811399330E-008
  -1.8799999999999983E-002     1.7939861152171943E-008
  -1.7699999999999994E-002     8.1922690853275526E-010
  -1.6599999999999990E-002    -2.7184270834368363E-008
  -1.5499999999999986E-002    -6.7551262361575937E-008
  -1.4399999999999996E-002    -1.2311974728618225E-007
  -1.3299999999999992E-002    -1.9870907408403582E-007
  -1.2199999999999989E-002    -3.0083879209996667E-007
  -1.1099999999999985E-002    -4.3669774640875403E-007
  -9.9999999999999950E-003    -6.1296941566979513E-007
  -8.8999999999999913E-003    -8.3526947491918691E-007
  -7.7999999999999875E-003    -1.1087506663898239E-006
  -6.6999999999999837E-003    -1.4399545307242079E-006
  -5.5999999999999939E-003    -1.8393913023828645E-006
  -4.4999999999999901E-003    -2.3238544599735178E-006
  -3.3999999999999864E-003    -2.9174534574849531E-006
  -2.2999999999999826E-003    -3.6509350138658192E-006
  -1.1999999999999927E-003    -4.5598717406392097E-006
  -9.9999999999988987E-005    -5.6831240726751275E-006
   1.0000000000000148E-003    -7.0630180744046811E-006
   2.1000000000000185E-003    -8.7477728811791167E-006
   3.2000000000000084E-003    -1.0795404705277178E-005
   4.3000000000000121E-003    -1.3277555808599573E-005
   5.4000000000000159E-003    -1.6281921489280649E-005
   6.5000000000000058E-003    -1.9913090000045486E-005
   7.6000000000000234E-003    -2.4292645321111195E-005
   8.7000000000000133E-003    -2.9559803806478158E-005
   9.8000000000000032E-003    -3.5873301385436207E-005
   1.0900000000000021E-002    -4.3414635001681745E-005
   1.2000000000000011E-002    -5.2392308134585619E-005
   1.3100000000000001E-002    -6.3046645664144307E-005
   1.4200000000000018E-002    -7.5654985266737640E-005
   1.5300000000000008E-002    -9.0536683273967355E-005
   1.6400000000000026E-002    -1.0805737838381901E-004
   1.7500000000000016E-002    -1.2863210577052087E-004
   1.8600000000000005E-002    -1.5272737073246390E-004
   1.9700000000000023E-002    -1.8086326599586755E-004
   2.0800000000000013E-002    -2.1361625113058835E-004
   2.1900000000000003E-002    -2.5162365636788309E-004
   2.3000000000000020E-002    -2.9558918322436512E-004
   2.4100000000000010E-002    -3.4628869616426528E-004
   2.5200000000000000E-002    -4.0457525756210089E-004
   2.6300000000000018E-002    -4.7138310037553310E-004
   2.7400000000000008E-002    -5.4772949079051614E-004
   2.8500000000000025E-002    -6.3471391331404448E-004
   2.9600000000000015E-002    -7.3351454921066761E-004
   3.0700000000000005E-002    -8.4538268856704235E-004
   3.1800000000000023E-002    -9.7163685131818056E-004
   3.2900000000000013E-002    -1.1136583052575588E-003
   3.4000000000000002E-002    -1.2728867586702108E-003
   3.5100000000000020E-002    -1.4508157037198544E-003
   3.6200000000000010E-002    -1.6489828703925014E-003
   3.7300000000000028E-002    -1.8689524149522185E-003
   3.8400000000000017E-002    -2.1122919861227274E-003
   3.9500000000000007E-002    -2.3805471137166023E-003
   4.0600000000000025E-002    -2.6752164121717215E-003
   4.1700000000000015E-002    -2.9977245721966028E-003
   4.2800000000000005E-002    -3.3493970986455679E-003
   4.3900000000000022E-002    -3.7314298097044230E-003
   4.5000000000000012E-002    -4.1448539122939110E-003
   4.6100000000000002E-002    -4.5904987491667271E-003
   4.7200000000000020E-002    -5.0689494237303734E-003
   4.8300000000000010E-002    -5.5805020965635777E-003
   4.9400000000000027E-002    -6.1251218430697918E-003
   5.0500000000000017E-002    -6.7023965530097485E-003
   5.1600000000000007E-002    -7.3114968836307526E-003
   5.2700000000000025E-002    -7.9511376097798347E-003
   5.3800000000000014E-002    -8.6195413023233414E-003
   5.4900000000000004E-002    -9.3144020065665245E-003
   5.6000000000000022E-002    -1.0032853111624718E-002
   5.7100000000000012E-002    -1.0771437548100948E-002
   5.8200000000000002E-002    -1.1526092886924744E-002
   5.9300000000000019E-002    -1.2292145751416683E-002
   6.0400000000000009E-002    -1.3064306229352951E-002
   6.1500000000000027E-002    -1.3836673460900784E-002
   6.2600000000000017E-002    -1.4602763578295708E-002
   6.3700000000000007E-002    -1.5355526469647884E-002
   6.4800000000000024E-002    -1.6087390482425690E-002
   6.5900000000000014E-002    -1.6790311783552170E-002
   6.7000000000000004E-002    -1.7455840483307838E-002
   6.8100000000000022E-002    -1.8075218424201012E-002
   6.9200000000000012E-002    -1.8639458343386650E-002
   7.0300000000000029E-002    -1.9139446318149567E-002
   7.1400000000000019E-002    -1.9566066563129425E-002
   7.2500000000000009E-002    -1.9910309463739395E-002
   7.3600000000000027E-002    -2.0163411274552345E-002
   7.4700000000000016E-002    -2.0316977053880692E-002
   7.5800000000000006E-002    -2.0363122224807739E-002
   7.6900000000000024E-002    -2.0294610410928726E-002
   7.8000000000000014E-002    -2.0104996860027313E-002
   7.9100000000000004E-002    -1.9788773730397224E-002
   8.0200000000000021E-002    -1.9341502338647842E-002
   8.1300000000000011E-002    -1.8759934231638908E-002
   8.2400000000000029E-002    -1.8042117357254028E-002
   8.3500000000000019E-002    -1.7187487334012985E-002
   8.4600000000000009E-002    -1.6196947544813156E-002
   8.5700000000000026E-002    -1.5072928741574287E-002
   8.6800000000000016E-002    -1.3819420710206032E-002
   8.7900000000000006E-002    -1.2441977858543396E-002
   8.9000000000000024E-002    -1.0947711765766144E-002
   9.0100000000000013E-002    -9.3452613800764084E-003
   9.1200000000000003E-002    -7.6447403989732265E-003
   9.2300000000000021E-002    -5.8576553128659725E-003
   9.3400000000000011E-002    -3.9967927150428295E-003
   9.4500000000000028E-002    -2.0760807674378157E-003
   9.5600000000000018E-002    -1.1043359700124711E-004
   9.6700000000000008E-002     1.8844222649931908E-003
   9.7800000000000026E-002     3.8921397645026445E-003
   9.8900000000000016E-002     5.8959559537470341E-003
  0.10000000000000001          7.8789042308926582E-003
  0.10110000000000002          9.8240375518798828E-003
  0.10220000000000001          1.1714641936123371E-002
  0.10330000000000003          1.3534458354115486E-002
  0.10440000000000002          1.5267898328602314E-002
  0.10550000000000001          1.6900245100259781E-002
  0.10660000000000003          1.8417853862047195E-002
  0.10770000000000002          1.9808322191238403E-002
  0.10880000000000001          2.1060664206743240E-002
  0.10990000000000003          2.2165441885590553E-002
  0.11100000000000002          2.3114871233701706E-002
  0.11210000000000001          2.3902907967567444E-002
  0.11320000000000002          2.4525299668312073E-002
  0.11430000000000001          2.4979623034596443E-002
  0.11540000000000003          2.5265283882617950E-002
  0.11650000000000002          2.5383502244949341E-002
  0.11760000000000001          2.5337245315313339E-002
  0.11870000000000003          2.5131156668066978E-002
  0.11980000000000002          2.4771457538008690E-002
  0.12090000000000001          2.4265823885798454E-002
  0.12200000000000003          2.3623259738087654E-002
  0.12310000000000001          2.2853948175907135E-002
  0.12420000000000003          2.1969087421894073E-002
  0.12530000000000002          2.0980715751647949E-002
  0.12640000000000001          1.9901534542441368E-002
  0.12750000000000003          1.8744733184576035E-002
  0.12860000000000002          1.7523817718029022E-002
  0.12970000000000001          1.6252430155873299E-002
  0.13080000000000003          1.4944177120923996E-002
  0.13190000000000002          1.3612488284707069E-002
  0.13300000000000001          1.2270473875105381E-002
  0.13410000000000000          1.0930785909295082E-002
  0.13520000000000004          9.6054999157786369E-003
  0.13630000000000003          8.3060162141919136E-003
  0.13740000000000002          7.0429672487080097E-003
  0.13850000000000001          5.8261509984731674E-003
  0.13960000000000000          4.6644750982522964E-003
  0.14070000000000005          3.5659135319292545E-003
  0.14180000000000004          2.5374747347086668E-003
  0.14290000000000003          1.5851815696805716E-003
  0.14400000000000002          7.1406783536076546E-004
  0.14510000000000001         -7.1808462962508202E-005
  0.14620000000000000         -7.6933961827307940E-004
  0.14730000000000004         -1.3763385359197855E-003
  0.14840000000000003         -1.8915085820481181E-003
  0.14950000000000002         -2.3144111037254333E-003
  0.15060000000000001         -2.6454308535903692E-003
  0.15170000000000000         -2.8857295401394367E-003
  0.15280000000000005         -3.0371921602636576E-003
  0.15390000000000004         -3.1023700721561909E-003
  0.15500000000000003         -3.0844307038933039E-003
  0.15610000000000002         -2.9871163424104452E-003
  0.15720000000000001         -2.8146996628493071E-003
  0.15830000000000000         -2.5719346012920141E-003
  0.15940000000000004         -2.2639965172857046E-003
  0.16050000000000003         -1.8964222399517894E-003
  0.16160000000000002         -1.4750567497685552E-003
  0.16270000000000001         -1.0060133645310998E-003
  0.16380000000000000         -4.9563695210963488E-004
  0.16490000000000005          4.9540325562702492E-005
  0.16600000000000004          6.2285427702590823E-004
  0.16710000000000003          1.2175680603832006E-003
  0.16820000000000002          1.8269276479259133E-003
  0.16930000000000001          2.4442076683044434E-003
  0.17040000000000000          3.0627537053078413E-003
  0.17150000000000004          3.6760317161679268E-003
  0.17260000000000003          4.2776861228048801E-003
  0.17370000000000002          4.8615997657179832E-003
  0.17480000000000001          5.4219458252191544E-003
  0.17590000000000000          5.9532271698117256E-003
  0.17700000000000005          6.4503150060772896E-003
  0.17810000000000004          6.9084931164979935E-003
  0.17920000000000003          7.3235039599239826E-003
  0.18030000000000002          7.6915915124118328E-003
  0.18140000000000001          8.0095278099179268E-003
  0.18250000000000000          8.2746297121047974E-003
  0.18360000000000004          8.4847742691636086E-003
  0.18470000000000003          8.6384247988462448E-003
  0.18580000000000002          8.7346490472555161E-003
  0.18690000000000001          8.7731257081031799E-003
  0.18800000000000000          8.7541230022907257E-003
  0.18910000000000005          8.6784735321998596E-003
  0.19020000000000004          8.5475454106926918E-003
  0.19130000000000003          8.3632320165634155E-003
  0.19240000000000002          8.1279296427965164E-003
  0.19350000000000001          7.8445104882121086E-003
  0.19460000000000005          7.5162574648857117E-003
  0.19570000000000004          7.1467929519712925E-003
  0.19680000000000003          6.7400215193629265E-003
  0.19790000000000002          6.3000922091305256E-003
  0.19900000000000001          5.8313738554716110E-003
  0.20010000000000000          5.3384066559374332E-003
  0.20120000000000005          4.8258267343044281E-003
  0.20230000000000004          4.2982771992683411E-003
  0.20340000000000003          3.7603350356221199E-003
  0.20450000000000002          3.2164757139980793E-003
  0.20560000000000000          2.6710508391261101E-003
  0.20670000000000005          2.1282597444951534E-003
  0.20780000000000004          1.5920927980914712E-003
  0.20890000000000003          1.0662697022780776E-003
