 -0.12000000000000000          0.0000000000000000
 -0.11889999999999999          0.0000000000000000
 -0.11780000000000000          0.0000000000000000
 -0.11670000000000000          0.0000000000000000
 -0.11559999999999999          0.0000000000000000
 -0.11449999999999999          0.0000000000000000
 -0.11340000000000000          0.0000000000000000
 -0.11230000000000000          0.0000000000000000
 -0.11119999999999999          0.0000000000000000
 -0.11009999999999999          0.0000000000000000
 -0.10900000000000000          0.0000000000000000
 -0.10790000000000000         -8.2458107523741495E-033
 -0.10679999999999999          9.6201105852792564E-033
 -0.10569999999999999         -4.6726257795468578E-031
 -0.10460000000000000          7.2700564016435851E-031
 -0.10349999999999999         -1.5529608212781107E-030
 -0.10239999999999999          3.2034970776292778E-030
 -0.10130000000000000          1.0774524795908248E-029
 -0.10020000000000000         -3.2316704234501250E-029
  -9.9099999999999994E-002    -5.2891380728469171E-029
  -9.7999999999999990E-002    -7.3466054213171554E-029
  -9.6899999999999986E-002     4.4635674984384263E-028
  -9.5799999999999996E-002     4.9290941364284731E-027
  -9.4699999999999993E-002    -7.5206208473640711E-027
  -9.3599999999999989E-002    -1.7088217106492094E-026
  -9.2499999999999999E-002    -5.2594891132064545E-026
  -9.1399999999999995E-002    -2.1812808297705753E-026
  -9.0299999999999991E-002     8.3904379866858071E-026
  -8.9200000000000002E-002     1.4350765302934999E-025
  -8.8099999999999984E-002     6.4769178104138293E-026
  -8.6999999999999994E-002    -5.2122234027344896E-025
  -8.5899999999999990E-002    -1.7066946519888699E-024
  -8.4799999999999986E-002    -1.6009773313203259E-024
  -8.3699999999999997E-002    -7.5743741992243802E-025
  -8.2599999999999993E-002     1.0083807791909363E-024
  -8.1499999999999989E-002     5.6073100890105262E-025
  -8.0399999999999999E-002     1.5887264200698567E-024
  -7.9299999999999995E-002    -3.3456853167871464E-025
  -7.8199999999999992E-002    -7.4226218157479194E-024
  -7.7100000000000002E-002    -2.9267127703264907E-023
  -7.5999999999999984E-002    -2.7501309898581985E-023
  -7.4899999999999994E-002     9.6799969942748736E-024
  -7.3799999999999991E-002     2.5919492322320054E-024
  -7.2699999999999987E-002     6.6334871757927959E-023
  -7.1599999999999997E-002     1.7729844482346735E-022
  -7.0499999999999993E-002    -4.2282540623062760E-023
  -6.9399999999999989E-002    -4.9370613628654595E-023
  -6.8300000000000000E-002     2.2686523869291955E-022
  -6.7199999999999996E-002     5.0310110363626818E-022
  -6.6099999999999992E-002     2.1268916841238278E-022
  -6.5000000000000002E-002    -6.9159120016364017E-022
  -6.3899999999999985E-002    -7.4589996946300794E-022
  -6.2799999999999995E-002     1.4420417737118443E-022
  -6.1699999999999991E-002     3.6786644388922473E-021
  -6.0599999999999994E-002     4.5687689391361252E-021
  -5.9499999999999990E-002     1.9645448671358126E-021
  -5.8399999999999994E-002    -1.3952096387455440E-021
  -5.7299999999999990E-002    -6.2660248104405969E-021
  -5.6199999999999986E-002    -5.8481269449683418E-021
  -5.5099999999999996E-002    -5.8079945488720984E-021
  -5.3999999999999992E-002    -1.2346793475411993E-021
  -5.2899999999999989E-002     3.1651472411069898E-022
  -5.1799999999999985E-002    -7.1986564108099306E-021
  -5.0699999999999995E-002    -1.3202767889658823E-020
  -4.9599999999999991E-002    -1.0140513758038403E-020
  -4.8499999999999988E-002     5.0102257000915861E-021
  -4.7399999999999998E-002     5.6426422753337419E-020
  -4.6299999999999994E-002     7.7621407298102894E-020
  -4.5199999999999990E-002     6.3306471648853084E-020
  -4.4099999999999986E-002    -2.3539388884151216E-020
  -4.2999999999999997E-002    -7.4119790206452539E-020
  -4.1899999999999993E-002    -2.7992302454328767E-020
  -4.0799999999999989E-002     1.7528549131124515E-019
  -3.9699999999999985E-002     4.1482875074987057E-019
  -3.8599999999999995E-002     5.0931014749628995E-019
  -3.7499999999999992E-002     1.4442909537299713E-019
  -3.6399999999999988E-002    -5.2266409960655774E-019
  -3.5299999999999984E-002    -8.0292576413780637E-019
  -3.4199999999999994E-002     2.8953337692099067E-020
  -3.3099999999999991E-002     1.5861415720372758E-018
  -3.1999999999999987E-002     2.2729587336267927E-018
  -3.0899999999999997E-002     8.4004109972911930E-019
  -2.9799999999999993E-002    -2.6237420431727677E-018
  -2.8699999999999989E-002    -5.5072779421009837E-018
  -2.7599999999999986E-002    -4.1356669027002545E-018
  -2.6499999999999996E-002     3.4252490374636808E-018
  -2.5399999999999992E-002     1.2134571668488568E-017
  -2.4299999999999988E-002     1.4171051459105332E-017
  -2.3199999999999985E-002     3.8289197938344587E-018
  -2.2099999999999995E-002    -1.5797169429376377E-017
  -2.0999999999999991E-002    -2.9040537831503488E-017
  -1.9899999999999987E-002    -1.9074012338780694E-017
  -1.8799999999999983E-002     1.4876065766990403E-017
  -1.7699999999999994E-002     4.4957832083796040E-017
  -1.6599999999999990E-002     3.9064266172306774E-017
  -1.5499999999999986E-002    -1.1508348795491010E-017
  -1.4399999999999996E-002    -7.2912245375070451E-017
  -1.3299999999999992E-002    -8.1707061258305756E-017
  -1.2199999999999989E-002    -3.8516010862306628E-018
  -1.1099999999999985E-002     1.1810265086861435E-016
  -9.9999999999999950E-003     1.7120088316583049E-016
  -8.8999999999999913E-003     6.1829878051431999E-017
  -7.7999999999999875E-003    -1.7442187153155278E-016
  -6.6999999999999837E-003    -3.4413860739000593E-016
  -5.5999999999999939E-003    -2.4152591272562699E-016
  -4.4999999999999901E-003     1.4502111970433960E-016
  -3.3999999999999864E-003     5.5477804602915609E-016
  -2.2999999999999826E-003     5.8389273894821373E-016
  -1.1999999999999927E-003     5.9064639733446829E-017
  -9.9999999999988987E-005    -6.7271827833013443E-016
   1.0000000000000148E-003    -9.7743928107737544E-016
   2.1000000000000185E-003    -4.6207733091354697E-016
   3.2000000000000084E-003     5.9175405173168090E-016
   4.3000000000000121E-003     1.2927951530543086E-015
   5.4000000000000159E-003     9.0451863816472635E-016
   6.5000000000000058E-003    -3.8430181278459145E-016
   7.6000000000000234E-003    -1.4379288487312942E-015
   8.7000000000000133E-003    -1.1237196476067066E-015
   9.8000000000000032E-003     4.5310783433727517E-016
   1.0900000000000021E-002     1.8467706883055005E-015
   1.2000000000000011E-002     1.5445640499226246E-015
   1.3100000000000001E-002    -4.5351234550914830E-016
   1.4200000000000018E-002    -2.2906667746435891E-015
   1.5300000000000008E-002    -1.8749142050109718E-015
   1.6400000000000026E-002     6.8233766093518710E-016
   1.7500000000000016E-002     2.6639842641681868E-015
   1.8600000000000005E-002     1.1858094919810517E-015
   1.9700000000000023E-002    -3.3375031474521541E-015
   2.0800000000000013E-002    -6.2856383780621888E-015
   2.1900000000000003E-002    -2.5740812459377994E-015
   2.3000000000000020E-002     7.5991103465128038E-015
   2.4100000000000010E-002     1.6503495076612695E-014
   2.5200000000000000E-002     1.3629632565257364E-014
   2.6300000000000018E-002    -4.6432211645453664E-015
   2.7400000000000008E-002    -2.8461692773646199E-014
   2.8500000000000025E-002    -3.8168548047645343E-014
   2.9600000000000015E-002    -1.8513343324187172E-014
   3.0700000000000005E-002     2.4859278589632605E-014
   3.1800000000000023E-002     6.2308739710772304E-014
   3.2900000000000013E-002     5.8141317281490412E-014
   3.4000000000000002E-002     3.5681974410763095E-015
   3.5100000000000020E-002    -6.9300508799378935E-014
   3.6200000000000010E-002    -9.9066886421680933E-014
   3.7300000000000028E-002    -4.5351922765184474E-014
   3.8400000000000017E-002     5.9461943290213537E-014
   3.9500000000000007E-002     1.3813219502684798E-013
   4.0600000000000025E-002     1.1698133510051195E-013
   4.1700000000000015E-002    -1.1615860861071206E-014
   4.2800000000000005E-002    -1.6690132349089781E-013
   4.3900000000000022E-002    -2.6227430600586632E-013
   4.5000000000000012E-002    -1.8791183344600559E-013
   4.6100000000000002E-002     7.1832696854536721E-014
   4.7200000000000020E-002     3.8109164261779238E-013
   4.8300000000000010E-002     4.9150061191133299E-013
   4.9400000000000027E-002     2.4302893139767356E-013
   5.0500000000000017E-002    -3.1995846944132822E-013
   5.1600000000000007E-002    -7.6252681469393679E-013
   5.2700000000000025E-002    -7.0123626957213636E-013
   5.3800000000000014E-002    -1.6143811005890629E-013
   5.4900000000000004E-002     6.2870504158665796E-013
   5.6000000000000022E-002     1.3903278485091763E-012
   5.7100000000000012E-002     1.0555029072989441E-012
   5.8200000000000002E-002    -4.5182385393846558E-013
   5.9300000000000019E-002    -2.1619620156621000E-012
   6.0400000000000009E-002    -3.2636666806584724E-012
   6.1500000000000027E-002    -1.7922050562363401E-012
   6.2600000000000017E-002     1.2510428890749603E-012
   6.3700000000000007E-002     4.0534524521629312E-012
   6.4800000000000024E-002     5.0305619045398764E-012
   6.5900000000000014E-002     4.1316685316095114E-012
   6.7000000000000004E-002     1.2046637559021134E-012
   6.8100000000000022E-002    -2.8378024756470221E-012
   6.9200000000000012E-002    -5.0042660987292820E-012
   7.0300000000000029E-002    -5.9538624030963661E-012
   7.1400000000000019E-002     7.5266160491638257E-013
   7.2500000000000009E-002     9.4872963651848607E-012
   7.3600000000000027E-002     8.8926192798322035E-012
   7.4700000000000016E-002    -1.5383974476257389E-012
   7.5800000000000006E-002    -7.5075692190784693E-012
   7.6900000000000024E-002    -1.0231761618517687E-011
   7.8000000000000014E-002    -4.0322641059464814E-012
   7.9100000000000004E-002     2.5728557739163049E-012
   8.0200000000000021E-002     1.2422953291069128E-011
   8.1300000000000011E-002     1.8825260794663734E-011
   8.2400000000000029E-002     9.4083013948975669E-012
   8.3500000000000019E-002    -4.8761272797293032E-012
   8.4600000000000009E-002    -7.8031322722771357E-012
   8.5700000000000026E-002     5.4947526563486893E-012
   8.6800000000000016E-002     3.5828773975454808E-011
   8.7900000000000006E-002     5.5616622418597217E-011
   8.9000000000000024E-002     4.5388422187375710E-011
   9.0100000000000013E-002     1.0011638219842300E-011
   9.1200000000000003E-002    -4.6457504510044600E-011
   9.2300000000000021E-002    -5.8308191608347215E-011
   9.3400000000000011E-002    -2.9596658457364811E-011
   9.4500000000000028E-002    -1.7110013059151719E-011
   9.5600000000000018E-002    -2.7338215025096702E-011
   9.6700000000000008E-002    -1.0084350021699606E-010
   9.7800000000000026E-002    -2.2789092835040492E-010
   9.8900000000000016E-002    -3.1762109609090317E-010
  0.10000000000000001         -1.7371283578260233E-010
  0.10110000000000002          4.8074905167894144E-011
  0.10220000000000001          1.0436877057040661E-010
  0.10330000000000003         -6.3240856995605554E-011
  0.10440000000000002         -2.6979021794382163E-010
  0.10550000000000001         -2.7515095757379981E-010
  0.10660000000000003         -3.3893318707178821E-011
  0.10770000000000002          3.1444860604246117E-010
  0.10880000000000001          3.5451758195748084E-010
  0.10990000000000003          2.1286776508144811E-010
  0.11100000000000002          5.1748091922654282E-011
  0.11210000000000001          2.5406599046817746E-010
  0.11320000000000002          6.7055244690195082E-010
  0.11430000000000001          6.5221184009089939E-010
  0.11540000000000003         -4.1084219359888152E-011
  0.11650000000000002         -6.8895056326567783E-010
  0.11760000000000001         -6.9431127514008040E-010
  0.11870000000000003         -3.7517422502020281E-010
  0.11980000000000002         -1.9232623826859196E-010
  0.12090000000000001          7.4891176593538944E-011
  0.12200000000000003          7.6020398309672998E-011
  0.12310000000000001          4.4707715307623630E-010
  0.12420000000000003          7.9866396829331165E-010
  0.12530000000000002          6.7648397994446441E-010
  0.12640000000000001          3.8232012000705140E-010
  0.12750000000000003          4.8404363850451659E-010
  0.12860000000000002          4.4298809065423939E-010
  0.12970000000000001         -1.2699888363165712E-010
  0.13080000000000003         -7.6350786804013637E-010
  0.13190000000000002         -8.7108553703529878E-010
  0.13300000000000001         -3.3473782079518344E-010
  0.13410000000000000          4.9095963405854093E-011
  0.13520000000000004          7.7365247541649751E-010
  0.13630000000000003          1.4690041405529541E-009
  0.13740000000000002          1.3466213699686591E-009
  0.13850000000000001          1.3086079997393085E-009
  0.13960000000000000          1.3225143202788558E-009
  0.14070000000000005          1.1027821988918163E-009
  0.14180000000000004          4.2875314409940302E-010
  0.14290000000000003         -4.3997461229849932E-010
  0.14400000000000002         -9.4526486638102369E-010
  0.14510000000000001         -5.4196114263049822E-010
  0.14620000000000000         -4.1123554561650622E-010
  0.14730000000000004         -6.4394756194019465E-010
  0.14840000000000003         -5.3918181031065160E-010
  0.14950000000000002          3.2860769660914002E-011
  0.15060000000000001          1.1240999242545513E-009
  0.15170000000000000          2.2672586030836328E-009
  0.15280000000000005          2.9171807192085453E-009
  0.15390000000000004          2.3469910459539278E-009
  0.15500000000000003          9.2012686359055351E-010
  0.15610000000000002         -9.7401431364829705E-010
  0.15720000000000001         -2.5047179885717696E-009
  0.15830000000000000         -3.2306670671999882E-009
  0.15940000000000004         -3.6970180250506246E-009
  0.16050000000000003         -3.6182126184058916E-009
  0.16160000000000002         -3.2019293882967759E-009
  0.16270000000000001         -2.1885699919010904E-009
  0.16380000000000000         -5.7813465126343999E-010
  0.16490000000000005          1.1361400709120062E-009
  0.16600000000000004          1.2928252912658422E-009
  0.16710000000000003          2.8131835749789502E-010
  0.16820000000000002         -6.6528904607565664E-010
  0.16930000000000001         -1.8065950957435462E-009
  0.17040000000000000         -2.1691064500117818E-009
  0.17150000000000004         -2.1552002404945370E-009
  0.17260000000000003         -3.4357605649404377E-010
  0.17370000000000002          2.0456540905655629E-009
  0.17480000000000001          3.5295357747600065E-009
  0.17590000000000000          3.6123977142921149E-009
  0.17700000000000005          2.6649789042210159E-009
  0.17810000000000004          6.0453275718685973E-010
  0.17920000000000003         -7.1605854579104289E-010
  0.18030000000000002         -1.8484410668762052E-009
  0.18140000000000001         -2.4032174028576492E-009
  0.18250000000000000         -2.5166766448592170E-009
  0.18360000000000004         -1.8902810428045314E-009
  0.18470000000000003         -1.4196441799896320E-009
  0.18580000000000002         -1.1177462289069240E-009
  0.18690000000000001         -1.0235269298775052E-009
  0.18800000000000000         -1.5912832163067492E-009
  0.18910000000000005         -2.0292403313248997E-009
  0.19020000000000004         -1.5196637281889025E-009
  0.19130000000000003         -1.2956452577483901E-009
  0.19240000000000002         -1.9802206541186251E-009
  0.19350000000000001         -2.9503541831843449E-009
  0.19460000000000005         -3.2455322873659043E-009
  0.19570000000000004         -1.8533217183147599E-009
  0.19680000000000003          4.0854297722603405E-010
  0.19790000000000002          1.9305528287105744E-009
  0.19900000000000001          1.6353747245290151E-009
  0.20010000000000000          2.6286395282681951E-010
  0.20120000000000005         -8.5004864258664270E-010
  0.20230000000000004         -4.5729126041393897E-010
  0.20340000000000003          1.3502767792772374E-009
  0.20450000000000002          3.2876439348683562E-009
  0.20560000000000000          3.7323211188322603E-009
  0.20670000000000005          2.2170312252711710E-009
  0.20780000000000004         -3.6261138536275439E-010
  0.20890000000000003         -2.3062383114336171E-009
