 -0.12000000000000000          0.0000000000000000
 -0.11889999999999999          0.0000000000000000
 -0.11780000000000000          0.0000000000000000
 -0.11670000000000000          0.0000000000000000
 -0.11559999999999999          6.6697784448233044E-012
 -0.11449999999999999          2.8765243659245598E-011
 -0.11340000000000000          4.3307458313934788E-011
 -0.11230000000000000         -1.5743677195256822E-011
 -0.11119999999999999         -1.6289211646203228E-010
 -0.11009999999999999         -2.2086538153942570E-010
 -0.10900000000000000          1.1268545818676756E-010
 -0.10790000000000000          8.5592499754483242E-010
 -0.10679999999999999          1.3554487532374537E-009
 -0.10569999999999999          6.0235599841362841E-010
 -0.10460000000000000         -1.6139229952472078E-009
 -0.10349999999999999         -3.7475693659416720E-009
 -0.10239999999999999         -3.2052884790800817E-009
 -0.10130000000000000          1.1624603502013997E-009
 -0.10020000000000000          6.9281238523899447E-009
  -9.9099999999999994E-002     9.0634522109667159E-009
  -9.7999999999999990E-002     4.2335521754921501E-009
  -9.6899999999999986E-002    -5.1883128904250952E-009
  -9.5799999999999996E-002    -1.1897791196702201E-008
  -9.4699999999999993E-002    -9.7416759103907680E-009
  -9.3599999999999989E-002     8.6777696139961336E-011
  -9.2499999999999999E-002     9.2572696175352576E-009
  -9.1399999999999995E-002     9.8387040736724884E-009
  -9.0299999999999991E-002     2.3596822273930229E-009
  -8.9200000000000002E-002    -4.0686671809453401E-009
  -8.8099999999999984E-002    -7.1559203007609540E-010
  -8.6999999999999994E-002     1.1210955719320737E-008
  -8.5899999999999990E-002     2.0564488778518353E-008
  -8.4799999999999986E-002     1.6758393783788961E-008
  -8.3699999999999997E-002     4.5724979358396922E-010
  -8.2599999999999993E-002    -1.6880060016433163E-008
  -8.1499999999999989E-002    -2.4520929287064064E-008
  -8.0399999999999999E-002    -2.2628436013860664E-008
  -7.9299999999999995E-002    -1.9364668091270687E-008
  -7.8199999999999992E-002    -1.7605785274099617E-008
  -7.7100000000000002E-002    -6.9376309141944148E-009
  -7.5999999999999984E-002     2.7344057684786094E-008
  -7.4899999999999994E-002     8.5413823569524538E-008
  -7.3799999999999991E-002     1.4554765925822721E-007
  -7.2699999999999987E-002     1.8127154532976419E-007
  -7.1599999999999997E-002     1.9089002023520152E-007
  -7.0499999999999993E-002     2.1059490507013834E-007
  -6.9399999999999989E-002     2.9427593517539208E-007
  -6.8300000000000000E-002     4.7505193379038246E-007
  -6.7199999999999996E-002     7.4383802939337329E-007
  -6.6099999999999992E-002     1.0661229907782399E-006
  -6.5000000000000002E-002     1.4212350833986420E-006
  -6.3899999999999985E-002     1.8257268266097526E-006
  -6.2799999999999995E-002     2.3188474642665824E-006
  -6.1699999999999991E-002     2.9281670776981628E-006
  -6.0599999999999994E-002     3.6554788493958768E-006
  -5.9499999999999990E-002     4.5021106416243128E-006
  -5.8399999999999994E-002     5.5090199566620868E-006
  -5.7299999999999990E-002     6.7672708610189147E-006
  -5.6199999999999986E-002     8.3827653725165874E-006
  -5.5099999999999996E-002     1.0428384484839626E-005
  -5.3999999999999992E-002     1.2934495316585526E-005
  -5.2899999999999989E-002     1.5932610040181316E-005
  -5.1799999999999985E-002     1.9511591744958423E-005
  -5.0699999999999995E-002     2.3829898054827936E-005
  -4.9599999999999991E-002     2.9071292374283075E-005
  -4.8499999999999988E-002     3.5392196878092363E-005
  -4.7399999999999998E-002     4.2921699787257239E-005
  -4.6299999999999994E-002     5.1822349632857367E-005
  -4.5199999999999990E-002     6.2354069086723030E-005
  -4.4099999999999986E-002     7.4875038990285248E-005
  -4.2999999999999997E-002     8.9776076492853463E-005
  -4.1899999999999993E-002     1.0741655569290742E-004
  -4.0799999999999989E-002     1.2813428475055844E-004
  -3.9699999999999985E-002     1.5232885198201984E-004
  -3.8599999999999995E-002     1.8054123211186379E-004
  -3.7499999999999992E-002     2.1345235290937126E-004
  -3.6399999999999988E-002     2.5180538068525493E-004
  -3.5299999999999984E-002     2.9633633675985038E-004
  -3.4199999999999994E-002     3.4779202542267740E-004
  -3.3099999999999991E-002     4.0702344267629087E-004
  -3.1999999999999987E-002     4.7506063128821552E-004
  -3.0899999999999997E-002     5.5308948503807187E-004
  -2.9799999999999993E-002     6.4235256286337972E-004
  -2.8699999999999989E-002     7.4407720239832997E-004
  -2.7599999999999986E-002     8.5951259825378656E-004
  -2.6499999999999996E-002     9.9004211369901896E-004
  -2.5399999999999992E-002     1.1372555745765567E-003
  -2.4299999999999988E-002     1.3028990942984819E-003
  -2.3199999999999985E-002     1.4887430006638169E-003
  -2.2099999999999995E-002     1.6964930109679699E-003
  -2.0999999999999991E-002     1.9278285326436162E-003
  -1.9899999999999987E-002     2.1845155861228704E-003
  -1.8799999999999983E-002     2.4684586096554995E-003
  -1.7699999999999994E-002     2.7816121000796556E-003
  -1.6599999999999990E-002     3.1258126255124807E-003
  -1.5499999999999986E-002     3.5026774276047945E-003
  -1.4399999999999996E-002     3.9136423729360104E-003
  -1.3299999999999992E-002     4.3600709177553654E-003
  -1.2199999999999989E-002     4.8432820476591587E-003
  -1.1099999999999985E-002     5.3644175641238689E-003
  -9.9999999999999950E-003     5.9242374263703823E-003
  -8.8999999999999913E-003     6.5229972824454308E-003
  -7.7999999999999875E-003     7.1604908443987370E-003
  -6.6999999999999837E-003     7.8361500054597855E-003
  -5.5999999999999939E-003     8.5490467026829720E-003
  -4.4999999999999901E-003     9.2977322638034821E-003
  -3.3999999999999864E-003     1.0080024600028992E-002
  -2.2999999999999826E-003     1.0892910882830620E-002
  -1.1999999999999927E-003     1.1732613667845726E-002
  -9.9999999999988987E-005     1.2594711035490036E-002
   1.0000000000000148E-003     1.3474134728312492E-002
   2.1000000000000185E-003     1.4365015551447868E-002
   3.2000000000000084E-003     1.5260504558682442E-002
   4.3000000000000121E-003     1.6152730211615562E-002
   5.4000000000000159E-003     1.7032947391271591E-002
   6.5000000000000058E-003     1.7891716212034225E-002
   7.6000000000000234E-003     1.8718937411904335E-002
   8.7000000000000133E-003     1.9503775984048843E-002
   9.8000000000000032E-003     2.0234556868672371E-002
   1.0900000000000021E-002     2.0898841321468353E-002
   1.2000000000000011E-002     2.1483678370714188E-002
   1.3100000000000001E-002     2.1975886076688766E-002
   1.4200000000000018E-002     2.2362165153026581E-002
   1.5300000000000008E-002     2.2629074752330780E-002
   1.6400000000000026E-002     2.2763058543205261E-002
   1.7500000000000016E-002     2.2750657051801682E-002
   1.8600000000000005E-002     2.2578861564397812E-002
   1.9700000000000023E-002     2.2235464304685593E-002
   2.0800000000000013E-002     2.1709220483899117E-002
   2.1900000000000003E-002     2.0989863201975822E-002
   2.3000000000000020E-002     2.0068207755684853E-002
   2.4100000000000010E-002     1.8936419859528542E-002
   2.5200000000000000E-002     1.7588417977094650E-002
   2.6300000000000018E-002     1.6020191833376884E-002
   2.7400000000000008E-002     1.4229905791580677E-002
   2.8500000000000025E-002     1.2217873707413673E-002
   2.9600000000000015E-002     9.9866017699241638E-003
   3.0700000000000005E-002     7.5410157442092896E-003
   3.1800000000000023E-002     4.8887575976550579E-003
   3.2900000000000013E-002     2.0403414964675903E-003
   3.4000000000000002E-002    -9.9092931486666203E-004
   3.5100000000000020E-002    -4.1891611181199551E-003
   3.6200000000000010E-002    -7.5359810143709183E-003
   3.7300000000000028E-002    -1.1010485701262951E-002
   3.8400000000000017E-002    -1.4589163474738598E-002
   3.9500000000000007E-002    -1.8246002495288849E-002
   4.0600000000000025E-002    -2.1952850744128227E-002
   4.1700000000000015E-002    -2.5679856538772583E-002
   4.2800000000000005E-002    -2.9395772144198418E-002
   4.3900000000000022E-002    -3.3068109303712845E-002
   4.5000000000000012E-002    -3.6663271486759186E-002
   4.6100000000000002E-002    -4.0146924555301666E-002
   4.7200000000000020E-002    -4.3484605848789215E-002
   4.8300000000000010E-002    -4.6642296016216278E-002
   4.9400000000000027E-002    -4.9586825072765350E-002
   5.0500000000000017E-002    -5.2286114543676376E-002
   5.1600000000000007E-002    -5.4709434509277344E-002
   5.2700000000000025E-002    -5.6827861815690994E-002
   5.3800000000000014E-002    -5.8614920824766159E-002
   5.4900000000000004E-002    -6.0047131031751633E-002
   5.6000000000000022E-002    -6.1104286462068558E-002
   5.7100000000000012E-002    -6.1769545078277588E-002
   5.8200000000000002E-002    -6.2029607594013214E-002
   5.9300000000000019E-002    -6.1875011771917343E-002
   6.0400000000000009E-002    -6.1300583183765411E-002
   6.1500000000000027E-002    -6.0305714607238770E-002
   6.2600000000000017E-002    -5.8894298970699310E-002
   6.3700000000000007E-002    -5.7074524462223053E-002
   6.4800000000000024E-002    -5.4858714342117310E-002
   6.5900000000000014E-002    -5.2263356745243073E-002
   6.7000000000000004E-002    -4.9309179186820984E-002
   6.8100000000000022E-002    -4.6021025627851486E-002
   6.9200000000000012E-002    -4.2427435517311096E-002
   7.0300000000000029E-002    -3.8560025393962860E-002
   7.1400000000000019E-002    -3.4453034400939941E-002
   7.2500000000000009E-002    -3.0143091455101967E-002
   7.3600000000000027E-002    -2.5669006630778313E-002
   7.4700000000000016E-002    -2.1071335300803185E-002
   7.5800000000000006E-002    -1.6391666606068611E-002
   7.6900000000000024E-002    -1.1671863496303558E-002
   7.8000000000000014E-002    -6.9534718059003353E-003
   7.9100000000000004E-002    -2.2774336393922567E-003
   8.0200000000000021E-002     2.3161666467785835E-003
   8.1300000000000011E-002     6.7885662429034710E-003
   8.2400000000000029E-002     1.1103025637567043E-002
   8.3500000000000019E-002     1.5225504525005817E-002
   8.4600000000000009E-002     1.9125023856759071E-002
   8.5700000000000026E-002     2.2773748263716698E-002
   8.6800000000000016E-002     2.6147017255425453E-002
   8.7900000000000006E-002     2.9223604127764702E-002
   8.9000000000000024E-002     3.1986147165298462E-002
   9.0100000000000013E-002     3.4421470016241074E-002
   9.1200000000000003E-002     3.6520585417747498E-002
   9.2300000000000021E-002     3.8278404623270035E-002
   9.3400000000000011E-002     3.9693444967269897E-002
   9.4500000000000028E-002     4.0767766535282135E-002
   9.5600000000000018E-002     4.1507095098495483E-002
   9.6700000000000008E-002     4.1920773684978485E-002
   9.7800000000000026E-002     4.2021431028842926E-002
   9.8900000000000016E-002     4.1824381798505783E-002
  0.10000000000000001          4.1347101330757141E-002
  0.10110000000000002          4.0609035640954971E-002
  0.10220000000000001          3.9631500840187073E-002
  0.10330000000000003          3.8437500596046448E-002
  0.10440000000000002          3.7051193416118622E-002
  0.10550000000000001          3.5497251898050308E-002
  0.10660000000000003          3.3800341188907623E-002
  0.10770000000000002          3.1984962522983551E-002
  0.10880000000000001          3.0075445771217346E-002
  0.10990000000000003          2.8095772489905357E-002
  0.11100000000000002          2.6069123297929764E-002
  0.11210000000000001          2.4017330259084702E-002
  0.11320000000000002          2.1960588172078133E-002
  0.11430000000000001          1.9917517900466919E-002
  0.11540000000000003          1.7905317246913910E-002
  0.11650000000000002          1.5939749777317047E-002
  0.11760000000000001          1.4034842140972614E-002
  0.11870000000000003          1.2202568352222443E-002
  0.11980000000000002          1.0452796705067158E-002
  0.12090000000000001          8.7935617193579674E-003
  0.12200000000000003          7.2314017452299595E-003
  0.12310000000000001          5.7714497670531273E-003
  0.12420000000000003          4.4172601774334908E-003
  0.12530000000000002          3.1706420704722404E-003
  0.12640000000000001          2.0317835733294487E-003
  0.12750000000000003          9.9965580739080906E-004
  0.12860000000000002          7.2403105150442570E-005
  0.12970000000000001         -7.5255072442814708E-004
  0.13080000000000003         -1.4786461833864450E-003
  0.13190000000000002         -2.1102919708937407E-003
  0.13300000000000001         -2.6526786386966705E-003
  0.13410000000000000         -3.1113675795495510E-003
  0.13520000000000004         -3.4919562749564648E-003
  0.13630000000000003         -3.8000494241714478E-003
  0.13740000000000002         -4.0414496324956417E-003
  0.13850000000000001         -4.2222603224217892E-003
  0.13960000000000000         -4.3486948125064373E-003
  0.14070000000000005         -4.4267126359045506E-003
  0.14180000000000004         -4.4617922976613045E-003
  0.14290000000000003         -4.4590174220502377E-003
  0.14400000000000002         -4.4233333319425583E-003
  0.14510000000000001         -4.3596611358225346E-003
  0.14620000000000000         -4.2727189138531685E-003
  0.14730000000000004         -4.1667143814265728E-003
  0.14840000000000003         -4.0452154353260994E-003
  0.14950000000000002         -3.9113317616283894E-003
  0.15060000000000001         -3.7680086679756641E-003
  0.15170000000000000         -3.6181309260427952E-003
  0.15280000000000005         -3.4643388353288174E-003
  0.15390000000000004         -3.3087632618844509E-003
  0.15500000000000003         -3.1529734842479229E-003
  0.15610000000000002         -2.9982118867337704E-003
  0.15720000000000001         -2.8456898871809244E-003
  0.15830000000000000         -2.6966542936861515E-003
  0.15940000000000004         -2.5521779898554087E-003
  0.16050000000000003         -2.4129182565957308E-003
  0.16160000000000002         -2.2791174706071615E-003
  0.16270000000000001         -2.1508645731955767E-003
  0.16380000000000000         -2.0283660851418972E-003
  0.16490000000000005         -1.9119641510769725E-003
  0.16600000000000004         -1.8019026611000299E-003
  0.16710000000000003         -1.6981050139293075E-003
  0.16820000000000002         -1.6002119518816471E-003
  0.16930000000000001         -1.5078504802659154E-003
  0.17040000000000000         -1.4208622742444277E-003
  0.17150000000000004         -1.3392659602686763E-003
  0.17260000000000003         -1.2630028650164604E-003
  0.17370000000000002         -1.1917458614334464E-003
  0.17480000000000001         -1.1249764356762171E-003
  0.17590000000000000         -1.0622559348121285E-003
  0.17700000000000005         -1.0034098522737622E-003
  0.17810000000000004         -9.4843842089176178E-004
  0.17920000000000003         -8.9725141879171133E-004
  0.18030000000000002         -8.4950891323387623E-004
  0.18140000000000001         -8.0473488196730614E-004
  0.18250000000000000         -7.6258368790149689E-004
  0.18360000000000004         -7.2298222221434116E-004
  0.18470000000000003         -6.8600091617554426E-004
  0.18580000000000002         -6.5159058431163430E-004
  0.18690000000000001         -6.1946001369506121E-004
  0.18800000000000000         -5.8921985328197479E-004
  0.18910000000000005         -5.6063849478960037E-004
  0.19020000000000004         -5.3374184062704444E-004
  0.19130000000000003         -5.0865567754954100E-004
  0.19240000000000002         -4.8535535461269319E-004
  0.19350000000000001         -4.6358391409739852E-004
  0.19460000000000005         -4.4301987509243190E-004
  0.19570000000000004         -4.2351611773483455E-004
  0.19680000000000003         -4.0516068111173809E-004
  0.19790000000000002         -3.8809937541373074E-004
  0.19900000000000001         -3.7230746238492429E-004
  0.20010000000000000         -3.5754521377384663E-004
  0.20120000000000005         -3.4353890805505216E-004
  0.20230000000000004         -3.3019317197613418E-004
  0.20340000000000003         -3.1761472928337753E-004
  0.20450000000000002         -3.0592861003242433E-004
  0.20560000000000000         -2.9508344596251845E-004
  0.20670000000000005         -2.8484806534834206E-004
  0.20780000000000004         -2.7499807765707374E-004
  0.20890000000000003         -2.6549355243332684E-004
