 -0.12000000000000000          0.0000000000000000
 -0.11889999999999999          0.0000000000000000
 -0.11780000000000000          0.0000000000000000
 -0.11670000000000000          0.0000000000000000
 -0.11559999999999999          0.0000000000000000
 -0.11449999999999999          0.0000000000000000
 -0.11340000000000000          0.0000000000000000
 -0.11230000000000000          0.0000000000000000
 -0.11119999999999999          0.0000000000000000
 -0.11009999999999999          0.0000000000000000
 -0.10900000000000000          0.0000000000000000
 -0.10790000000000000          7.7261154839999058E-030
 -0.10679999999999999         -1.6391100751029822E-029
 -0.10569999999999999         -3.1934147741850999E-028
 -0.10460000000000000         -4.5825986356863072E-029
 -0.10349999999999999          7.1577255716629618E-027
 -0.10239999999999999          2.2714528697667856E-026
 -0.10130000000000000         -2.3044448200861167E-026
 -0.10020000000000000         -2.9607483121329096E-025
  -9.9099999999999994E-002    -5.6845321760606768E-025
  -9.7999999999999990E-002     9.0966055614408948E-025
  -9.6899999999999986E-002     6.3739850701331023E-024
  -9.5799999999999996E-002     9.6742288433358976E-024
  -9.4699999999999993E-002    -1.5438515941598163E-023
  -9.3599999999999989E-002    -9.2143163091604438E-023
  -9.2499999999999999E-002    -1.3741929201046162E-022
  -9.1399999999999995E-002     1.3462764579551654E-022
  -9.0299999999999991E-002     9.5326052761102935E-022
  -8.9200000000000002E-002     1.5828671525408840E-021
  -8.8099999999999984E-002    -4.2297949285352261E-022
  -8.6999999999999994E-002    -7.2436036604619575E-021
  -8.5899999999999990E-002    -1.4286100650084094E-020
  -8.4799999999999986E-002    -4.5893256698277751E-021
  -8.3699999999999997E-002     4.0098142417830611E-020
  -8.2599999999999993E-002     1.0032443257243204E-019
  -8.1499999999999989E-002     8.0111854252043993E-020
  -8.0399999999999999E-002    -1.4804612354714424E-019
  -7.9299999999999995E-002    -5.4616585177283779E-019
  -7.8199999999999992E-002    -6.7475169837966536E-019
  -7.7100000000000002E-002     1.9703860951198224E-019
  -7.5999999999999984E-002     2.2574315195534067E-018
  -7.4899999999999994E-002     3.9284457515465328E-018
  -7.3799999999999991E-002     1.7856993084060000E-018
  -7.2699999999999987E-002    -6.5445012188771515E-018
  -7.1599999999999997E-002    -1.7033971535626889E-017
  -7.0499999999999993E-002    -1.6654389933054880E-017
  -6.9399999999999989E-002     8.7844529645212408E-018
  -6.8300000000000000E-002     5.5035128641068261E-017
  -6.7199999999999996E-002     8.2757984300387027E-017
  -6.6099999999999992E-002     3.1389360194239663E-017
  -6.5000000000000002E-002    -1.2153064614571171E-016
  -6.3899999999999985E-002    -2.8806947320474433E-016
  -6.2799999999999995E-002    -2.6888240347420112E-016
  -6.1699999999999991E-002     1.0308169945425161E-016
  -6.0599999999999994E-002     7.1970504879890259E-016
  -5.9499999999999990E-002     1.0717650818418511E-015
  -5.8399999999999994E-002     5.0293671798143673E-016
  -5.7299999999999990E-002    -1.1369678781764743E-015
  -5.6199999999999986E-002    -2.8917264362129241E-015
  -5.5099999999999996E-002    -2.9047521088758008E-015
  -5.3999999999999992E-002     1.8281448573118520E-016
  -5.2899999999999989E-002     5.3547775446334458E-015
  -5.1799999999999985E-002     8.6389178281668158E-015
  -5.0699999999999995E-002     5.3630678796046972E-015
  -4.9599999999999991E-002    -5.3488144326847755E-015
  -4.8499999999999988E-002    -1.7289304482439455E-014
  -4.7399999999999998E-002    -1.9350899666827591E-014
  -4.6299999999999994E-002    -4.0781705676297061E-015
  -4.5199999999999990E-002     2.2800053403430887E-014
  -4.4099999999999986E-002     4.1256948757947137E-014
  -4.2999999999999997E-002     2.9820011748522141E-014
  -4.1899999999999993E-002    -1.3805347856099374E-014
  -4.0799999999999989E-002    -6.1696355218698179E-014
  -3.9699999999999985E-002    -7.0057878226968684E-014
  -3.8599999999999995E-002    -1.5944111130114166E-014
  -3.7499999999999992E-002     7.1108686972541635E-014
  -3.6399999999999988E-002     1.1710811899205698E-013
  -3.5299999999999984E-002     6.0323829807230889E-014
  -3.4199999999999994E-002    -8.0414841452380870E-014
  -3.3099999999999991E-002    -1.9092205301527582E-013
  -3.1999999999999987E-002    -1.3856231158120014E-013
  -3.0899999999999997E-002     9.8307362142273369E-014
  -2.9799999999999993E-002     3.5750501409075042E-013
  -2.8699999999999989E-002     3.7462253351522312E-013
  -2.7599999999999986E-002     3.0048934260978877E-015
  -2.6499999999999996E-002    -5.8723089325224409E-013
  -2.5399999999999992E-002    -9.3320533592344823E-013
  -2.4299999999999988E-002    -5.9157198454076743E-013
  -2.3199999999999985E-002     4.4457474268795594E-013
  -2.2099999999999995E-002     1.5705385126088545E-012
  -2.0999999999999991E-002     1.8778511731709635E-012
  -1.9899999999999987E-002     8.2678585115389391E-013
  -1.8799999999999983E-002    -1.1942398025349688E-012
  -1.7699999999999994E-002    -2.9326456627704056E-012
  -1.6599999999999990E-002    -3.0589491443328010E-012
  -1.5499999999999986E-002    -1.1807860461968134E-012
  -1.4399999999999996E-002     1.7088476900878335E-012
  -1.3299999999999992E-002     3.8108466035580157E-012
  -1.2199999999999989E-002     3.7963252333406139E-012
  -1.1099999999999985E-002     1.8083790758252616E-012
  -9.9999999999999950E-003    -6.7726727004391307E-013
  -8.8999999999999913E-003    -2.1115186422254739E-012
  -7.7999999999999875E-003    -2.2231851776188805E-012
  -6.6999999999999837E-003    -2.2024868907843942E-012
  -5.5999999999999939E-003    -3.3544712146893474E-012
  -4.4999999999999901E-003    -5.2769780732597749E-012
  -3.3999999999999864E-003    -5.3480943632000510E-012
  -2.2999999999999826E-003    -5.2445764744946111E-013
  -1.1999999999999927E-003     9.4761117355735003E-012
  -9.9999999999988987E-005     2.0134173842056846E-011
   1.0000000000000148E-003     2.3533919604745712E-011
   2.1000000000000185E-003     1.3242627480702929E-011
   3.2000000000000084E-003    -1.0172513005557438E-011
   4.3000000000000121E-003    -3.7061138880023492E-011
   5.4000000000000159E-003    -5.2429473956783212E-011
   6.5000000000000058E-003    -4.4115426589552698E-011
   7.6000000000000234E-003    -1.0686503765233724E-011
   8.7000000000000133E-003     3.6030477212900536E-011
   9.8000000000000032E-003     7.5783199160461834E-011
   1.0900000000000021E-002     8.9506006772932523E-011
   1.2000000000000011E-002     6.8226632676804400E-011
   1.3100000000000001E-002     1.6584792567053697E-011
   1.4200000000000018E-002    -4.9912768362858628E-011
   1.5300000000000008E-002    -1.1091015605924071E-010
   1.6400000000000026E-002    -1.4652325186492732E-010
   1.7500000000000016E-002    -1.4045334340018201E-010
   1.8600000000000005E-002    -8.2836085213422450E-011
   1.9700000000000023E-002     2.4369190693152021E-011
   2.0800000000000013E-002     1.5998749547385671E-010
   2.1900000000000003E-002     2.8005264773867111E-010
   2.3000000000000020E-002     3.2607916367055623E-010
   2.4100000000000010E-002     2.4844509782795399E-010
   2.5200000000000000E-002     3.7500468008655474E-011
   2.6300000000000018E-002    -2.5480254017828941E-010
   2.7400000000000008E-002    -5.2059440092122600E-010
   2.8500000000000025E-002    -6.3478966527696912E-010
   2.9600000000000015E-002    -5.1292109448652923E-010
   3.0700000000000005E-002    -1.5936861552656723E-010
   3.1800000000000023E-002     3.2170194286251785E-010
   3.2900000000000013E-002     7.6184680786184344E-010
   3.4000000000000002E-002     9.9402663877867781E-010
   3.5100000000000020E-002     9.1624524634070781E-010
   3.6200000000000010E-002     5.2494320001983397E-010
   3.7300000000000028E-002    -8.9645679768324271E-011
   3.8400000000000017E-002    -7.7275857934822056E-010
   3.9500000000000007E-002    -1.3392730258132701E-009
   4.0600000000000025E-002    -1.6046737272290557E-009
   4.1700000000000015E-002    -1.4212712118322202E-009
   4.2800000000000005E-002    -7.3091332986052748E-010
   4.3900000000000022E-002     3.7347280823496476E-010
   4.5000000000000012E-002     1.6133062663570286E-009
   4.6100000000000002E-002     2.5638204892430849E-009
   4.7200000000000020E-002     2.7893425347258471E-009
   4.8300000000000010E-002     2.0396926370125357E-009
   4.9400000000000027E-002     4.1801812011854622E-010
   5.0500000000000017E-002    -1.5824725974056264E-009
   5.1600000000000007E-002    -3.2260176752174630E-009
   5.2700000000000025E-002    -3.8262548684997455E-009
   5.3800000000000014E-002    -3.0569236031396940E-009
   5.4900000000000004E-002    -1.1296229507351541E-009
   5.6000000000000022E-002     1.2579621788688655E-009
   5.7100000000000012E-002     3.1899742847230073E-009
   5.8200000000000002E-002     3.8978842376025113E-009
   5.9300000000000019E-002     3.0624407454382663E-009
   6.0400000000000009E-002     9.3154528535421832E-010
   6.1500000000000027E-002    -1.7708111643699453E-009
   6.2600000000000017E-002    -4.0771204190548360E-009
   6.3700000000000007E-002    -5.0449884270165057E-009
   6.4800000000000024E-002    -3.9841596688461323E-009
   6.5900000000000014E-002    -6.2491345431681111E-010
   6.7000000000000004E-002     4.7480881448791479E-009
   6.8100000000000022E-002     1.1184219772530923E-008
   6.9200000000000012E-002     1.7018511044852858E-008
   7.0300000000000029E-002     1.9972672404833247E-008
   7.1400000000000019E-002     1.7476214253520084E-008
   7.2500000000000009E-002     7.1868377915507153E-009
   7.3600000000000027E-002    -1.2438842844630926E-008
   7.4700000000000016E-002    -4.1762937996736582E-008
   7.5800000000000006E-002    -7.9997377611107368E-008
   7.6900000000000024E-002    -1.2574251684327464E-007
   7.8000000000000014E-002    -1.7792795858895261E-007
   7.9100000000000004E-002    -2.3687108807735058E-007
   8.0200000000000021E-002    -3.0509389148392074E-007
   8.1300000000000011E-002    -3.8760651932534529E-007
   8.2400000000000029E-002    -4.9155829628944048E-007
   8.3500000000000019E-002    -6.2540226508644992E-007
   8.4600000000000009E-002    -7.9792522456045845E-007
   8.5700000000000026E-002    -1.0175781426369213E-006
   8.6800000000000016E-002    -1.2924524526169989E-006
   8.7900000000000006E-002    -1.6310146975229145E-006
   8.9000000000000024E-002    -2.0434192720131250E-006
   9.0100000000000013E-002    -2.5429924335185206E-006
   9.1200000000000003E-002    -3.1474462502956158E-006
   9.2300000000000021E-002    -3.8795474210928660E-006
   9.3400000000000011E-002    -4.7672733671788592E-006
   9.4500000000000028E-002    -5.8437476582184900E-006
   9.5600000000000018E-002    -7.1473464231530670E-006
   9.6700000000000008E-002    -8.7222251750063151E-006
   9.7800000000000026E-002    -1.0619261956890114E-005
   9.8900000000000016E-002    -1.2897179658466484E-005
  0.10000000000000001         -1.5623580111423507E-005
  0.10110000000000002         -1.8875847672461532E-005
  0.10220000000000001         -2.2742060536984354E-005
  0.10330000000000003         -2.7322306777932681E-005
  0.10440000000000002         -3.2730564271332696E-005
  0.10550000000000001         -3.9097074477467686E-005
  0.10660000000000003         -4.6570865379180759E-005
  0.10770000000000002         -5.5321735999314114E-005
  0.10880000000000001         -6.5541462390683591E-005
  0.10990000000000003         -7.7444252383429557E-005
  0.11100000000000002         -9.1267080279067159E-005
  0.11210000000000001         -1.0727032349677756E-004
  0.11320000000000002         -1.2573930143844336E-004
  0.11430000000000001         -1.4698637824039906E-004
  0.11540000000000003         -1.7135306552518159E-004
  0.11650000000000002         -1.9921131024602801E-004
  0.11760000000000001         -2.3096370568964630E-004
  0.11870000000000003         -2.6704240008257329E-004
  0.11980000000000002         -3.0790749588049948E-004
  0.12090000000000001         -3.5404518712311983E-004
  0.12200000000000003         -4.0596615872345865E-004
  0.12310000000000001         -4.6420324360951781E-004
  0.12420000000000003         -5.2930851234123111E-004
  0.12530000000000002         -6.0184852918609977E-004
  0.12640000000000001         -6.8239867687225342E-004
  0.12750000000000003         -7.7153596794232726E-004
  0.12860000000000002         -8.6983130313456059E-004
  0.12970000000000001         -9.7784143872559071E-004
  0.13080000000000003         -1.0960996150970459E-003
  0.13190000000000002         -1.2251043226569891E-003
  0.13300000000000001         -1.3653081841766834E-003
  0.13410000000000000         -1.5171024715527892E-003
  0.13520000000000004         -1.6808032523840666E-003
  0.13630000000000003         -1.8566354410722852E-003
  0.13740000000000002         -2.0447182469069958E-003
  0.13850000000000001         -2.2450513206422329E-003
  0.13960000000000000         -2.4574985727667809E-003
  0.14070000000000005         -2.6817754842340946E-003
  0.14180000000000004         -2.9174336232244968E-003
  0.14290000000000003         -3.1638457439839840E-003
  0.14400000000000002         -3.4201918169856071E-003
  0.14510000000000001         -3.6854471545666456E-003
  0.14620000000000000         -3.9583747275173664E-003
  0.14730000000000004         -4.2375163175165653E-003
  0.14840000000000003         -4.5211906544864178E-003
  0.14950000000000002         -4.8074908554553986E-003
  0.15060000000000001         -5.0942888483405113E-003
  0.15170000000000000         -5.3792400285601616E-003
  0.15280000000000005         -5.6597958318889141E-003
  0.15390000000000004         -5.9332195669412613E-003
  0.15500000000000003         -6.1966059729456902E-003
  0.15610000000000002         -6.4469045028090477E-003
  0.15720000000000001         -6.6809486597776413E-003
  0.15830000000000000         -6.8954857997596264E-003
  0.15940000000000004         -7.0872148498892784E-003
  0.16050000000000003         -7.2528254240751266E-003
  0.16160000000000002         -7.3890448547899723E-003
  0.16270000000000001         -7.4926875531673431E-003
  0.16380000000000000         -7.5607001781463623E-003
  0.16490000000000005         -7.5902193784713745E-003
  0.16600000000000004         -7.5786160305142403E-003
  0.16710000000000003         -7.5235450640320778E-003
  0.16820000000000002         -7.4229962192475796E-003
  0.16930000000000001         -7.2753364220261574E-003
  0.17040000000000000         -7.0793558843433857E-003
  0.17150000000000004         -6.8343067541718483E-003
  0.17260000000000003         -6.5399399027228355E-003
  0.17370000000000002         -6.1965323984622955E-003
  0.17480000000000001         -5.8049065992236137E-003
  0.17590000000000000         -5.3664436563849449E-003
  0.17700000000000005         -4.8830863088369370E-003
  0.17810000000000004         -4.3573356233537197E-003
  0.17920000000000003         -3.7922372575849295E-003
  0.18030000000000002         -3.1913607381284237E-003
  0.18140000000000001         -2.5587677955627441E-003
  0.18250000000000000         -1.8989759264513850E-003
  0.18360000000000004         -1.2169086840003729E-003
  0.18470000000000003         -5.1783997332677245E-004
  0.18580000000000002          1.9266751769464463E-004
  0.18690000000000001          9.0883183293044567E-004
  0.18800000000000000          1.6247238963842392E-003
  0.18910000000000005          2.3343439679592848E-003
  0.19020000000000004          3.0316978227347136E-003
  0.19130000000000003          3.7108771502971649E-003
  0.19240000000000002          4.3661370873451233E-003
  0.19350000000000001          4.9919728189706802E-003
  0.19460000000000005          5.5831936188042164E-003
  0.19570000000000004          6.1349906027317047E-003
  0.19680000000000003          6.6429995931684971E-003
  0.19790000000000002          7.1033546701073647E-003
  0.19900000000000001          7.5127352029085159E-003
  0.20010000000000000          7.8684026375412941E-003
  0.20120000000000005          8.1682270392775536E-003
  0.20230000000000004          8.4107154980301857E-003
  0.20340000000000003          8.5950121283531189E-003
  0.20450000000000002          8.7209036573767662E-003
  0.20560000000000000          8.7888063862919807E-003
  0.20670000000000005          8.7997438386082649E-003
  0.20780000000000004          8.7553160265088081E-003
  0.20890000000000003          8.6576649919152260E-003
