 -0.12000000000000000          0.0000000000000000
 -0.11889999999999999          0.0000000000000000
 -0.11780000000000000          0.0000000000000000
 -0.11670000000000000          0.0000000000000000
 -0.11559999999999999          0.0000000000000000
 -0.11449999999999999          0.0000000000000000
 -0.11340000000000000          0.0000000000000000
 -0.11230000000000000          6.9002062530678170E-019
 -0.11119999999999999         -5.0525606293586396E-018
 -0.11009999999999999         -6.7620903345466741E-017
 -0.10900000000000000         -2.6534858201825618E-016
 -0.10790000000000000         -3.9656539402295563E-016
 -0.10679999999999999          5.5514126434485058E-016
 -0.10569999999999999          3.9409580064380875E-015
 -0.10460000000000000          8.2768671473901212E-015
 -0.10349999999999999          5.2698883261760934E-015
 -0.10239999999999999         -1.6584037745501212E-014
 -0.10130000000000000         -5.3812663824764559E-014
 -0.10020000000000000         -6.8077169606845650E-014
  -9.9099999999999994E-002    -1.8195521315784308E-015
  -9.7999999999999990E-002     1.4874824191390273E-013
  -9.6899999999999986E-002     2.6036269494544850E-013
  -9.5799999999999996E-002     1.3868586997128202E-013
  -9.4699999999999993E-002    -2.4241654690559944E-013
  -9.3599999999999989E-002    -5.2204383394274800E-013
  -9.2499999999999999E-002    -1.4760463901489218E-013
  -9.1399999999999995E-002     8.9502033171970363E-013
  -9.0299999999999991E-002     1.4510941276704714E-012
  -8.9200000000000002E-002    -2.0848931305342266E-013
  -8.8099999999999984E-002    -4.2414791297240573E-012
  -8.6999999999999994E-002    -7.2559254611637147E-012
  -8.5899999999999990E-002    -3.5603687966595521E-012
  -8.4799999999999986E-002     9.1895414888742977E-012
  -8.3699999999999997E-002     2.3848339969489984E-011
  -8.2599999999999993E-002     2.4786225155670749E-011
  -8.1499999999999989E-002     1.5935169850322950E-013
  -8.0399999999999999E-002    -4.1677866019496079E-011
  -7.9299999999999995E-002    -6.8485841997478758E-011
  -7.8199999999999992E-002    -4.5271255494361284E-011
  -7.7100000000000002E-002     2.9692227843103325E-011
  -7.5999999999999984E-002     1.0643348702377153E-010
  -7.4899999999999994E-002     1.1172175684581731E-010
  -7.3799999999999991E-002     1.5425421356907165E-011
  -7.2699999999999987E-002    -1.2038198216046680E-010
  -7.1599999999999997E-002    -1.7017476316993907E-010
  -7.0499999999999993E-002    -5.2796635119367608E-011
  -6.9399999999999989E-002     1.6583326378771801E-010
  -6.8300000000000000E-002     2.8691046760620509E-010
  -6.7199999999999996E-002     1.3869182191594831E-010
  -6.6099999999999992E-002    -2.3360585688081414E-010
  -6.5000000000000002E-002    -5.3637405628137458E-010
  -6.3899999999999985E-002    -4.4100978424665982E-010
  -6.2799999999999995E-002     9.7844121693668740E-011
  -6.1699999999999991E-002     7.1087902231425915E-010
  -6.0599999999999994E-002     8.5679285888318191E-010
  -5.9499999999999990E-002     2.9974150939082733E-010
  -5.8399999999999994E-002    -5.9136018304428717E-010
  -5.7299999999999990E-002    -1.0607614786550812E-009
  -5.6199999999999986E-002    -6.0656979439244196E-010
  -5.5099999999999996E-002     4.9009107883080105E-010
  -5.3999999999999992E-002     1.2857150899492353E-009
  -5.2899999999999989E-002     9.5341090577960586E-010
  -5.1799999999999985E-002    -4.1328124256168053E-010
  -5.0699999999999995E-002    -1.7413559483259178E-009
  -4.9599999999999991E-002    -1.8367034559929607E-009
  -4.8499999999999988E-002    -4.6946108112067009E-010
  -4.7399999999999998E-002     1.3209859872631569E-009
  -4.6299999999999994E-002     2.0831565361589810E-009
  -4.5199999999999990E-002     1.2714955754944413E-009
  -4.4099999999999986E-002    -2.0479548612506449E-010
  -4.2999999999999997E-002    -8.1019146946914589E-010
  -4.1899999999999993E-002     9.9054764390871242E-011
  -4.0799999999999989E-002     1.5120873442242555E-009
  -3.9699999999999985E-002     1.6017556170311309E-009
  -3.8599999999999995E-002    -4.9661297296665907E-010
  -3.7499999999999992E-002    -3.6302765238360735E-009
  -3.6399999999999988E-002    -5.4091029433323001E-009
  -3.5299999999999984E-002    -4.2275125622381893E-009
  -3.4199999999999994E-002    -6.8207206549431021E-010
  -3.3099999999999991E-002     2.9751470176364592E-009
  -3.1999999999999987E-002     4.8443502542738770E-009
  -3.0899999999999997E-002     4.8926507290047994E-009
  -2.9799999999999993E-002     4.4838213142384120E-009
  -2.8699999999999989E-002     4.4519188335812032E-009
  -2.7599999999999986E-002     3.8258858303663601E-009
  -2.6499999999999996E-002     7.5028516732800199E-010
  -2.5399999999999992E-002    -5.1420454560968665E-009
  -2.4299999999999988E-002    -1.1381111164610047E-008
  -2.3199999999999985E-002    -1.4063118669582764E-008
  -2.2099999999999995E-002    -1.1026314972184537E-008
  -2.0999999999999991E-002    -3.8108263211711346E-009
  -1.9899999999999987E-002     3.6874714393064778E-009
  -1.8799999999999983E-002     8.7837772611010223E-009
  -1.7699999999999994E-002     1.2353467582215671E-008
  -1.6599999999999990E-002     1.7543774433192993E-008
  -1.5499999999999986E-002     2.6072834558021896E-008
  -1.4399999999999996E-002     3.6022548499659024E-008
  -1.3299999999999992E-002     4.3818797479389104E-008
  -1.2199999999999989E-002     4.8868095348097995E-008
  -1.1099999999999985E-002     5.6234917167330423E-008
  -9.9999999999999950E-003     7.4178863940232986E-008
  -8.8999999999999913E-003     1.0830898844460535E-007
  -7.7999999999999875E-003     1.5777709450048860E-007
  -6.6999999999999837E-003     2.1741155364907172E-007
  -5.5999999999999939E-003     2.8408896923792781E-007
  -4.4999999999999901E-003     3.6135165260020585E-007
  -3.3999999999999864E-003     4.5777687773806974E-007
  -2.2999999999999826E-003     5.8074130038221483E-007
  -1.1999999999999927E-003     7.3201920258725295E-007
  -9.9999999999988987E-005     9.1011787617389928E-007
   1.0000000000000148E-003     1.1176075531693641E-006
   2.1000000000000185E-003     1.3664725884154905E-006
   3.2000000000000084E-003     1.6761416645749705E-006
   4.3000000000000121E-003     2.0659927031374536E-006
   5.4000000000000159E-003     2.5497020033071749E-006
   6.5000000000000058E-003     3.1370705073641147E-006
   7.6000000000000234E-003     3.8414559639932122E-006
   8.7000000000000133E-003     4.6853097046550829E-006
   9.8000000000000032E-003     5.6984540606208611E-006
   1.0900000000000021E-002     6.9116144914005417E-006
   1.2000000000000011E-002     8.3531394921010360E-006
   1.3100000000000001E-002     1.0053835467260797E-005
   1.4200000000000018E-002     1.2056222658429760E-005
   1.5300000000000008E-002     1.4419290891964920E-005
   1.6400000000000026E-002     1.7213922546943650E-005
   1.7500000000000016E-002     2.0513793060672469E-005
   1.8600000000000005E-002     2.4391740225837566E-005
   1.9700000000000023E-002     2.8926291633979417E-005
   2.0800000000000013E-002     3.4212451282655820E-005
   2.1900000000000003E-002     4.0365790482610464E-005
   2.3000000000000020E-002     4.7515684855170548E-005
   2.4100000000000010E-002     5.5795349908294156E-005
   2.5200000000000000E-002     6.5340987930539995E-005
   2.6300000000000018E-002     7.6303775131236762E-005
   2.7400000000000008E-002     8.8864551798906177E-005
   2.8500000000000025E-002     1.0323691822122782E-004
   2.9600000000000015E-002     1.1965451994910836E-004
   3.0700000000000005E-002     1.3835480785928667E-004
   3.1800000000000023E-002     1.5957592404447496E-004
   3.2900000000000013E-002     1.8357118824496865E-004
   3.4000000000000002E-002     2.1062743326183408E-004
   3.5100000000000020E-002     2.4106817727442831E-004
   3.6200000000000010E-002     2.7523707831278443E-004
   3.7300000000000028E-002     3.1347668846137822E-004
   3.8400000000000017E-002     3.5612314241006970E-004
   3.9500000000000007E-002     4.0352164069190621E-004
   4.0600000000000025E-002     4.5604608021676540E-004
   4.1700000000000015E-002     5.1409966545179486E-004
   4.2800000000000005E-002     5.7809270219877362E-004
   4.3900000000000022E-002     6.4841518178582191E-004
   4.5000000000000012E-002     7.2542927227914333E-004
   4.6100000000000002E-002     8.0948614049702883E-004
   4.7200000000000020E-002     9.0094498591497540E-004
   4.8300000000000010E-002     1.0001691989600658E-003
   4.9400000000000027E-002     1.1074953945353627E-003
   5.0500000000000017E-002     1.2231995351612568E-003
   5.1600000000000007E-002     1.3474890729412436E-003
   5.2700000000000025E-002     1.4805237296968699E-003
   5.3800000000000014E-002     1.6224372666329145E-003
   5.4900000000000004E-002     1.7733296845108271E-003
   5.6000000000000022E-002     1.9332277588546276E-003
   5.7100000000000012E-002     2.1020446438342333E-003
   5.8200000000000002E-002     2.2795728873461485E-003
   5.9300000000000019E-002     2.4655091110616922E-003
   6.0400000000000009E-002     2.6594828814268112E-003
   6.1500000000000027E-002     2.8610520530492067E-003
   6.2600000000000017E-002     3.0696610920131207E-003
   6.3700000000000007E-002     3.2846000976860523E-003
   6.4800000000000024E-002     3.5050041042268276E-003
   6.5900000000000014E-002     3.7298877723515034E-003
   6.7000000000000004E-002     3.9581824094057083E-003
   6.8100000000000022E-002     4.1887308470904827E-003
   6.9200000000000012E-002     4.4202473945915699E-003
   7.0300000000000029E-002     4.6512777917087078E-003
   7.1400000000000019E-002     4.8802085220813751E-003
   7.2500000000000009E-002     5.1053217612206936E-003
   7.3600000000000027E-002     5.3248465992510319E-003
   7.4700000000000016E-002     5.5369609035551548E-003
   7.5800000000000006E-002     5.7397489435970783E-003
   7.6900000000000024E-002     5.9311646036803722E-003
   7.8000000000000014E-002     6.1090444214642048E-003
   7.9100000000000004E-002     6.2711709178984165E-003
   8.0200000000000021E-002     6.4153270795941353E-003
   8.1300000000000011E-002     6.5393014810979366E-003
   8.2400000000000029E-002     6.6408468410372734E-003
   8.3500000000000019E-002     6.7176418378949165E-003
   8.4600000000000009E-002     6.7673120647668839E-003
   8.5700000000000026E-002     6.7874914966523647E-003
   8.6800000000000016E-002     6.7758769728243351E-003
   8.7900000000000006E-002     6.7302207462489605E-003
   8.9000000000000024E-002     6.6482741385698318E-003
   9.0100000000000013E-002     6.5277391113340855E-003
   9.1200000000000003E-002     6.3662840984761715E-003
   9.2300000000000021E-002     6.1616091988980770E-003
   9.3400000000000011E-002     5.9114964678883553E-003
   9.4500000000000028E-002     5.6137866340577602E-003
   9.5600000000000018E-002     5.2663106471300125E-003
   9.6700000000000008E-002     4.8668384552001953E-003
   9.7800000000000026E-002     4.4130934402346611E-003
   9.8900000000000016E-002     3.9028218016028404E-003
  0.10000000000000001          3.3338465727865696E-003
  0.10110000000000002          2.7040524873882532E-003
  0.10220000000000001          2.0113214850425720E-003
  0.10330000000000003          1.2534968554973602E-003
  0.10440000000000002          4.2842127732001245E-004
  0.10550000000000001         -4.6596827451139688E-004
  0.10660000000000003         -1.4315653825178742E-003
  0.10770000000000002         -2.4700856301933527E-003
  0.10880000000000001         -3.5830982960760593E-003
  0.10990000000000003         -4.7720200382173061E-003
  0.11100000000000002         -6.0380231589078903E-003
  0.11210000000000001         -7.3818876408040524E-003
  0.11320000000000002         -8.8038817048072815E-003
  0.11430000000000001         -1.0303714312613010E-002
  0.11540000000000003         -1.1880530044436455E-002
  0.11650000000000002         -1.3532863929867744E-002
  0.11760000000000001         -1.5258517116308212E-002
  0.11870000000000003         -1.7054371535778046E-002
  0.11980000000000002         -1.8916249275207520E-002
  0.12090000000000001         -2.0838851109147072E-002
  0.12200000000000003         -2.2815756499767303E-002
  0.12310000000000001         -2.4839388206601143E-002
  0.12420000000000003         -2.6900896802544594E-002
  0.12530000000000002         -2.8990017250180244E-002
  0.12640000000000001         -3.1094992533326149E-002
  0.12750000000000003         -3.3202614635229111E-002
  0.12860000000000002         -3.5298284143209457E-002
  0.12970000000000001         -3.7366103380918503E-002
  0.13080000000000003         -3.9388883858919144E-002
  0.13190000000000002         -4.1348129510879517E-002
  0.13300000000000001         -4.3224114924669266E-002
  0.13410000000000000         -4.4996082782745361E-002
  0.13520000000000004         -4.6642519533634186E-002
  0.13630000000000003         -4.8141382634639740E-002
  0.13740000000000002         -4.9470297992229462E-002
  0.13850000000000001         -5.0606742501258850E-002
  0.13960000000000000         -5.1528319716453552E-002
  0.14070000000000005         -5.2213102579116821E-002
  0.14180000000000004         -5.2640061825513840E-002
  0.14290000000000003         -5.2789412438869476E-002
  0.14400000000000002         -5.2642915397882462E-002
  0.14510000000000001         -5.2184183150529861E-002
  0.14620000000000000         -5.1398996263742447E-002
  0.14730000000000004         -5.0275687128305435E-002
  0.14840000000000003         -4.8805531114339828E-002
  0.14950000000000002         -4.6983014792203903E-002
  0.15060000000000001         -4.4806059449911118E-002
  0.15170000000000000         -4.2276173830032349E-002
  0.15280000000000005         -3.9398636668920517E-002
  0.15390000000000004         -3.6182660609483719E-002
  0.15500000000000003         -3.2641489058732986E-002
  0.15610000000000002         -2.8792405501008034E-002
  0.15720000000000001         -2.4656606838107109E-002
  0.15830000000000000         -2.0259058102965355E-002
  0.15940000000000004         -1.5628309920430183E-002
  0.16050000000000003         -1.0796290822327137E-002
  0.16160000000000002         -5.7980054989457130E-003
  0.16270000000000001         -6.7115441197529435E-004
  0.16380000000000000          4.5443312264978886E-003
  0.16490000000000005          9.8067754879593849E-003
  0.16600000000000004          1.5073243528604507E-002
  0.16710000000000003          2.0300030708312988E-002
  0.16820000000000002          2.5443211197853088E-002
  0.16930000000000001          3.0459243804216385E-002
  0.17040000000000000          3.5305589437484741E-002
  0.17150000000000004          3.9941292256116867E-002
  0.17260000000000003          4.4327475130558014E-002
  0.17370000000000002          4.8427831381559372E-002
  0.17480000000000001          5.2209075540304184E-002
  0.17590000000000000          5.5641431361436844E-002
  0.17700000000000005          5.8699041604995728E-002
  0.17810000000000004          6.1360273510217667E-002
  0.17920000000000003          6.3607938587665558E-002
  0.18030000000000002          6.5429449081420898E-002
  0.18140000000000001          6.6816918551921844E-002
  0.18250000000000000          6.7767217755317688E-002
  0.18360000000000004          6.8281985819339752E-002
  0.18470000000000003          6.8367503583431244E-002
  0.18580000000000002          6.8034447729587555E-002
  0.18690000000000001          6.7297615110874176E-002
  0.18800000000000000          6.6175647079944611E-002
  0.18910000000000005          6.4690738916397095E-002
  0.19020000000000004          6.2868259847164154E-002
  0.19130000000000003          6.0736238956451416E-002
  0.19240000000000002          5.8324895799160004E-002
  0.19350000000000001          5.5666122585535049E-002
  0.19460000000000005          5.2793078124523163E-002
  0.19570000000000004          4.9739744514226913E-002
  0.19680000000000003          4.6540431678295135E-002
  0.19790000000000002          4.3229274451732635E-002
  0.19900000000000001          3.9839729666709900E-002
  0.20010000000000000          3.6404199898242950E-002
  0.20120000000000005          3.2953750342130661E-002
  0.20230000000000004          2.9517821967601776E-002
  0.20340000000000003          2.6123937219381332E-002
  0.20450000000000002          2.2797388955950737E-002
  0.20560000000000000          1.9561007618904114E-002
  0.20670000000000005          1.6435058787465096E-002
  0.20780000000000004          1.3437243178486824E-002
  0.20890000000000003          1.0582705959677696E-002
