 -0.12000000000000000          0.0000000000000000
 -0.11889999999999999          0.0000000000000000
 -0.11780000000000000          0.0000000000000000
 -0.11670000000000000          0.0000000000000000
 -0.11559999999999999          6.6697784448233044E-012
 -0.11449999999999999          2.8765241924522122E-011
 -0.11340000000000000          4.3307454844487836E-011
 -0.11230000000000000         -1.5743673725809870E-011
 -0.11119999999999999         -1.6289211646203228E-010
 -0.11009999999999999         -2.2086538153942570E-010
 -0.10900000000000000          1.1268545818676756E-010
 -0.10790000000000000          8.5592505305598365E-010
 -0.10679999999999999          1.3554488642597562E-009
 -0.10569999999999999          6.0235577636902349E-010
 -0.10460000000000000         -1.6139229952472078E-009
 -0.10349999999999999         -3.7475684777632523E-009
 -0.10239999999999999         -3.2052875909016620E-009
 -0.10130000000000000          1.1624601281567948E-009
 -0.10020000000000000          6.9281216319438954E-009
  -9.9099999999999994E-002     9.0634504346098765E-009
  -9.7999999999999990E-002     4.2335521754921501E-009
  -9.6899999999999986E-002    -5.1883106699790460E-009
  -9.5799999999999996E-002    -1.1897789420345362E-008
  -9.4699999999999993E-002    -9.7416776867476074E-009
  -9.3599999999999989E-002     8.6771034801813585E-011
  -9.2499999999999999E-002     9.2572634002863197E-009
  -9.1399999999999995E-002     9.8387058500293278E-009
  -9.0299999999999991E-002     2.3596933296232692E-009
  -8.9200000000000002E-002    -4.0686543023582544E-009
  -8.8099999999999984E-002    -7.1558758918399690E-010
  -8.6999999999999994E-002     1.1210952166607058E-008
  -8.5899999999999990E-002     2.0564487002161513E-008
  -8.4799999999999986E-002     1.6758400889216318E-008
  -8.3699999999999997E-002     4.5725467856527757E-010
  -8.2599999999999993E-002    -1.6880081332715235E-008
  -8.1499999999999989E-002    -2.4520987906839764E-008
  -8.0399999999999999E-002    -2.2628515949918437E-008
  -7.9299999999999995E-002    -1.9364698289336957E-008
  -7.8199999999999992E-002    -1.7605678692689253E-008
  -7.7100000000000002E-002    -6.9373697897390230E-009
  -7.5999999999999984E-002     2.7344308151100449E-008
  -7.4899999999999994E-002     8.5413837780379254E-008
  -7.3799999999999991E-002     1.4554734661942348E-007
  -7.2699999999999987E-002     1.8127106216070388E-007
  -7.1599999999999997E-002     1.9088979286152608E-007
  -7.0499999999999993E-002     2.1059526034150622E-007
  -6.9399999999999989E-002     2.9427661729641841E-007
  -6.8300000000000000E-002     4.7505264433311822E-007
  -6.7199999999999996E-002     7.4383842729730532E-007
  -6.6099999999999992E-002     1.0661231044650776E-006
  -6.5000000000000002E-002     1.4212348560249666E-006
  -6.3899999999999985E-002     1.8257267129229149E-006
  -6.2799999999999995E-002     2.3188479190139333E-006
  -6.1699999999999991E-002     2.9281679871928645E-006
  -6.0599999999999994E-002     3.6554790767695522E-006
  -5.9499999999999990E-002     4.5021097321296111E-006
  -5.8399999999999994E-002     5.5090181376726832E-006
  -5.7299999999999990E-002     6.7672694967768621E-006
  -5.6199999999999986E-002     8.3827671915059909E-006
  -5.5099999999999996E-002     1.0428389941807836E-005
  -5.3999999999999992E-002     1.2934504411532544E-005
  -5.2899999999999989E-002     1.5932620954117738E-005
  -5.1799999999999985E-002     1.9511599020916037E-005
  -5.0699999999999995E-002     2.3829894416849129E-005
  -4.9599999999999991E-002     2.9071266908431426E-005
  -4.8499999999999988E-002     3.5392164136283100E-005
  -4.7399999999999998E-002     4.2921685235342011E-005
  -4.6299999999999994E-002     5.1822367822751403E-005
  -4.5199999999999990E-002     6.2354120018426329E-005
  -4.4099999999999986E-002     7.4875111749861389E-005
  -4.2999999999999997E-002     8.9776127424556762E-005
  -4.1899999999999993E-002     1.0741655569290742E-004
  -4.0799999999999989E-002     1.2813424109481275E-004
  -3.9699999999999985E-002     1.5232879377435893E-004
  -3.8599999999999995E-002     1.8054115935228765E-004
  -3.7499999999999992E-002     2.1345230925362557E-004
  -3.6399999999999988E-002     2.5180535158142447E-004
  -3.5299999999999984E-002     2.9633639496751130E-004
  -3.4199999999999994E-002     3.4779222914949059E-004
  -3.3099999999999991E-002     4.0702373371459544E-004
  -3.1999999999999987E-002     4.7506083501502872E-004
  -3.0899999999999997E-002     5.5308948503807187E-004
  -2.9799999999999993E-002     6.4235227182507515E-004
  -2.8699999999999989E-002     7.4407685315236449E-004
  -2.7599999999999986E-002     8.5951230721548200E-004
  -2.6499999999999996E-002     9.9004199728369713E-004
  -2.5399999999999992E-002     1.1372556909918785E-003
  -2.4299999999999988E-002     1.3028994435444474E-003
  -2.3199999999999985E-002     1.4887432334944606E-003
  -2.2099999999999995E-002     1.6964928945526481E-003
  -2.0999999999999991E-002     1.9278284162282944E-003
  -1.9899999999999987E-002     2.1845155861228704E-003
  -1.8799999999999983E-002     2.4684588424861431E-003
  -1.7699999999999994E-002     2.7816118672490120E-003
  -1.6599999999999990E-002     3.1258121598511934E-003
  -1.5499999999999986E-002     3.5026767291128635E-003
  -1.4399999999999996E-002     3.9136414416134357E-003
  -1.3299999999999992E-002     4.3600709177553654E-003
  -1.2199999999999989E-002     4.8432829789817333E-003
  -1.1099999999999985E-002     5.3644189611077309E-003
  -9.9999999999999950E-003     5.9242374263703823E-003
  -8.8999999999999913E-003     6.5229958854615688E-003
  -7.7999999999999875E-003     7.1604880504310131E-003
  -6.6999999999999837E-003     7.8361462801694870E-003
  -5.5999999999999939E-003     8.5490429773926735E-003
  -4.4999999999999901E-003     9.2977276071906090E-003
  -3.3999999999999864E-003     1.0080021806061268E-002
  -2.2999999999999826E-003     1.0892910882830620E-002
  -1.1999999999999927E-003     1.1732616461813450E-002
  -9.9999999999988987E-005     1.2594714760780334E-002
   1.0000000000000148E-003     1.3474137522280216E-002
   2.1000000000000185E-003     1.4365017414093018E-002
   3.2000000000000084E-003     1.5260505490005016E-002
   4.3000000000000121E-003     1.6152732074260712E-002
   5.4000000000000159E-003     1.7032949253916740E-002
   6.5000000000000058E-003     1.7891712486743927E-002
   7.6000000000000234E-003     1.8718935549259186E-002
   8.7000000000000133E-003     1.9503777846693993E-002
   9.8000000000000032E-003     2.0234560593962669E-002
   1.0900000000000021E-002     2.0898843184113503E-002
   1.2000000000000011E-002     2.1483682096004486E-002
   1.3100000000000001E-002     2.1975891664624214E-002
   1.4200000000000018E-002     2.2362168878316879E-002
   1.5300000000000008E-002     2.2629072889685631E-002
   1.6400000000000026E-002     2.2763052955269814E-002
   1.7500000000000016E-002     2.2750649601221085E-002
   1.8600000000000005E-002     2.2578855976462364E-002
   1.9700000000000023E-002     2.2235458716750145E-002
   2.0800000000000013E-002     2.1709213033318520E-002
   2.1900000000000003E-002     2.0989859476685524E-002
   2.3000000000000020E-002     2.0068209618330002E-002
   2.4100000000000010E-002     1.8936423584818840E-002
   2.5200000000000000E-002     1.7588421702384949E-002
   2.6300000000000018E-002     1.6020195558667183E-002
   2.7400000000000008E-002     1.4229907654225826E-002
   2.8500000000000025E-002     1.2217874638736248E-002
   2.9600000000000015E-002     9.9866017699241638E-003
   3.0700000000000005E-002     7.5410138815641403E-003
   3.1800000000000023E-002     4.8887510783970356E-003
   3.2900000000000013E-002     2.0403324160724878E-003
   3.4000000000000002E-002    -9.9093699827790260E-004
   3.5100000000000020E-002    -4.1891657747328281E-003
   3.6200000000000010E-002    -7.5359838083386421E-003
   3.7300000000000028E-002    -1.1010488495230675E-002
   3.8400000000000017E-002    -1.4589165337383747E-002
   3.9500000000000007E-002    -1.8246002495288849E-002
   4.0600000000000025E-002    -2.1952852606773376E-002
   4.1700000000000015E-002    -2.5679860264062881E-002
   4.2800000000000005E-002    -2.9395777732133865E-002
   4.3900000000000022E-002    -3.3068109303712845E-002
   4.5000000000000012E-002    -3.6663260310888290E-002
   4.6100000000000002E-002    -4.0146913379430771E-002
   4.7200000000000020E-002    -4.3484602123498917E-002
   4.8300000000000010E-002    -4.6642296016216278E-002
   4.9400000000000027E-002    -4.9586821347475052E-002
   5.0500000000000017E-002    -5.2286107093095779E-002
   5.1600000000000007E-002    -5.4709427058696747E-002
   5.2700000000000025E-002    -5.6827865540981293E-002
   5.3800000000000014E-002    -5.8614932000637054E-002
   5.4900000000000004E-002    -6.0047138482332230E-002
   5.6000000000000022E-002    -6.1104279011487961E-002
   5.7100000000000012E-002    -6.1769533902406693E-002
   5.8200000000000002E-002    -6.2029596418142319E-002
   5.9300000000000019E-002    -6.1875011771917343E-002
   6.0400000000000009E-002    -6.1300594359636307E-002
   6.1500000000000027E-002    -6.0305718332529068E-002
   6.2600000000000017E-002    -5.8894287794828415E-002
   6.3700000000000007E-002    -5.7074502110481262E-002
   6.4800000000000024E-002    -5.4858695715665817E-002
   6.5900000000000014E-002    -5.2263341844081879E-002
   6.7000000000000004E-002    -4.9309164285659790E-002
   6.8100000000000022E-002    -4.6021014451980591E-002
   6.9200000000000012E-002    -4.2427431792020798E-002
   7.0300000000000029E-002    -3.8560029119253159E-002
   7.1400000000000019E-002    -3.4453041851520538E-002
   7.2500000000000009E-002    -3.0143100768327713E-002
   7.3600000000000027E-002    -2.5669014081358910E-002
   7.4700000000000016E-002    -2.1071337163448334E-002
   7.5800000000000006E-002    -1.6391664743423462E-002
   7.6900000000000024E-002    -1.1671859771013260E-002
   7.8000000000000014E-002    -6.9534745998680592E-003
   7.9100000000000004E-002    -2.2774494718760252E-003
   8.0200000000000021E-002     2.3161387071013451E-003
   8.1300000000000011E-002     6.7885392345488071E-003
   8.2400000000000029E-002     1.1103013530373573E-002
   8.3500000000000019E-002     1.5225503593683243E-002
   8.4600000000000009E-002     1.9125023856759071E-002
   8.5700000000000026E-002     2.2773738950490952E-002
   8.6800000000000016E-002     2.6147002354264259E-002
   8.7900000000000006E-002     2.9223598539829254E-002
   8.9000000000000024E-002     3.1986154615879059E-002
   9.0100000000000013E-002     3.4421481192111969E-002
   9.1200000000000003E-002     3.6520581692457199E-002
   9.2300000000000021E-002     3.8278378546237946E-002
   9.3400000000000011E-002     3.9693411439657211E-002
   9.4500000000000028E-002     4.0767762809991837E-002
   9.5600000000000018E-002     4.1507128626108170E-002
   9.6700000000000008E-002     4.1920829564332962E-002
   9.7800000000000026E-002     4.2021475732326508E-002
   9.8900000000000016E-002     4.1824381798505783E-002
  0.10000000000000001          4.1347071528434753E-002
  0.10110000000000002          4.0609002113342285E-002
  0.10220000000000001          3.9631497114896774E-002
  0.10330000000000003          3.8437522947788239E-002
  0.10440000000000002          3.7051212042570114E-002
  0.10550000000000001          3.5497233271598816E-002
  0.10660000000000003          3.3800300210714340E-002
  0.10770000000000002          3.1984947621822357E-002
  0.10880000000000001          3.0075481161475182E-002
  0.10990000000000003          2.8095841407775879E-002
  0.11100000000000002          2.6069173589348793E-002
  0.11210000000000001          2.4017322808504105E-002
  0.11320000000000002          2.1960534155368805E-002
  0.11430000000000001          1.9917462021112442E-002
  0.11540000000000003          1.7905302345752716E-002
  0.11650000000000002          1.5939768403768539E-002
  0.11760000000000001          1.4034849591553211E-002
  0.11870000000000003          1.2202532030642033E-002
  0.11980000000000002          1.0452727787196636E-002
  0.12090000000000001          8.7935077026486397E-003
  0.12200000000000003          7.2314012795686722E-003
  0.12310000000000001          5.7714967988431454E-003
  0.12420000000000003          4.4173123314976692E-003
  0.12530000000000002          3.1706655863672495E-003
  0.12640000000000001          2.0317800808697939E-003
  0.12750000000000003          9.9965336266905069E-004
  0.12860000000000002          7.2420574724674225E-005
  0.12970000000000001         -7.5252394890412688E-004
  0.13080000000000003         -1.4786373358219862E-003
  0.13190000000000002         -2.1103098988533020E-003
  0.13300000000000001         -2.6527023874223232E-003
  0.13410000000000000         -3.1113652512431145E-003
  0.13520000000000004         -3.4919199533760548E-003
  0.13630000000000003         -3.8000065833330154E-003
  0.13740000000000002         -4.0414347313344479E-003
  0.13850000000000001         -4.2222784832119942E-003
  0.13960000000000000         -4.3487148359417915E-003
  0.14070000000000005         -4.4267023913562298E-003
  0.14180000000000004         -4.4617531821131706E-003
  0.14290000000000003         -4.4589857570827007E-003
  0.14400000000000002         -4.4233440421521664E-003
  0.14510000000000001         -4.3597090989351273E-003
  0.14620000000000000         -4.2727608233690262E-003
  0.14730000000000004         -4.1667083278298378E-003
  0.14840000000000003         -4.0451637469232082E-003
  0.14950000000000002         -3.9112800732254982E-003
  0.15060000000000001         -3.7680002860724926E-003
  0.15170000000000000         -3.6181674804538488E-003
  0.15280000000000005         -3.4643793478608131E-003
  0.15390000000000004         -3.3087653573602438E-003
  0.15500000000000003         -3.1529355328530073E-003
  0.15610000000000002         -2.9981739353388548E-003
  0.15720000000000001         -2.8456915169954300E-003
  0.15830000000000000         -2.6966950390487909E-003
  0.15940000000000004         -2.5522182695567608E-003
  0.16050000000000003         -2.4129170924425125E-003
  0.16160000000000002         -2.2790697403252125E-003
  0.16270000000000001         -2.1508038043975830E-003
  0.16380000000000000         -2.0283313933759928E-003
  0.16490000000000005         -1.9119661301374435E-003
  0.16600000000000004         -1.8019203562289476E-003
  0.16710000000000003         -1.6981135122478008E-003
  0.16820000000000002         -1.6002077609300613E-003
  0.16930000000000001         -1.5078490832820535E-003
  0.17040000000000000         -1.4208760112524033E-003
  0.17150000000000004         -1.3392874971032143E-003
  0.17260000000000003         -1.2630142737179995E-003
  0.17370000000000002         -1.1917401570826769E-003
  0.17480000000000001         -1.1249666567891836E-003
  0.17590000000000000         -1.0622602421790361E-003
  0.17700000000000005         -1.0034303413704038E-003
  0.17810000000000004         -9.4845663988962770E-004
  0.17920000000000003         -8.9724839199334383E-004
  0.18030000000000002         -8.4948772564530373E-004
  0.18140000000000001         -8.0471893306821585E-004
  0.18250000000000000         -7.6259230263531208E-004
  0.18360000000000004         -7.2300870670005679E-004
  0.18470000000000003         -6.8601738894358277E-004
  0.18580000000000002         -6.5157673088833690E-004
  0.18690000000000001         -6.1942642787471414E-004
  0.18800000000000000         -5.8919942239299417E-004
  0.18910000000000005         -5.6065357057377696E-004
  0.19020000000000004         -5.3378060692921281E-004
  0.19130000000000003         -5.0868198741227388E-004
  0.19240000000000002         -4.8534348024986684E-004
  0.19350000000000001         -4.6354340156540275E-004
  0.19460000000000005         -4.4298570719547570E-004
  0.19570000000000004         -4.2351463343948126E-004
  0.19680000000000003         -4.0518623427487910E-004
  0.19790000000000002         -3.8812396815046668E-004
  0.19900000000000001         -3.7231112946756184E-004
  0.20010000000000000         -3.5753496922552586E-004
  0.20120000000000005         -3.4353710361756384E-004
  0.20230000000000004         -3.3021028502844274E-004
  0.20340000000000003         -3.1763731385581195E-004
  0.20450000000000002         -3.0593501287512481E-004
  0.20560000000000000         -2.9506834107451141E-004
  0.20670000000000005         -2.8482810012064874E-004
  0.20780000000000004         -2.7499228599481285E-004
  0.20890000000000003         -2.6550053735263646E-004
