 -0.12000000000000000          0.0000000000000000
 -0.11889999999999999          0.0000000000000000
 -0.11780000000000000          0.0000000000000000
 -0.11670000000000000          0.0000000000000000
 -0.11559999999999999          1.7095492266504908E-017
 -0.11449999999999999          4.2738731493442882E-017
 -0.11340000000000000          3.4190987841732265E-017
 -0.11230000000000000          2.5643244190021649E-017
 -0.11119999999999999          7.6929722643897597E-017
 -0.11009999999999999         -8.5477337255432655E-018
 -0.10900000000000000         -4.3593503542508228E-016
 -0.10790000000000000         -1.2052321692198296E-015
 -0.10679999999999999         -8.8041774501870372E-016
 -0.10569999999999999         -4.1883936945064874E-016
 -0.10460000000000000          6.5817673432902782E-016
 -0.10349999999999999          3.5131239941205454E-015
 -0.10239999999999999          2.5386805626984900E-015
 -0.10130000000000000         -6.5048352582185512E-015
 -0.10020000000000000         -1.3907184933281865E-014
  -9.9099999999999994E-002    -1.2283114453402570E-014
  -9.7999999999999990E-002    -7.3767099877499256E-015
  -9.6899999999999986E-002    -1.3761930641289014E-015
  -9.5799999999999996E-002     1.2830160517991393E-014
  -9.4699999999999993E-002     2.0950517999585548E-014
  -9.3599999999999989E-002     2.8122002068611124E-015
  -9.2499999999999999E-002    -2.5173121237249269E-014
  -9.1399999999999995E-002    -2.3617433421267708E-014
  -9.0299999999999991E-002    -3.4618482193837959E-015
  -8.9200000000000002E-002     9.0349574000179837E-015
  -8.8099999999999984E-002    -4.7269139489647220E-015
  -8.6999999999999994E-002    -7.5382584831425181E-014
  -8.5899999999999990E-002    -1.3072069739595432E-013
  -8.4799999999999986E-002    -1.9753851874561301E-014
  -8.3699999999999997E-002     1.8421248142337643E-013
  -8.2599999999999993E-002     1.2559205520186467E-013
  -8.1499999999999989E-002    -3.3686632449443296E-014
  -8.0399999999999999E-002     1.5277392523792288E-013
  -7.9299999999999995E-002     3.2610513681780029E-013
  -7.8199999999999992E-002     1.9308514476960165E-013
  -7.7100000000000002E-002     2.8764032713839149E-013
  -7.5999999999999984E-002     9.2487476011093861E-013
  -7.4899999999999994E-002     1.4920860770886724E-012
  -7.3799999999999991E-002     1.3415604347907784E-012
  -7.2699999999999987E-002     1.4068764599486916E-013
  -7.1599999999999997E-002    -1.5328413451726197E-012
  -7.0499999999999993E-002    -2.1560231898420934E-012
  -6.9399999999999989E-002    -9.5860342233522466E-013
  -6.8300000000000000E-002    -7.6287852987869109E-014
  -6.7199999999999996E-002     5.2593519817012435E-013
  -6.6099999999999992E-002    -5.1738550509855541E-013
  -6.5000000000000002E-002    -8.9548637602354653E-013
  -6.3899999999999985E-002    -1.4836566220380321E-012
  -6.2799999999999995E-002     2.0595378701082634E-012
  -6.1699999999999991E-002     4.4823619642364587E-012
  -6.0599999999999994E-002     6.3450013472465816E-012
  -5.9499999999999990E-002     8.9778939491025334E-012
  -5.8399999999999994E-002     7.5494454437885494E-012
  -5.7299999999999990E-002     5.9809505438546129E-012
  -5.6199999999999986E-002     1.0854583724906330E-011
  -5.5099999999999996E-002     6.2050698780569125E-012
  -5.3999999999999992E-002    -5.7268491164552682E-012
  -5.2899999999999989E-002    -3.6424967209125469E-011
  -5.1799999999999985E-002    -8.4208723327705570E-011
  -5.0699999999999995E-002    -8.9138321723858382E-011
  -4.9599999999999991E-002    -3.0486915075789156E-011
  -4.8499999999999988E-002     5.0291801972912609E-011
  -4.7399999999999998E-002     8.6815887812008441E-011
  -4.6299999999999994E-002     8.3006657103368298E-011
  -4.5199999999999990E-002     2.5419649024582824E-011
  -4.4099999999999986E-002    -2.8246065209014404E-011
  -4.2999999999999997E-002     1.7801166790620826E-011
  -4.1899999999999993E-002     1.8148728353484245E-010
  -4.0799999999999989E-002     2.6002527908630668E-010
  -3.9699999999999985E-002     1.1785031284183844E-010
  -3.8599999999999995E-002    -1.6997278584618414E-010
  -3.7499999999999992E-002    -3.7040701061918924E-010
  -3.6399999999999988E-002    -2.6161905974930733E-010
  -3.5299999999999984E-002    -1.3266443499304614E-010
  -3.4199999999999994E-002    -2.0985792270611370E-010
  -3.3099999999999991E-002    -7.1940342571963356E-011
  -3.1999999999999987E-002     3.6511610401745997E-010
  -3.0899999999999997E-002     7.7976514134547870E-010
  -2.9799999999999993E-002     8.4821971668702645E-010
  -2.8699999999999989E-002     4.1586886712075000E-010
  -2.7599999999999986E-002    -3.6648635515224015E-011
  -2.6499999999999996E-002    -1.1720319159636006E-010
  -2.5399999999999992E-002     4.7110326750754439E-010
  -2.4299999999999988E-002     9.6081720357688027E-010
  -2.3199999999999985E-002     3.1223496010923668E-010
  -2.2099999999999995E-002    -1.0713100406789522E-009
  -2.0999999999999991E-002    -2.2094939211569908E-009
  -1.9899999999999987E-002    -1.6637614619341434E-009
  -1.8799999999999983E-002     2.4714219559740513E-010
  -1.7699999999999994E-002     2.1098698343990918E-009
  -1.6599999999999990E-002     2.2763571028150409E-009
  -1.5499999999999986E-002     5.3373372388421103E-010
  -1.4399999999999996E-002    -1.0878897782617969E-009
  -1.3299999999999992E-002    -1.5801802089043804E-009
  -1.2199999999999989E-002    -1.7453225531482985E-009
  -1.1099999999999985E-002    -2.5244277779279400E-009
  -9.9999999999999950E-003    -3.7427181354132699E-009
  -8.8999999999999913E-003    -2.9533051559837986E-009
  -7.7999999999999875E-003     6.7885252974519972E-011
  -6.6999999999999837E-003     3.9226311088214061E-009
  -5.5999999999999939E-003     6.2088592045483892E-009
  -4.4999999999999901E-003     5.5373092777699640E-009
  -3.3999999999999864E-003     1.4419080374139526E-009
  -2.2999999999999826E-003    -2.3129005377597878E-009
  -1.1999999999999927E-003    -2.0702284331264309E-009
  -9.9999999999988987E-005     7.8962847371855105E-010
   1.0000000000000148E-003     7.2756001223694966E-010
   2.1000000000000185E-003    -3.4036931051417696E-009
   3.2000000000000084E-003    -9.0048724032953942E-009
   4.3000000000000121E-003    -1.1558643819853387E-008
   5.4000000000000159E-003    -6.3325651389334325E-009
   6.5000000000000058E-003     2.2994393056308127E-009
   7.6000000000000234E-003     6.0555933600880962E-009
   8.7000000000000133E-003     2.0318959847998030E-009
   9.8000000000000032E-003    -3.7843936873116490E-009
   1.0900000000000021E-002    -2.9322404504483757E-009
   1.2000000000000011E-002     4.8393187235262758E-009
   1.3100000000000001E-002     9.8861381303549933E-009
   1.4200000000000018E-002     4.9661439405213059E-009
   1.5300000000000008E-002    -9.2394785156102444E-009
   1.6400000000000026E-002    -2.0505249054281194E-008
   1.7500000000000016E-002    -1.6784948542181155E-008
   1.8600000000000005E-002    -6.9576078232103100E-010
   1.9700000000000023E-002     1.2955501560441007E-008
   2.0800000000000013E-002     1.2767952028980289E-008
   2.1900000000000003E-002     2.1295880614502494E-009
   2.3000000000000020E-002    -5.9364064775024872E-009
   2.4100000000000010E-002    -3.5605500769975151E-009
   2.5200000000000000E-002     4.1930832139769336E-009
   2.6300000000000018E-002     5.1920041599373690E-009
   2.7400000000000008E-002    -3.4128873060979004E-009
   2.8500000000000025E-002    -1.5441630196733058E-008
   2.9600000000000015E-002    -1.9314077448484568E-008
   3.0700000000000005E-002    -1.1696009494244208E-008
   3.1800000000000023E-002     8.8753893123794114E-010
   3.2900000000000013E-002     9.2047169886200209E-009
   3.4000000000000002E-002     8.2721189897938530E-009
   3.5100000000000020E-002     1.3881145122240923E-009
   3.6200000000000010E-002    -7.2759487323992289E-010
   3.7300000000000028E-002     1.6381767053985641E-009
   3.8400000000000017E-002     6.0116516209518522E-009
   3.9500000000000007E-002     6.0829052905830849E-009
   4.0600000000000025E-002     1.1349006179273147E-009
   4.1700000000000015E-002    -7.5416952682871852E-009
   4.2800000000000005E-002    -1.3421847633310335E-008
   4.3900000000000022E-002    -1.1629705198856755E-008
   4.5000000000000012E-002    -2.5237858469751018E-009
   4.6100000000000002E-002     5.7216897886291918E-009
   4.7200000000000020E-002     9.5932399801768042E-009
   4.8300000000000010E-002     1.0023013530258140E-008
   4.9400000000000027E-002     8.2299722592438229E-009
   5.0500000000000017E-002     5.0028563514104007E-009
   5.1600000000000007E-002     6.2848132253989775E-010
   5.2700000000000025E-002    -6.7574488227251095E-009
   5.3800000000000014E-002    -1.2135675575564164E-008
   5.4900000000000004E-002    -1.4609904397389073E-008
   5.6000000000000022E-002    -1.0379836545837406E-008
   5.7100000000000012E-002    -4.4288799294633918E-009
   5.8200000000000002E-002    -5.5404070220532731E-011
   5.9300000000000019E-002     3.0632569814059707E-009
   6.0400000000000009E-002     7.9745108294559941E-009
   6.1500000000000027E-002     1.4301911654968080E-008
   6.2600000000000017E-002     1.5574203260371178E-008
   6.3700000000000007E-002     1.0043605946918888E-008
   6.4800000000000024E-002     2.2140087541089315E-009
   6.5900000000000014E-002    -2.2780053399173994E-009
   6.7000000000000004E-002     5.6616422661193155E-010
   6.8100000000000022E-002     6.0633711385094102E-009
   6.9200000000000012E-002     6.7026517669432906E-009
   7.0300000000000029E-002    -2.7145090619740131E-009
   7.1400000000000019E-002    -1.7939667529276448E-008
   7.2500000000000009E-002    -2.7536087188195779E-008
   7.3600000000000027E-002    -2.3114438363336376E-008
   7.4700000000000016E-002    -9.8373806878271353E-009
   7.5800000000000006E-002     1.3602708959226106E-009
   7.6900000000000024E-002     4.0251824096060318E-009
   7.8000000000000014E-002    -8.5905504931815813E-011
   7.9100000000000004E-002    -1.7590681133938801E-009
   8.0200000000000021E-002     3.4513236712996331E-009
   8.1300000000000011E-002     1.1135493416247755E-008
   8.2400000000000029E-002     1.1398331167811193E-008
   8.3500000000000019E-002     8.3391027416723773E-010
   8.4600000000000009E-002    -1.2706214747026934E-008
   8.5700000000000026E-002    -1.7104119010014074E-008
   8.6800000000000016E-002    -8.0575803806937074E-009
   8.7900000000000006E-002     7.4064381294647319E-009
   8.9000000000000024E-002     1.7349274017419702E-008
   9.0100000000000013E-002     1.6572407446346915E-008
   9.1200000000000003E-002     8.9478389142527703E-009
   9.2300000000000021E-002     2.9366040710243624E-009
   9.3400000000000011E-002     1.1558869417171991E-009
   9.4500000000000028E-002    -2.1253386550679210E-010
   9.5600000000000018E-002    -5.5605093862709509E-009
   9.6700000000000008E-002    -1.2987891651050631E-008
   9.7800000000000026E-002    -1.5180905421630086E-008
   9.8900000000000016E-002    -5.2739204114971017E-009
  0.10000000000000001          1.1839286884196554E-008
  0.10110000000000002          2.3547826799585891E-008
  0.10220000000000001          2.0610887219163487E-008
  0.10330000000000003          5.7532103525659295E-009
  0.10440000000000002         -9.1851335426440528E-009
  0.10550000000000001         -1.2955627681776605E-008
  0.10660000000000003         -5.5537898724367096E-009
  0.10770000000000002          3.1857698701287518E-009
  0.10880000000000001          5.1919046839543626E-009
  0.10990000000000003          1.5048786661253644E-009
  0.11100000000000002          6.0911498067639513E-010
  0.11210000000000001          7.4876007616353490E-009
  0.11320000000000002          1.7562500786993951E-008
  0.11430000000000001          2.0543218681723374E-008
  0.11540000000000003          1.0868234312511049E-008
  0.11650000000000002         -5.5827502620786618E-009
  0.11760000000000001         -1.5950126552866095E-008
  0.11870000000000003         -1.2595210208132812E-008
  0.11980000000000002          5.0692827713305633E-010
  0.12090000000000001          1.2197400423019644E-008
  0.12200000000000003          1.3737318838025203E-008
  0.12310000000000001          5.0370529969256950E-009
  0.12420000000000003         -6.4865459670215841E-009
  0.12530000000000002         -1.3067071868988478E-008
  0.12640000000000001         -1.1782599784737613E-008
  0.12750000000000003         -5.3130539967582990E-009
  0.12860000000000002          1.8197512385853543E-009
  0.12970000000000001          7.3123338495406642E-009
  0.13080000000000003          1.0631398872362752E-008
  0.13190000000000002          1.1017334600182949E-008
  0.13300000000000001          8.4992715088105797E-009
  0.13410000000000000          4.3947641081842903E-009
  0.13520000000000004          1.2851451014483928E-009
  0.13630000000000003          8.0615536468542359E-010
  0.13740000000000002          2.5791098146044078E-009
  0.13850000000000001          4.8248605111211873E-009
  0.13960000000000000          6.2213709739467049E-009
  0.14070000000000005          7.9786399709291800E-009
  0.14180000000000004          1.1710001857068164E-008
  0.14290000000000003          1.6346623610274946E-008
  0.14400000000000002          1.7618772218952472E-008
  0.14510000000000001          1.1682460332451683E-008
  0.14620000000000000         -5.9402704977173926E-010
  0.14730000000000004         -1.2955662320734973E-008
  0.14840000000000003         -1.8155891012838765E-008
  0.14950000000000002         -1.4187010677346734E-008
  0.15060000000000001         -6.0391496248257681E-009
  0.15170000000000000         -5.6897275779732581E-010
  0.15280000000000005         -3.9254532957500032E-010
  0.15390000000000004         -1.9750991953060293E-009
  0.15500000000000003         -5.9427385235011343E-010
  0.15610000000000002          4.1218934931919193E-009
  0.15720000000000001          7.3838202219178584E-009
  0.15830000000000000          4.9901185406042714E-009
  0.15940000000000004         -1.3259986442193394E-009
  0.16050000000000003         -4.5963894912404157E-009
  0.16160000000000002          9.0088825288603402E-011
  0.16270000000000001          9.8081498478563844E-009
  0.16380000000000000          1.6010488934625755E-008
  0.16490000000000005          1.2429756779397394E-008
  0.16600000000000004          1.4809089510237072E-009
  0.16710000000000003         -7.7162400913266538E-009
  0.16820000000000002         -8.1677793417611610E-009
  0.16930000000000001         -1.7929024931362392E-009
  0.17040000000000000          2.9182247729409028E-009
  0.17150000000000004         -2.3116464298311712E-010
  0.17260000000000003         -8.6275289135073763E-009
  0.17370000000000002         -1.3523295372408484E-008
  0.17480000000000001         -9.1760083975600537E-009
  0.17590000000000000          9.8011732063696400E-010
  0.17700000000000005          7.7244362017836465E-009
  0.17810000000000004          5.4889888190245983E-009
  0.17920000000000003         -1.6225893961774318E-009
  0.18030000000000002         -3.7513219197649050E-009
  0.18140000000000001          4.7150074955482069E-009
  0.18250000000000000          1.8944520618902061E-008
  0.18360000000000004          2.7655650214342131E-008
  0.18470000000000003          2.3553386796493214E-008
  0.18580000000000002          9.7761656547845632E-009
  0.18690000000000001         -3.6925338342541636E-009
  0.18800000000000000         -9.3965084602132265E-009
  0.18910000000000005         -8.3038962372938840E-009
  0.19020000000000004         -6.5779954816491681E-009
  0.19130000000000003         -7.8303186157313576E-009
  0.19240000000000002         -8.8526856956150368E-009
  0.19350000000000001         -4.0263001821472244E-009
  0.19460000000000005          7.2475350165746022E-009
  0.19570000000000004          1.7904046245575955E-008
  0.19680000000000003          1.9123678640653452E-008
  0.19790000000000002          9.0235108274328013E-009
  0.19900000000000001         -4.8901176441518146E-009
  0.20010000000000000         -1.2209947719554748E-008
  0.20120000000000005         -9.0916385531158994E-009
  0.20230000000000004         -1.0567242636483343E-009
  0.20340000000000003          3.2386044956922433E-009
  0.20450000000000002          1.0098073488506998E-009
  0.20560000000000000         -2.3281565564303719E-009
  0.20670000000000005          4.3128389748403606E-010
  0.20780000000000004          9.7110683938694820E-009
  0.20890000000000003          1.7534302898525311E-008
