 -0.12000000000000000          0.0000000000000000
 -0.11889999999999999          0.0000000000000000
 -0.11780000000000000          0.0000000000000000
 -0.11670000000000000          0.0000000000000000
 -0.11559999999999999          0.0000000000000000
 -0.11449999999999999          0.0000000000000000
 -0.11340000000000000          0.0000000000000000
 -0.11230000000000000         -4.5849432281683779E-019
 -0.11119999999999999         -1.0991091251765676E-017
 -0.11009999999999999         -7.9307099281379103E-017
 -0.10900000000000000         -2.8788892283808116E-016
 -0.10790000000000000         -5.2225028678869645E-016
 -0.10679999999999999          8.7207706452664983E-017
 -0.10569999999999999          3.3113740868534903E-015
 -0.10460000000000000          9.7282470910820505E-015
 -0.10349999999999999          1.3625831081390087E-014
 -0.10239999999999999         -4.4949412708649231E-016
 -0.10130000000000000         -4.8583878619386928E-014
 -0.10020000000000000         -1.1905103639020531E-013
  -9.9099999999999994E-002    -1.4120585397573576E-013
  -9.7999999999999990E-002     1.5159924639414346E-015
  -9.6899999999999986E-002     3.7092906328937969E-013
  -9.5799999999999996E-002     8.1437872938294742E-013
  -9.4699999999999993E-002     8.8972178149265835E-013
  -9.3599999999999989E-002     6.5232677115903415E-014
  -9.2499999999999999E-002    -1.7635778904942501E-012
  -9.1399999999999995E-002    -3.7332381110088964E-012
  -9.0299999999999991E-002    -4.0239374332617928E-012
  -8.9200000000000002E-002    -8.7016082273710937E-013
  -8.8099999999999984E-002     5.6868485615035880E-012
  -8.6999999999999994E-002     1.2493681436631654E-011
  -8.5899999999999990E-002     1.3970554747777530E-011
  -8.4799999999999986E-002     5.4074856571662000E-012
  -8.3699999999999997E-002    -1.2552763516138210E-011
  -8.2599999999999993E-002    -3.1500035219123035E-011
  -8.1499999999999989E-002    -3.7987016310303545E-011
  -8.0399999999999999E-002    -2.1514432596569932E-011
  -7.9299999999999995E-002     1.6441462774574589E-011
  -7.8199999999999992E-002     5.9012669750835300E-011
  -7.7100000000000002E-002     8.0573971106279174E-011
  -7.5999999999999984E-002     6.1386812300057159E-011
  -7.4899999999999994E-002     1.6826713633566470E-012
  -7.3799999999999991E-002    -7.4601338995172739E-011
  -7.2699999999999987E-002    -1.3016682176569816E-010
  -7.1599999999999997E-002    -1.3311529656334642E-010
  -7.0499999999999993E-002    -7.3025377411717329E-011
  -6.9399999999999989E-002     3.3847143837695270E-011
  -6.8300000000000000E-002     1.5019642474189965E-010
  -6.7199999999999996E-002     2.2854837467001232E-010
  -6.6099999999999992E-002     2.2397879384516983E-010
  -6.5000000000000002E-002     1.1079891171217326E-010
  -6.3899999999999985E-002    -9.5711202852122312E-011
  -6.2799999999999995E-002    -3.2298630436855547E-010
  -6.1699999999999991E-002    -4.5220782673993654E-010
  -6.0599999999999994E-002    -3.7173319977767960E-010
  -5.9499999999999990E-002    -5.6570331752325842E-011
  -5.8399999999999994E-002     3.7819913867309651E-010
  -5.7299999999999990E-002     7.0606270829998152E-010
  -5.6199999999999986E-002     7.0869687895935840E-010
  -5.5099999999999996E-002     3.2238609004586749E-010
  -5.3999999999999992E-002    -2.9267452350545398E-010
  -5.2899999999999989E-002    -8.2536966150570379E-010
  -5.1799999999999985E-002    -9.9373631545773833E-010
  -5.0699999999999995E-002    -7.1162598036522695E-010
  -4.9599999999999991E-002    -1.2666637183578189E-010
  -4.8499999999999988E-002     4.8736586988340491E-010
  -4.7399999999999998E-002     8.9073465270317342E-010
  -4.6299999999999994E-002     9.7284869049474310E-010
  -4.5199999999999990E-002     7.4456973919723168E-010
  -4.4099999999999986E-002     2.9142743773746815E-010
  -4.2999999999999997E-002    -2.3329868592547598E-010
  -4.1899999999999993E-002    -5.8664134661157163E-010
  -4.0799999999999989E-002    -4.8894499560248050E-010
  -3.9699999999999985E-002     1.7676302088709406E-010
  -3.8599999999999995E-002     1.1152264667302347E-009
  -3.7499999999999992E-002     1.5671594022492741E-009
  -3.6399999999999988E-002     6.5117200520603546E-010
  -3.5299999999999984E-002    -1.9897532510526617E-009
  -3.4199999999999994E-002    -5.6416413762860884E-009
  -3.3099999999999991E-002    -8.5336155919435441E-009
  -3.1999999999999987E-002    -8.5575262431802912E-009
  -3.0899999999999997E-002    -4.3486987344465433E-009
  -2.9799999999999993E-002     3.9026755160875837E-009
  -2.8699999999999989E-002     1.4381327240187147E-008
  -2.7599999999999986E-002     2.4294402933833226E-008
  -2.6499999999999996E-002     3.0757274060988493E-008
  -2.5399999999999992E-002     3.1351611085028708E-008
  -2.4299999999999988E-002     2.4091574957196826E-008
  -2.3199999999999985E-002     6.9505174948858439E-009
  -2.2099999999999995E-002    -2.2676713840041884E-008
  -2.0999999999999991E-002    -6.8262792751738743E-008
  -1.9899999999999987E-002    -1.3408691756922053E-007
  -1.8799999999999983E-002    -2.2491009588065936E-007
  -1.7699999999999994E-002    -3.4558814832053031E-007
  -1.6599999999999990E-002    -5.0090409331460251E-007
  -1.5499999999999986E-002    -6.9592630325132632E-007
  -1.4399999999999996E-002    -9.3704090886603808E-007
  -1.3299999999999992E-002    -1.2334166967775673E-006
  -1.2199999999999989E-002    -1.5982442391759832E-006
  -1.1099999999999985E-002    -2.0490554106800118E-006
  -9.9999999999999950E-003    -2.6070176772918785E-006
  -8.8999999999999913E-003    -3.2959867439785739E-006
  -7.7999999999999875E-003    -4.1426123971177731E-006
  -6.6999999999999837E-003    -5.1783140406769235E-006
  -5.5999999999999939E-003    -6.4426853896293323E-006
  -4.4999999999999901E-003    -7.9867613749229349E-006
  -3.3999999999999864E-003    -9.8745385912479833E-006
  -2.2999999999999826E-003    -1.2182380487502087E-005
  -1.1999999999999927E-003    -1.4997543075878639E-005
  -9.9999999999988987E-005    -1.8417855244479142E-005
   1.0000000000000148E-003    -2.2553926100954413E-005
   2.1000000000000185E-003    -2.7533780666999519E-005
   3.2000000000000084E-003    -3.3508586056996137E-005
   4.3000000000000121E-003    -4.0657909266883507E-005
   5.4000000000000159E-003    -4.9193644372280687E-005
   6.5000000000000058E-003    -5.9362744650570676E-005
   7.6000000000000234E-003    -7.1449292590841651E-005
   8.7000000000000133E-003    -8.5776388004887849E-005
   9.8000000000000032E-003    -1.0270862549077719E-004
   1.0900000000000021E-002    -1.2265593977645040E-004
   1.2000000000000011E-002    -1.4607950288336724E-004
   1.3100000000000001E-002    -1.7349948757328093E-004
   1.4200000000000018E-002    -2.0550360204651952E-004
   1.5300000000000008E-002    -2.4275392934214324E-004
   1.6400000000000026E-002    -2.8599135112017393E-004
   1.7500000000000016E-002    -3.3603719202801585E-004
   1.8600000000000005E-002    -3.9379380177706480E-004
   1.9700000000000023E-002    -4.6024590847082436E-004
   2.0800000000000013E-002    -5.3646351443603635E-004
   2.1900000000000003E-002    -6.2360498122870922E-004
   2.3000000000000020E-002    -7.2292034747079015E-004
   2.4100000000000010E-002    -8.3575269673019648E-004
   2.5200000000000000E-002    -9.6353783737868071E-004
   2.6300000000000018E-002    -1.1078020324930549E-003
   2.7400000000000008E-002    -1.2701568193733692E-003
   2.8500000000000025E-002    -1.4522878918796778E-003
   2.9600000000000015E-002    -1.6559400828555226E-003
   3.0700000000000005E-002    -1.8828983884304762E-003
   3.1800000000000023E-002    -2.1349694579839706E-003
   3.2900000000000013E-002    -2.4139638990163803E-003
   3.4000000000000002E-002    -2.7216775342822075E-003
   3.5100000000000020E-002    -3.0598691664636135E-003
   3.6200000000000010E-002    -3.4302324056625366E-003
   3.7300000000000028E-002    -3.8343591149896383E-003
   3.8400000000000017E-002    -4.2736954055726528E-003
   3.9500000000000007E-002    -4.7494964674115181E-003
   4.0600000000000025E-002    -5.2627841942012310E-003
   4.1700000000000015E-002    -5.8142980560660362E-003
   4.2800000000000005E-002    -6.4044520258903503E-003
   4.3900000000000022E-002    -7.0332856848835945E-003
   4.5000000000000012E-002    -7.7004190534353256E-003
   4.6100000000000002E-002    -8.4050102159380913E-003
   4.7200000000000020E-002    -9.1457050293684006E-003
   4.8300000000000010E-002    -9.9205952137708664E-003
   4.9400000000000027E-002    -1.0727159678936005E-002
   5.0500000000000017E-002    -1.1562230996787548E-002
   5.1600000000000007E-002    -1.2421953491866589E-002
   5.2700000000000025E-002    -1.3301777653396130E-002
   5.3800000000000014E-002    -1.4196444302797318E-002
   5.4900000000000004E-002    -1.5099988318979740E-002
   5.6000000000000022E-002    -1.6005745157599449E-002
   5.7100000000000012E-002    -1.6906356438994408E-002
   5.8200000000000002E-002    -1.7793809995055199E-002
   5.9300000000000019E-002    -1.8659478053450584E-002
   6.0400000000000009E-002    -1.9494188949465752E-002
   6.1500000000000027E-002    -2.0288294181227684E-002
   6.2600000000000017E-002    -2.1031748503446579E-002
   6.3700000000000007E-002    -2.1714219823479652E-002
   6.4800000000000024E-002    -2.2325204685330391E-002
   6.5900000000000014E-002    -2.2854147478938103E-002
   6.7000000000000004E-002    -2.3290576413273811E-002
   6.8100000000000022E-002    -2.3624278604984283E-002
   6.9200000000000012E-002    -2.3845443502068520E-002
   7.0300000000000029E-002    -2.3944828659296036E-002
   7.1400000000000019E-002    -2.3913910612463951E-002
   7.2500000000000009E-002    -2.3745035752654076E-002
   7.3600000000000027E-002    -2.3431586101651192E-002
   7.4700000000000016E-002    -2.2968128323554993E-002
   7.5800000000000006E-002    -2.2350540384650230E-002
   7.6900000000000024E-002    -2.1576164290308952E-002
   7.8000000000000014E-002    -2.0643910393118858E-002
   7.9100000000000004E-002    -1.9554356113076210E-002
   8.0200000000000021E-002    -1.8309818580746651E-002
   8.1300000000000011E-002    -1.6914393752813339E-002
   8.2400000000000029E-002    -1.5373975038528442E-002
   8.3500000000000019E-002    -1.3696249574422836E-002
   8.4600000000000009E-002    -1.1890650726854801E-002
   8.5700000000000026E-002    -9.9682975560426712E-003
   8.6800000000000016E-002    -7.9418960958719254E-003
   8.7900000000000006E-002    -5.8256266638636589E-003
   8.9000000000000024E-002    -3.6349880974739790E-003
   9.0100000000000013E-002    -1.3866312801837921E-003
   9.1200000000000003E-002     9.0183160500600934E-004
   9.2300000000000021E-002     3.2120405230671167E-003
   9.3400000000000011E-002     5.5251168087124825E-003
   9.4500000000000028E-002     7.8219110146164894E-003
   9.5600000000000018E-002     1.0083266533911228E-002
   9.6700000000000008E-002     1.2290280312299728E-002
   9.7800000000000026E-002     1.4424557797610760E-002
   9.8900000000000016E-002     1.6468452289700508E-002
  0.10000000000000001          1.8405294045805931E-002
  0.10110000000000002          2.0219607278704643E-002
  0.10220000000000001          2.1897323429584503E-002
  0.10330000000000003          2.3425972089171410E-002
  0.10440000000000002          2.4794837459921837E-002
  0.10550000000000001          2.5995088741183281E-002
  0.10660000000000003          2.7019871398806572E-002
  0.10770000000000002          2.7864359319210052E-002
  0.10880000000000001          2.8525812551379204E-002
  0.10990000000000003          2.9003594070672989E-002
  0.11100000000000002          2.9299143701791763E-002
  0.11210000000000001          2.9415896162390709E-002
  0.11320000000000002          2.9359184205532074E-002
  0.11430000000000001          2.9136126860976219E-002
  0.11540000000000003          2.8755476698279381E-002
  0.11650000000000002          2.8227472677826881E-002
  0.11760000000000001          2.7563650161027908E-002
  0.11870000000000003          2.6776650920510292E-002
  0.11980000000000002          2.5880001485347748E-002
  0.12090000000000001          2.4887913838028908E-002
  0.12200000000000003          2.3815073072910309E-002
  0.12310000000000001          2.2676423192024231E-002
  0.12420000000000003          2.1486956626176834E-002
  0.12530000000000002          2.0261500030755997E-002
  0.12640000000000001          1.9014520570635796E-002
  0.12750000000000003          1.7759937793016434E-002
  0.12860000000000002          1.6510989516973495E-002
  0.12970000000000001          1.5280084684491158E-002
  0.13080000000000003          1.4078677631914616E-002
  0.13190000000000002          1.2917147018015385E-002
  0.13300000000000001          1.1804712936282158E-002
  0.13410000000000000          1.0749381966888905E-002
  0.13520000000000004          9.7579276189208031E-003
  0.13630000000000003          8.8358875364065170E-003
  0.13740000000000002          7.9875504598021507E-003
  0.13850000000000001          7.2159520350396633E-003
  0.13960000000000000          6.5228869207203388E-003
  0.14070000000000005          5.9089674614369869E-003
  0.14180000000000004          5.3737107664346695E-003
  0.14290000000000003          4.9156364984810352E-003
  0.14400000000000002          4.5323441736400127E-003
  0.14510000000000001          4.2205848731100559E-003
  0.14620000000000000          3.9763408713042736E-003
  0.14730000000000004          3.7949341349303722E-003
  0.14840000000000003          3.6711611319333315E-003
  0.14950000000000002          3.5994178615510464E-003
  0.15060000000000001          3.5737950820475817E-003
  0.15170000000000000          3.5881502553820610E-003
  0.15280000000000005          3.6361808888614178E-003
  0.15390000000000004          3.7115209270268679E-003
  0.15500000000000003          3.8078576326370239E-003
  0.15610000000000002          3.9190351963043213E-003
  0.15720000000000001          4.0391278453171253E-003
  0.15830000000000000          4.1624866425991058E-003
  0.15940000000000004          4.2837797664105892E-003
  0.16050000000000003          4.3980511836707592E-003
  0.16160000000000002          4.5007816515862942E-003
  0.16270000000000001          4.5879357494413853E-003
  0.16380000000000000          4.6559786424040794E-003
  0.16490000000000005          4.7018653713166714E-003
  0.16600000000000004          4.7230408526957035E-003
  0.16710000000000003          4.7174585051834583E-003
  0.16820000000000002          4.6836035326123238E-003
  0.16930000000000001          4.6204919926822186E-003
  0.17040000000000000          4.5276405289769173E-003
  0.17150000000000004          4.4050202704966068E-003
  0.17260000000000003          4.2530242353677750E-003
  0.17370000000000002          4.0724636055529118E-003
  0.17480000000000001          3.8645574823021889E-003
  0.17590000000000000          3.6308993585407734E-003
  0.17700000000000005          3.3733863383531570E-003
  0.17810000000000004          3.0941457953304052E-003
  0.17920000000000003          2.7954890392720699E-003
  0.18030000000000002          2.4799029342830181E-003
  0.18140000000000001          2.1500496659427881E-003
  0.18250000000000000          1.8087280914187431E-003
  0.18360000000000004          1.4587969053536654E-003
  0.18470000000000003          1.1030938476324081E-003
  0.18580000000000002          7.4439309537410736E-004
  0.18690000000000001          3.8540922105312347E-004
  0.18800000000000000          2.8809548894059844E-005
  0.18910000000000005         -3.2280929735861719E-004
  0.19020000000000004         -6.6698715090751648E-004
  0.19130000000000003         -1.0014701401814818E-003
  0.19240000000000002         -1.3242395361885428E-003
  0.19350000000000001         -1.6334912506863475E-003
  0.19460000000000005         -1.9276033854112029E-003
  0.19570000000000004         -2.2051334381103516E-003
  0.19680000000000003         -2.4648543912917376E-003
  0.19790000000000002         -2.7057924307882786E-003
  0.19900000000000001         -2.9272288084030151E-003
  0.20010000000000000         -3.1286652665585279E-003
  0.20120000000000005         -3.3097853884100914E-003
  0.20230000000000004         -3.4704494755715132E-003
  0.20340000000000003         -3.6107180640101433E-003
  0.20450000000000002         -3.7308663595467806E-003
  0.20560000000000000         -3.8313609547913074E-003
  0.20670000000000005         -3.9128065109252930E-003
  0.20780000000000004         -3.9759059436619282E-003
  0.20890000000000003         -4.0214564651250839E-003
