 -0.12000000000000000          0.0000000000000000
 -0.11889999999999999          0.0000000000000000
 -0.11780000000000000          0.0000000000000000
 -0.11670000000000000          0.0000000000000000
 -0.11559999999999999          0.0000000000000000
 -0.11449999999999999          0.0000000000000000
 -0.11340000000000000          0.0000000000000000
 -0.11230000000000000         -4.5849297864834239E-019
 -0.11119999999999999         -1.0991086288682000E-017
 -0.11009999999999999         -7.9307125751158704E-017
 -0.10900000000000000         -2.8788900224741996E-016
 -0.10790000000000000         -5.2225049854693326E-016
 -0.10679999999999999          8.7207971150461000E-017
 -0.10569999999999999          3.3113757809193848E-015
 -0.10460000000000000          9.7282496321808923E-015
 -0.10349999999999999          1.3625828540291245E-014
 -0.10239999999999999         -4.4949751521828132E-016
 -0.10130000000000000         -4.8583895560045873E-014
 -0.10020000000000000         -1.1905106349525962E-013
  -9.9099999999999994E-002    -1.4120588108079007E-013
  -9.7999999999999990E-002     1.5158772674606080E-015
  -9.6899999999999986E-002     3.7092900907927107E-013
  -9.5799999999999996E-002     8.1437883780316467E-013
  -9.4699999999999993E-002     8.8972232359374459E-013
  -9.3599999999999989E-002     6.5233327637206906E-014
  -9.2499999999999999E-002    -1.7635777820740328E-012
  -9.1399999999999995E-002    -3.7332394120515033E-012
  -9.0299999999999991E-002    -4.0239396016661377E-012
  -8.9200000000000002E-002    -8.7016331640210609E-013
  -8.8099999999999984E-002     5.6868468267801120E-012
  -8.6999999999999994E-002     1.2493684038716868E-011
  -8.5899999999999990E-002     1.3970559951947958E-011
  -8.4799999999999986E-002     5.4074917286983659E-012
  -8.3699999999999997E-002    -1.2552762648776472E-011
  -8.2599999999999993E-002    -3.1500045627463891E-011
  -8.1499999999999989E-002    -3.7987030188091353E-011
  -8.0399999999999999E-002    -2.1514453413251644E-011
  -7.9299999999999995E-002     1.6441445427339829E-011
  -7.8199999999999992E-002     5.9012669750835300E-011
  -7.7100000000000002E-002     8.0573998861854790E-011
  -7.5999999999999984E-002     6.1386840055632774E-011
  -7.4899999999999994E-002     1.6826800369740269E-012
  -7.3799999999999991E-002    -7.4601352872960547E-011
  -7.2699999999999987E-002    -1.3016683564348597E-010
  -7.1599999999999997E-002    -1.3311531044113423E-010
  -7.0499999999999993E-002    -7.3025405167292945E-011
  -6.9399999999999989E-002     3.3847154246036126E-011
  -6.8300000000000000E-002     1.5019652188641430E-010
  -6.7199999999999996E-002     2.2854848569231478E-010
  -6.6099999999999992E-002     2.2397879384516983E-010
  -6.5000000000000002E-002     1.1079877293429519E-010
  -6.3899999999999985E-002    -9.5711306935530871E-011
  -6.2799999999999995E-002    -3.2298616559067739E-010
  -6.1699999999999991E-002    -4.5220741040630230E-010
  -6.0599999999999994E-002    -3.7173270017731852E-010
  -5.9499999999999990E-002    -5.6570081952145301E-011
  -5.8399999999999994E-002     3.7819883336176474E-010
  -5.7299999999999990E-002     7.0606182012156182E-010
  -5.6199999999999986E-002     7.0869565771403131E-010
  -5.5099999999999996E-002     3.2238520186744779E-010
  -5.3999999999999992E-002    -2.9267430146084905E-010
  -5.2899999999999989E-002    -8.2536788514886439E-010
  -5.1799999999999985E-002    -9.9373331785557184E-010
  -5.0699999999999995E-002    -7.1162348236342154E-010
  -4.9599999999999991E-002    -1.2666614979117696E-010
  -4.8499999999999988E-002     4.8736265023663350E-010
  -4.7399999999999998E-002     8.9072915709920153E-010
  -4.6299999999999994E-002     9.7284358346882982E-010
  -4.5199999999999990E-002     7.4456840692960213E-010
  -4.4099999999999986E-002     2.9143104596229819E-010
  -4.2999999999999997E-002    -2.3329260745441616E-010
  -4.1899999999999993E-002    -5.8663673918601944E-010
  -4.0799999999999989E-002    -4.8894510662478297E-010
  -3.9699999999999985E-002     1.7675907959535664E-010
  -3.8599999999999995E-002     1.1152242462841855E-009
  -3.7499999999999992E-002     1.5671648423420947E-009
  -3.6399999999999988E-002     6.5118382908124772E-010
  -3.5299999999999984E-002    -1.9897428149562302E-009
  -3.4199999999999994E-002    -5.6416395999292490E-009
  -3.3099999999999991E-002    -8.5336262500845805E-009
  -3.1999999999999987E-002    -8.5575466712839443E-009
  -3.0899999999999997E-002    -4.3487271561559737E-009
  -2.9799999999999993E-002     3.9026448739321040E-009
  -2.8699999999999989E-002     1.4381292601228779E-008
  -2.7599999999999986E-002     2.4294354972198562E-008
  -2.6499999999999996E-002     3.0757245639279063E-008
  -2.5399999999999992E-002     3.1351653717592853E-008
  -2.4299999999999988E-002     2.4091740158382891E-008
  -2.3199999999999985E-002     6.9507621880404713E-009
  -2.2099999999999995E-002    -2.2676562849710535E-008
  -2.0999999999999991E-002    -6.8262878016867035E-008
  -1.9899999999999987E-002    -1.3408717336460541E-007
  -1.8799999999999983E-002    -2.2491032325433480E-007
  -1.7699999999999994E-002    -3.4558820516394917E-007
  -1.6599999999999990E-002    -5.0090397962776478E-007
  -1.5499999999999986E-002    -6.9592613272106973E-007
  -1.4399999999999996E-002    -9.3704073833578150E-007
  -1.3299999999999992E-002    -1.2334169241512427E-006
  -1.2199999999999989E-002    -1.5982443528628210E-006
  -1.1099999999999985E-002    -2.0490554106800118E-006
  -9.9999999999999950E-003    -2.6070165404235013E-006
  -8.8999999999999913E-003    -3.2959840154944686E-006
  -7.7999999999999875E-003    -4.1426096686336678E-006
  -6.6999999999999837E-003    -5.1783126764348708E-006
  -5.5999999999999939E-003    -6.4426872086187359E-006
  -4.4999999999999901E-003    -7.9867650129017420E-006
  -3.3999999999999864E-003    -9.8745404102373868E-006
  -2.2999999999999826E-003    -1.2182379578007385E-005
  -1.1999999999999927E-003    -1.4997539437899832E-005
  -9.9999999999988987E-005    -1.8417844330542721E-005
   1.0000000000000148E-003    -2.2553907911060378E-005
   2.1000000000000185E-003    -2.7533762477105483E-005
   3.2000000000000084E-003    -3.3508582419017330E-005
   4.3000000000000121E-003    -4.0657927456777543E-005
   5.4000000000000159E-003    -4.9193673476111144E-005
   6.5000000000000058E-003    -5.9362784668337554E-005
   7.6000000000000234E-003    -7.1449314418714494E-005
   8.7000000000000133E-003    -8.5776373452972621E-005
   9.8000000000000032E-003    -1.0270860366290435E-004
   1.0900000000000021E-002    -1.2265593977645040E-004
   1.2000000000000011E-002    -1.4607953198719770E-004
   1.3100000000000001E-002    -1.7349956033285707E-004
   1.4200000000000018E-002    -2.0550364570226520E-004
   1.5300000000000008E-002    -2.4275392934214324E-004
   1.6400000000000026E-002    -2.8599132201634347E-004
   1.7500000000000016E-002    -3.3603716292418540E-004
   1.8600000000000005E-002    -3.9379377267323434E-004
   1.9700000000000023E-002    -4.6024596667848527E-004
   2.0800000000000013E-002    -5.3646363085135818E-004
   2.1900000000000003E-002    -6.2360509764403105E-004
   2.3000000000000020E-002    -7.2292034747079015E-004
   2.4100000000000010E-002    -8.3575269673019648E-004
   2.5200000000000000E-002    -9.6353801200166345E-004
   2.6300000000000018E-002    -1.1078024981543422E-003
   2.7400000000000008E-002    -1.2701572850346565E-003
   2.8500000000000025E-002    -1.4522882411256433E-003
   2.9600000000000015E-002    -1.6559401992708445E-003
   3.0700000000000005E-002    -1.8828985048457980E-003
   3.1800000000000023E-002    -2.1349699236452579E-003
   3.2900000000000013E-002    -2.4139643646776676E-003
   3.4000000000000002E-002    -2.7216775342822075E-003
   3.5100000000000020E-002    -3.0598684679716825E-003
   3.6200000000000010E-002    -3.4302314743399620E-003
   3.7300000000000028E-002    -3.8343581836670637E-003
   3.8400000000000017E-002    -4.2736944742500782E-003
   3.9500000000000007E-002    -4.7494969330728054E-003
   4.0600000000000025E-002    -5.2627851255238056E-003
   4.1700000000000015E-002    -5.8142994530498981E-003
   4.2800000000000005E-002    -6.4044534228742123E-003
   4.3900000000000022E-002    -7.0332861505448818E-003
   4.5000000000000012E-002    -7.7004199847579002E-003
   4.6100000000000002E-002    -8.4050111472606659E-003
   4.7200000000000020E-002    -9.1457068920135498E-003
   4.8300000000000010E-002    -9.9205952137708664E-003
   4.9400000000000027E-002    -1.0727158747613430E-002
   5.0500000000000017E-002    -1.1562228202819824E-002
   5.1600000000000007E-002    -1.2421949766576290E-002
   5.2700000000000025E-002    -1.3301773928105831E-002
   5.3800000000000014E-002    -1.4196442440152168E-002
   5.4900000000000004E-002    -1.5099990181624889E-002
   5.6000000000000022E-002    -1.6005747020244598E-002
   5.7100000000000012E-002    -1.6906360164284706E-002
   5.8200000000000002E-002    -1.7793809995055199E-002
   5.9300000000000019E-002    -1.8659474328160286E-002
   6.0400000000000009E-002    -1.9494185224175453E-002
   6.1500000000000027E-002    -2.0288290455937386E-002
   6.2600000000000017E-002    -2.1031750366091728E-002
   6.3700000000000007E-002    -2.1714229136705399E-002
   6.4800000000000024E-002    -2.2325213998556137E-002
   6.5900000000000014E-002    -2.2854145616292953E-002
   6.7000000000000004E-002    -2.3290567100048065E-002
   6.8100000000000022E-002    -2.3624271154403687E-002
   6.9200000000000012E-002    -2.3845445364713669E-002
   7.0300000000000029E-002    -2.3944839835166931E-002
   7.1400000000000019E-002    -2.3913918063044548E-002
   7.2500000000000009E-002    -2.3745033890008926E-002
   7.3600000000000027E-002    -2.3431574925780296E-002
   7.4700000000000016E-002    -2.2968113422393799E-002
   7.5800000000000006E-002    -2.2350532934069633E-002
   7.6900000000000024E-002    -2.1576166152954102E-002
   7.8000000000000014E-002    -2.0643915981054306E-002
   7.9100000000000004E-002    -1.9554357975721359E-002
   8.0200000000000021E-002    -1.8309812992811203E-002
   8.1300000000000011E-002    -1.6914384439587593E-002
   8.2400000000000029E-002    -1.5373973175883293E-002
   8.3500000000000019E-002    -1.3696258887648582E-002
   8.4600000000000009E-002    -1.1890665628015995E-002
   8.5700000000000026E-002    -9.9683087319135666E-003
   8.6800000000000016E-002    -7.9418970271945000E-003
   8.7900000000000006E-002    -5.8256178162992001E-003
   8.9000000000000024E-002    -3.6349787842482328E-003
   9.0100000000000013E-002    -1.3866306981071830E-003
   9.1200000000000003E-002     9.0182130225002766E-004
   9.2300000000000021E-002     3.2120228279381990E-003
   9.3400000000000011E-002     5.5250972509384155E-003
   9.4500000000000028E-002     7.8218961134552956E-003
   9.5600000000000018E-002     1.0083260014653206E-002
   9.6700000000000008E-002     1.2290282174944878E-002
   9.7800000000000026E-002     1.4424564316868782E-002
   9.8900000000000016E-002     1.6468456014990807E-002
  0.10000000000000001          1.8405290320515633E-002
  0.10110000000000002          2.0219597965478897E-002
  0.10220000000000001          2.1897315979003906E-002
  0.10330000000000003          2.3425973951816559E-002
  0.10440000000000002          2.4794850498437881E-002
  0.10550000000000001          2.5995105504989624E-002
  0.10660000000000003          2.7019876986742020E-002
  0.10770000000000002          2.7864351868629456E-002
  0.10880000000000001          2.8525801375508308E-002
  0.10990000000000003          2.9003594070672989E-002
  0.11100000000000002          2.9299160465598106E-002
  0.11210000000000001          2.9415920376777649E-002
  0.11320000000000002          2.9359206557273865E-002
  0.11430000000000001          2.9136141762137413E-002
  0.11540000000000003          2.8755487874150276E-002
  0.11650000000000002          2.8227481991052628E-002
  0.11760000000000001          2.7563659474253654E-002
  0.11870000000000003          2.6776654645800591E-002
  0.11980000000000002          2.5879995897412300E-002
  0.12090000000000001          2.4887900799512863E-002
  0.12200000000000003          2.3815060034394264E-002
  0.12310000000000001          2.2676423192024231E-002
  0.12420000000000003          2.1486971527338028E-002
  0.12530000000000002          2.0261520519852638E-002
  0.12640000000000001          1.9014528021216393E-002
  0.12750000000000003          1.7759932205080986E-002
  0.12860000000000002          1.6510978341102600E-002
  0.12970000000000001          1.5280082821846008E-002
  0.13080000000000003          1.4078687876462936E-002
  0.13190000000000002          1.2917160987854004E-002
  0.13300000000000001          1.1804717592895031E-002
  0.13410000000000000          1.0749375447630882E-002
  0.13520000000000004          9.7579229623079300E-003
  0.13630000000000003          8.8358949869871140E-003
  0.13740000000000002          7.9875681549310684E-003
  0.13850000000000001          7.2159678675234318E-003
  0.13960000000000000          6.5228901803493500E-003
  0.14070000000000005          5.9089618735015392E-003
  0.14180000000000004          5.3737103007733822E-003
  0.14290000000000003          4.9156500026583672E-003
  0.14400000000000002          4.5323665253818035E-003
  0.14510000000000001          4.2206007055938244E-003
  0.14620000000000000          3.9763399399816990E-003
  0.14730000000000004          3.7949231918901205E-003
  0.14840000000000003          3.6711569409817457E-003
  0.14950000000000002          3.5994302015751600E-003
  0.15060000000000001          3.5738162696361542E-003
  0.15170000000000000          3.5881625954061747E-003
  0.15280000000000005          3.6361736711114645E-003
  0.15390000000000004          3.7115009035915136E-003
  0.15500000000000003          3.8078406360000372E-003
  0.15610000000000002          3.9190296083688736E-003
  0.15720000000000001          4.0391264483332634E-003
  0.15830000000000000          4.1624750010669231E-003
  0.15940000000000004          4.2837536893785000E-003
  0.16050000000000003          4.3980223126709461E-003
  0.16160000000000002          4.5007690787315369E-003
  0.16270000000000001          4.5879487879574299E-003
  0.16380000000000000          4.6560075134038925E-003
  0.16490000000000005          4.7018905170261860E-003
  0.16600000000000004          4.7230506315827370E-003
  0.16710000000000003          4.7174575738608837E-003
  0.16820000000000002          4.6836044639348984E-003
  0.16930000000000001          4.6205036342144012E-003
  0.17040000000000000          4.5276586897671223E-003
  0.17150000000000004          4.4050319120287895E-003
  0.17260000000000003          4.2530233040452003E-003
  0.17370000000000002          4.0724547579884529E-003
  0.17480000000000001          3.8645525928586721E-003
  0.17590000000000000          3.6309051793068647E-003
  0.17700000000000005          3.3733991440385580E-003
  0.17810000000000004          3.0941541772335768E-003
  0.17920000000000003          2.7954860124737024E-003
  0.18030000000000002          2.4798924569040537E-003
  0.18140000000000001          2.1500422153621912E-003
  0.18250000000000000          1.8087300704792142E-003
  0.18360000000000004          1.4588059857487679E-003
  0.18470000000000003          1.1031016474589705E-003
  0.18580000000000002          7.4439338641241193E-004
  0.18690000000000001          3.8540319656021893E-004
  0.18800000000000000          2.8803653549402952E-005
  0.18910000000000005         -3.2280883169732988E-004
  0.19020000000000004         -6.6697871079668403E-004
  0.19130000000000003         -1.0014568688347936E-003
  0.19240000000000002         -1.3242263812571764E-003
  0.19350000000000001         -1.6334831016138196E-003
  0.19460000000000005         -1.9276030361652374E-003
  0.19570000000000004         -2.2051418200135231E-003
  0.19680000000000003         -2.4648690596222878E-003
  0.19790000000000002         -2.7058073319494724E-003
  0.19900000000000001         -2.9272374231368303E-003
  0.20010000000000000         -3.1286645680665970E-003
  0.20120000000000005         -3.3097774721682072E-003
  0.20230000000000004         -3.4704413264989853E-003
  0.20340000000000003         -3.6107143387198448E-003
  0.20450000000000002         -3.7308647297322750E-003
  0.20560000000000000         -3.8313549011945724E-003
  0.20670000000000005         -3.9127920754253864E-003
  0.20780000000000004         -3.9758877828717232E-003
  0.20890000000000003         -4.0214452892541885E-003
