 -0.12000000000000000          0.0000000000000000
 -0.11889999999999999          0.0000000000000000
 -0.11780000000000000          0.0000000000000000
 -0.11670000000000000          0.0000000000000000
 -0.11559999999999999          1.7095492266504908E-017
 -0.11449999999999999          4.2738731493442882E-017
 -0.11340000000000000          3.4190987841732265E-017
 -0.11230000000000000          2.5643244190021649E-017
 -0.11119999999999999          7.6929722643897597E-017
 -0.11009999999999999         -8.5477337255432655E-018
 -0.10900000000000000         -4.3593503542508228E-016
 -0.10790000000000000         -1.2052321692198296E-015
 -0.10679999999999999         -8.8041774501870372E-016
 -0.10569999999999999         -4.1883936945064874E-016
 -0.10460000000000000          6.5817673432902782E-016
 -0.10349999999999999          3.5131239941205454E-015
 -0.10239999999999999          2.5386805626984900E-015
 -0.10130000000000000         -6.5048352582185512E-015
 -0.10020000000000000         -1.3907184933281865E-014
  -9.9099999999999994E-002    -1.2283114453402570E-014
  -9.7999999999999990E-002    -7.3767099877499256E-015
  -9.6899999999999986E-002    -1.3761930641289014E-015
  -9.5799999999999996E-002     1.2830160517991393E-014
  -9.4699999999999993E-002     2.0950517999585548E-014
  -9.3599999999999989E-002     2.8122002068611124E-015
  -9.2499999999999999E-002    -2.5173121237249269E-014
  -9.1399999999999995E-002    -2.3617433421267708E-014
  -9.0299999999999991E-002    -3.4618482193837959E-015
  -8.9200000000000002E-002     9.0349574000179837E-015
  -8.8099999999999984E-002    -4.7269139489647220E-015
  -8.6999999999999994E-002    -7.5382584831425181E-014
  -8.5899999999999990E-002    -1.3072069739595432E-013
  -8.4799999999999986E-002    -1.9753851874561301E-014
  -8.3699999999999997E-002     1.8421248142337643E-013
  -8.2599999999999993E-002     1.2559205520186467E-013
  -8.1499999999999989E-002    -3.3686632449443296E-014
  -8.0399999999999999E-002     1.5277392523792288E-013
  -7.9299999999999995E-002     3.2610513681780029E-013
  -7.8199999999999992E-002     1.9308514476960165E-013
  -7.7100000000000002E-002     2.8764032713839149E-013
  -7.5999999999999984E-002     9.2487476011093861E-013
  -7.4899999999999994E-002     1.4920860770886724E-012
  -7.3799999999999991E-002     1.3415604347907784E-012
  -7.2699999999999987E-002     1.4068764599486916E-013
  -7.1599999999999997E-002    -1.5328413451726197E-012
  -7.0499999999999993E-002    -2.1560231898420934E-012
  -6.9399999999999989E-002    -9.5860342233522466E-013
  -6.8300000000000000E-002    -7.6287852987869109E-014
  -6.7199999999999996E-002     5.2593519817012435E-013
  -6.6099999999999992E-002    -5.1738550509855541E-013
  -6.5000000000000002E-002    -8.9548637602354653E-013
  -6.3899999999999985E-002    -1.4836566220380321E-012
  -6.2799999999999995E-002     2.0595378701082634E-012
  -6.1699999999999991E-002     4.4823619642364587E-012
  -6.0599999999999994E-002     6.3450013472465816E-012
  -5.9499999999999990E-002     8.9778939491025334E-012
  -5.8399999999999994E-002     7.5494454437885494E-012
  -5.7299999999999990E-002     5.9809505438546129E-012
  -5.6199999999999986E-002     1.0854583724906330E-011
  -5.5099999999999996E-002     6.2050698780569125E-012
  -5.3999999999999992E-002    -5.7268491164552682E-012
  -5.2899999999999989E-002    -3.6424967209125469E-011
  -5.1799999999999985E-002    -8.4208723327705570E-011
  -5.0699999999999995E-002    -8.9138321723858382E-011
  -4.9599999999999991E-002    -3.0486915075789156E-011
  -4.8499999999999988E-002     5.0291801972912609E-011
  -4.7399999999999998E-002     8.6815887812008441E-011
  -4.6299999999999994E-002     8.3566834008230728E-011
  -4.5199999999999990E-002     2.6540013242648541E-011
  -4.4099999999999986E-002    -2.7685884834705021E-011
  -4.2999999999999997E-002     1.7240976007970588E-011
  -4.1899999999999993E-002     1.7924652040424149E-010
  -4.0799999999999989E-002     2.5610394360775501E-010
  -3.9699999999999985E-002     1.1785027120847502E-010
  -3.8599999999999995E-002    -1.6941263669689732E-010
  -3.7499999999999992E-002    -3.8833297688611879E-010
  -3.6399999999999988E-002    -2.5769780753748250E-010
  -3.5299999999999984E-002    -6.3201520406064304E-011
  -3.4199999999999994E-002    -7.0371874993924166E-011
  -3.3099999999999991E-002     1.2972625751395128E-010
  -3.1999999999999987E-002     4.8555581777520729E-010
  -3.0899999999999997E-002     7.8200579345377719E-010
  -2.9799999999999993E-002     7.7371509199508637E-010
  -2.8699999999999989E-002     1.8171147919687769E-010
  -2.7599999999999986E-002    -7.8662576452614985E-011
  -2.6499999999999996E-002    -5.1663257005785113E-012
  -2.5399999999999992E-002     1.6132066515961441E-010
  -2.4299999999999988E-002     6.4487237771970740E-010
  -2.3199999999999985E-002     5.7496118976985144E-010
  -2.2099999999999995E-002    -2.7125801604910293E-011
  -2.0999999999999991E-002    -2.8133784191197719E-010
  -1.9899999999999987E-002    -2.5825830363146451E-010
  -1.8799999999999983E-002    -1.6347503906111172E-010
  -1.7699999999999994E-002     6.2951692469948028E-011
  -1.6599999999999990E-002    -4.7807519054643421E-010
  -1.5499999999999986E-002    -5.7991689228487076E-010
  -1.4399999999999996E-002    -6.0109189847779021E-010
  -1.3299999999999992E-002    -5.2367438163614111E-010
  -1.2199999999999989E-002    -1.7288651066316163E-010
  -1.1099999999999985E-002    -2.3439489238441524E-010
  -9.9999999999999950E-003    -5.9168098198725261E-010
  -8.8999999999999913E-003    -9.5793006860134255E-010
  -7.7999999999999875E-003    -7.9536444097527692E-010
  -6.6999999999999837E-003     5.2342324918797090E-010
  -5.5999999999999939E-003     1.9856185584643526E-009
  -4.4999999999999901E-003     1.0098880620645900E-009
  -3.3999999999999864E-003    -1.1668791488617103E-009
  -2.2999999999999826E-003    -2.0709058912160572E-009
  -1.1999999999999927E-003     5.0269666207469754E-010
  -9.9999999999988987E-005     5.1019286573250611E-009
   1.0000000000000148E-003     7.7830861755501246E-009
   2.1000000000000185E-003     6.2337264239431533E-009
   3.2000000000000084E-003     5.9479088321268136E-011
   4.3000000000000121E-003    -5.8996572072089748E-009
   5.4000000000000159E-003    -8.5245712710957378E-009
   6.5000000000000058E-003    -7.7794126696062449E-009
   7.6000000000000234E-003    -6.2455129956617839E-009
   8.7000000000000133E-003    -6.7193171027213339E-009
   9.8000000000000032E-003    -9.4159355867873273E-009
   1.0900000000000021E-002    -9.1368512755707343E-009
   1.2000000000000011E-002    -1.4722865149252584E-009
   1.3100000000000001E-002     7.0168710841755910E-009
   1.4200000000000018E-002     1.0630177627035664E-008
   1.5300000000000008E-002     4.3483736611449331E-009
   1.6400000000000026E-002    -5.3393556243008788E-009
   1.7500000000000016E-002    -9.0398257768242729E-009
   1.8600000000000005E-002    -2.7914084377300696E-009
   1.9700000000000023E-002     8.5838225416523528E-009
   2.0800000000000013E-002     1.5674757491979108E-008
   2.1900000000000003E-002     1.3480065064186419E-008
   2.3000000000000020E-002     5.3787809761729477E-009
   2.4100000000000010E-002     2.1734758437474966E-010
   2.5200000000000000E-002     3.0239868387127444E-009
   2.6300000000000018E-002     9.0791392182154596E-009
   2.7400000000000008E-002     1.0115034143609591E-008
   2.8500000000000025E-002     3.5503373574385932E-009
   2.9600000000000015E-002    -3.3908038599150814E-009
   3.0700000000000005E-002    -2.6417237286580075E-009
   3.1800000000000023E-002     5.3852815540267329E-009
   3.2900000000000013E-002     1.0795101701432941E-008
   3.4000000000000002E-002     6.0947016322643321E-009
   3.5100000000000020E-002    -6.2779941245594273E-009
   3.6200000000000010E-002    -1.6427874172109114E-008
   3.7300000000000028E-002    -1.4137164328076324E-008
   3.8400000000000017E-002    -6.6067906701050561E-010
   3.9500000000000007E-002     1.3389436226418638E-008
   4.0600000000000025E-002     1.7974663535369473E-008
   4.1700000000000015E-002     1.0298560226829068E-008
   4.2800000000000005E-002     7.5816042333087807E-010
   4.3900000000000022E-002    -1.7552779230101123E-009
   4.5000000000000012E-002     6.6302456858124970E-009
   4.6100000000000002E-002     1.2506140123491605E-008
   4.7200000000000020E-002     5.0451487432212616E-009
   4.8300000000000010E-002    -1.1450508097254897E-008
   4.9400000000000027E-002    -2.1421129758891766E-008
   5.0500000000000017E-002    -1.3896048756123491E-008
   5.1600000000000007E-002     5.8903633082252327E-009
   5.2700000000000025E-002     2.1589666943100383E-008
   5.3800000000000014E-002     2.2804821142585752E-008
   5.4900000000000004E-002     1.2726644627036876E-008
   5.6000000000000022E-002     2.1054258336761222E-010
   5.7100000000000012E-002    -6.2465987937798673E-009
   5.8200000000000002E-002    -4.7804813441132410E-009
   5.9300000000000019E-002    -3.7445859746298993E-009
   6.0400000000000009E-002    -9.9866159786188291E-009
   6.1500000000000027E-002    -1.8935459422664280E-008
   6.2600000000000017E-002    -2.1646082259962895E-008
   6.3700000000000007E-002    -1.3108188312571656E-008
   6.4800000000000024E-002     3.7159622046090135E-009
   6.5900000000000014E-002     1.8782253974336527E-008
   6.7000000000000004E-002     2.1327288379779930E-008
   6.8100000000000022E-002     1.0544399131617865E-008
   6.9200000000000012E-002    -5.1322683880528075E-009
   7.0300000000000029E-002    -1.3620640615386037E-008
   7.1400000000000019E-002    -1.0726052046550194E-008
   7.2500000000000009E-002    -2.1310193609735961E-009
   7.3600000000000027E-002     3.5600140613212261E-009
   7.4700000000000016E-002     3.0128262107353976E-009
   7.5800000000000006E-002    -8.6858309433779368E-010
   7.6900000000000024E-002    -2.7422890624961838E-009
   7.8000000000000014E-002     1.9090413694300423E-009
   7.9100000000000004E-002     1.1723038539912523E-008
   8.0200000000000021E-002     2.0819999946297685E-008
   8.1300000000000011E-002     2.2137109922937270E-008
   8.2400000000000029E-002     1.3379850116734815E-008
   8.3500000000000019E-002    -1.8665948786633635E-009
   8.4600000000000009E-002    -1.5392151553328404E-008
   8.5700000000000026E-002    -1.9524524219605155E-008
   8.6800000000000016E-002    -1.3152305022856581E-008
   8.7900000000000006E-002    -3.5175680146437571E-009
   8.9000000000000024E-002     7.3939232514419473E-010
   9.0100000000000013E-002    -1.9589059263580566E-009
   9.1200000000000003E-002    -4.8723158840857650E-009
   9.2300000000000021E-002     1.3753265193372499E-010
   9.3400000000000011E-002     1.1690342915926522E-008
   9.4500000000000028E-002     1.8008783797540673E-008
   9.5600000000000018E-002     9.1618943542925990E-009
   9.6700000000000008E-002    -1.1695363788533086E-008
   9.7800000000000026E-002    -2.9451435068494902E-008
   9.8900000000000016E-002    -2.9801437761989291E-008
  0.10000000000000001         -1.0863146826523007E-008
  0.10110000000000002          1.3659070319249622E-008
  0.10220000000000001          2.4942998777532921E-008
  0.10330000000000003          1.8211370189646914E-008
  0.10440000000000002          3.6012979265365175E-009
  0.10550000000000001         -3.9369982829384753E-009
  0.10660000000000003          1.0933254301903617E-010
  0.10770000000000002          5.0990154321084447E-009
  0.10880000000000001         -1.5821979282293341E-009
  0.10990000000000003         -1.9297377917837366E-008
  0.11100000000000002         -3.2735265165229066E-008
  0.11210000000000001         -2.7122379009369979E-008
  0.11320000000000002         -3.7191352220133922E-009
  0.11430000000000001          1.9222515135197682E-008
  0.11540000000000003          2.3937985815791762E-008
  0.11650000000000002          1.0505699421514691E-008
  0.11760000000000001         -4.5287174010866238E-009
  0.11870000000000003         -5.4688777950673284E-009
  0.11980000000000002          7.0891830183938964E-009
  0.12090000000000001          1.7930835483070950E-008
  0.12200000000000003          1.2683972094862384E-008
  0.12310000000000001         -5.2051483123705111E-009
  0.12420000000000003         -1.8276676172490625E-008
  0.12530000000000002         -1.3184762615026102E-008
  0.12640000000000001          4.4149635058943204E-009
  0.12750000000000003          1.5727172453239291E-008
  0.12860000000000002          9.1044940475626390E-009
  0.12970000000000001         -7.5880706162934075E-009
  0.13080000000000003         -1.5174267176121248E-008
  0.13190000000000002         -4.9017625514125029E-009
  0.13300000000000001          1.1541741784526494E-008
  0.13410000000000000          1.3828247880098843E-008
  0.13520000000000004         -4.7823887072695470E-009
  0.13630000000000003         -2.8701339971348716E-008
  0.13740000000000002         -3.4680923022278876E-008
  0.13850000000000001         -1.5980988976593835E-008
  0.13960000000000000          1.0169405761928374E-008
  0.14070000000000005          2.0253690280469527E-008
  0.14180000000000004          8.2666824496868685E-009
  0.14290000000000003         -8.5536031591004758E-009
  0.14400000000000002         -8.9369400768646301E-009
  0.14510000000000001          9.0269054453528952E-009
  0.14620000000000000          2.4886695371151291E-008
  0.14730000000000004          1.7045053368747176E-008
  0.14840000000000003         -1.2961988815618497E-008
  0.14950000000000002         -4.0026936432013827E-008
  0.15060000000000001         -3.9660744022285144E-008
  0.15170000000000000         -1.3074527238643441E-008
  0.15280000000000005          1.3816429778046313E-008
  0.15390000000000004          1.6472659680744073E-008
  0.15500000000000003         -3.7210607928273021E-009
  0.15610000000000002         -2.1867865740432535E-008
  0.15720000000000001         -1.6367577515552512E-008
  0.15830000000000000          8.3504207992746160E-009
  0.15940000000000004          2.6985372159060717E-008
  0.16050000000000003          2.0487060936602575E-008
  0.16160000000000002         -4.1612491230580417E-009
  0.16270000000000001         -2.1563566932059075E-008
  0.16380000000000000         -1.5558550003902383E-008
  0.16490000000000005          3.9362846315782463E-009
  0.16600000000000004          1.2452052722267126E-008
  0.16710000000000003         -1.3090577510865842E-009
  0.16820000000000002         -2.2055116843944234E-008
  0.16930000000000001         -2.4050663682828599E-008
  0.17040000000000000          4.2170711367361946E-011
  0.17150000000000004          2.8794065798365409E-008
  0.17260000000000003          3.2914901026970256E-008
  0.17370000000000002          5.9196967328034589E-009
  0.17480000000000001         -2.7830498794401137E-008
  0.17590000000000000         -3.7168106814533530E-008
  0.17700000000000005         -1.5974787714867489E-008
  0.17810000000000004          1.0725711874215449E-008
  0.17920000000000003          1.3254783937100001E-008
  0.18030000000000002         -1.1114830833491851E-008
  0.18140000000000001         -3.4595991849073471E-008
  0.18250000000000000         -2.8135819007957252E-008
  0.18360000000000004          6.8514971474087361E-009
  0.18470000000000003          3.7931801699642165E-008
  0.18580000000000002          3.3982054503667314E-008
  0.18690000000000001         -2.8953746067372776E-009
  0.18800000000000000         -3.8821749370754333E-008
  0.18910000000000005         -4.1935283690008873E-008
  0.19020000000000004         -1.3887122563005505E-008
  0.19130000000000003          1.3284353173048657E-008
  0.19240000000000002          1.1218789452982492E-008
  0.19350000000000001         -1.5488478055658561E-008
  0.19460000000000005         -3.4941908921837239E-008
  0.19570000000000004         -2.2336369198683315E-008
  0.19680000000000003          1.3016605571181117E-008
  0.19790000000000002          3.6594489216668080E-008
  0.19900000000000001          2.4244481977575560E-008
  0.20010000000000000         -1.2863605292068314E-008
  0.20120000000000005         -3.9848238486683840E-008
  0.20230000000000004         -3.3551994960134834E-008
  0.20340000000000003         -5.1768953568398501E-009
  0.20450000000000002          1.3556087807842232E-008
  0.20560000000000000          4.7018477999927200E-009
  0.20670000000000005         -1.7401399432515063E-008
  0.20780000000000004         -2.2813789968267884E-008
  0.20890000000000003          4.5172399154580489E-010
