 -0.12000000000000000          0.0000000000000000
 -0.11889999999999999          0.0000000000000000
 -0.11780000000000000          0.0000000000000000
 -0.11670000000000000          0.0000000000000000
 -0.11559999999999999          0.0000000000000000
 -0.11449999999999999          0.0000000000000000
 -0.11340000000000000          0.0000000000000000
 -0.11230000000000000          1.1833300753771814E-019
 -0.11119999999999999         -2.7536382472674559E-019
 -0.11009999999999999         -6.8277357188311274E-018
 -0.10900000000000000         -2.9554355958241827E-017
 -0.10790000000000000         -4.7941313734597201E-017
 -0.10679999999999999          5.4374730801063075E-017
 -0.10569999999999999          4.3480625814374752E-016
 -0.10460000000000000          8.9193342263442195E-016
 -0.10349999999999999          3.3852577003480491E-016
 -0.10239999999999999         -2.7031313741332020E-015
 -0.10130000000000000         -7.4151703657529544E-015
 -0.10020000000000000         -7.3872419954160856E-015
  -9.9099999999999994E-002     7.3772605591656409E-015
  -9.7999999999999990E-002     3.7756463130674336E-014
  -9.6899999999999986E-002     5.8422234064381406E-014
  -9.5799999999999996E-002     1.9698225526849217E-014
  -9.4699999999999993E-002    -1.0865653266457082E-013
  -9.3599999999999989E-002    -2.6656926449195040E-013
  -9.2499999999999999E-002    -2.7804573422308965E-013
  -9.1399999999999995E-002     4.4916720625017004E-014
  -9.0299999999999991E-002     6.7804448037125931E-013
  -8.9200000000000002E-002     1.2122582668597226E-012
  -8.8099999999999984E-002     9.8126313931995446E-013
  -8.6999999999999994E-002    -4.3009622556142157E-013
  -8.5899999999999990E-002    -2.5864763889688058E-012
  -8.4799999999999986E-002    -4.0682171173478388E-012
  -8.3699999999999997E-002    -3.1760854796863969E-012
  -8.2599999999999993E-002     7.8996976061312951E-013
  -8.1499999999999989E-002     6.5499112210376520E-012
  -8.0399999999999999E-002     1.1005463901314627E-011
  -7.9299999999999995E-002     1.0635355443544547E-011
  -7.8199999999999992E-002     3.3703987951244629E-012
  -7.7100000000000002E-002    -9.9636496969646160E-012
  -7.5999999999999984E-002    -2.5014070675899447E-011
  -7.4899999999999994E-002    -3.4127155962293543E-011
  -7.3799999999999991E-002    -2.8033388110859647E-011
  -7.2699999999999987E-002    -2.1795933113910593E-013
  -7.1599999999999997E-002     4.6051853302975232E-011
  -7.0499999999999993E-002     9.1852192518615539E-011
  -6.9399999999999989E-002     1.0510506354144411E-010
  -6.8300000000000000E-002     5.6570324813431938E-011
  -6.7199999999999996E-002    -5.5366648765708959E-011
  -6.6099999999999992E-002    -1.8769867604628843E-010
  -6.5000000000000002E-002    -2.6266877561909041E-010
  -6.3899999999999985E-002    -2.0905316366892635E-010
  -6.2799999999999995E-002    -1.4200703113420587E-011
  -6.1699999999999991E-002     2.5004465165068268E-010
  -6.0599999999999994E-002     4.5370543433342903E-010
  -5.9499999999999990E-002     4.7800285951637989E-010
  -5.8399999999999994E-002     2.8398042251076561E-010
  -5.7299999999999990E-002    -6.6089370087674126E-011
  -5.6199999999999986E-002    -4.4576894953074486E-010
  -5.5099999999999996E-002    -7.2605610412779242E-010
  -5.3999999999999992E-002    -8.1357043324459255E-010
  -5.2899999999999989E-002    -6.4968258550734959E-010
  -5.1799999999999985E-002    -2.0324890381839822E-010
  -5.0699999999999995E-002     4.9806281321451706E-010
  -4.9599999999999991E-002     1.2991754338997907E-009
  -4.8499999999999988E-002     1.8807970736389734E-009
  -4.7399999999999998E-002     1.8411712154886573E-009
  -4.6299999999999994E-002     9.1144808367360497E-010
  -4.5199999999999990E-002    -8.0081774544993323E-010
  -4.4099999999999986E-002    -2.7161832782951478E-009
  -4.2999999999999997E-002    -3.9568845977555611E-009
  -4.1899999999999993E-002    -3.7485725634667233E-009
  -4.0799999999999989E-002    -1.8493091502591597E-009
  -3.9699999999999985E-002     1.2373411184540828E-009
  -3.8599999999999995E-002     4.4006056576506580E-009
  -3.7499999999999992E-002     6.3619283174887187E-009
  -3.6399999999999988E-002     6.2155636193494956E-009
  -3.5299999999999984E-002     3.8291152471003898E-009
  -3.4199999999999994E-002    -7.1486427888345361E-011
  -3.3099999999999991E-002    -4.1793799532285902E-009
  -3.1999999999999987E-002    -7.1449055560890429E-009
  -3.0899999999999997E-002    -8.1429742948557760E-009
  -2.9799999999999993E-002    -7.1838521797928934E-009
  -2.8699999999999989E-002    -4.9701740501006952E-009
  -2.7599999999999986E-002    -2.3452140229807128E-009
  -2.6499999999999996E-002     3.3881966676752029E-010
  -2.5399999999999992E-002     3.4823972594466568E-009
  -2.4299999999999988E-002     7.8668875858056708E-009
  -2.3199999999999985E-002     1.3811263244178917E-008
  -2.2099999999999995E-002     2.0394617550323346E-008
  -2.0999999999999991E-002     2.5300842310116423E-008
  -1.9899999999999987E-002     2.5439572226559903E-008
  -1.8799999999999983E-002     1.7940433139074230E-008
  -1.7699999999999994E-002     8.1972206800173808E-010
  -1.6599999999999990E-002    -2.7184210438235823E-008
  -1.5499999999999986E-002    -6.7551809479482472E-008
  -1.4399999999999996E-002    -1.2312074204601231E-007
  -1.3299999999999992E-002    -1.9870989831360930E-007
  -1.2199999999999989E-002    -3.0083890578680439E-007
  -1.1099999999999985E-002    -4.3669706428772770E-007
  -9.9999999999999950E-003    -6.1296856301851221E-007
  -8.8999999999999913E-003    -8.3526884964157944E-007
  -7.7999999999999875E-003    -1.1087500979556353E-006
  -6.6999999999999837E-003    -1.4399537349163438E-006
  -5.5999999999999939E-003    -1.8393899381408119E-006
  -4.4999999999999901E-003    -2.3238530957314651E-006
  -3.3999999999999864E-003    -2.9174527753639268E-006
  -2.2999999999999826E-003    -3.6509363781078719E-006
  -1.1999999999999927E-003    -4.5598749238706660E-006
  -9.9999999999988987E-005    -5.6831268011592329E-006
   1.0000000000000148E-003    -7.0630171649099793E-006
   2.1000000000000185E-003    -8.7477665147162043E-006
   3.2000000000000084E-003    -1.0795397429319564E-005
   4.3000000000000121E-003    -1.3277549442136660E-005
   5.4000000000000159E-003    -1.6281916032312438E-005
   6.5000000000000058E-003    -1.9913084543077275E-005
   7.6000000000000234E-003    -2.4292643502121791E-005
   8.7000000000000133E-003    -2.9559809263446368E-005
   9.8000000000000032E-003    -3.5873308661393821E-005
   1.0900000000000021E-002    -4.3414642277639359E-005
   1.2000000000000011E-002    -5.2392304496606812E-005
   1.3100000000000001E-002    -6.3046638388186693E-005
   1.4200000000000018E-002    -7.5654999818652868E-005
   1.5300000000000008E-002    -9.0536719653755426E-005
   1.6400000000000026E-002    -1.0805740748764947E-004
   1.7500000000000016E-002    -1.2863207666669041E-004
   1.8600000000000005E-002    -1.5272729797288775E-004
   1.9700000000000023E-002    -1.8086316413246095E-004
   2.0800000000000013E-002    -2.1361614926718175E-004
   2.1900000000000003E-002    -2.5162359816022217E-004
   2.3000000000000020E-002    -2.9558921232819557E-004
   2.4100000000000010E-002    -3.4628881257958710E-004
   2.5200000000000000E-002    -4.0457543218508363E-004
   2.6300000000000018E-002    -4.7138330410234630E-004
   2.7400000000000008E-002    -5.4772966541349888E-004
   2.8500000000000025E-002    -6.3471408793702722E-004
   2.9600000000000015E-002    -7.3351460741832852E-004
   3.0700000000000005E-002    -8.4538263035938144E-004
   3.1800000000000023E-002    -9.7163679311051965E-004
   3.2900000000000013E-002    -1.1136581888422370E-003
   3.4000000000000002E-002    -1.2728866422548890E-003
   3.5100000000000020E-002    -1.4508158201351762E-003
   3.6200000000000010E-002    -1.6489831032231450E-003
   3.7300000000000028E-002    -1.8689525313675404E-003
   3.8400000000000017E-002    -2.1122919861227274E-003
   3.9500000000000007E-002    -2.3805471137166023E-003
   4.0600000000000025E-002    -2.6752159465104342E-003
   4.1700000000000015E-002    -2.9977236408740282E-003
   4.2800000000000005E-002    -3.3493961673229933E-003
   4.3900000000000022E-002    -3.7314288783818483E-003
   4.5000000000000012E-002    -4.1448534466326237E-003
   4.6100000000000002E-002    -4.5904982835054398E-003
   4.7200000000000020E-002    -5.0689484924077988E-003
   4.8300000000000010E-002    -5.5805006995797157E-003
   4.9400000000000027E-002    -6.1251199804246426E-003
   5.0500000000000017E-002    -6.7023951560258865E-003
   5.1600000000000007E-002    -7.3114968836307526E-003
   5.2700000000000025E-002    -7.9511385411024094E-003
   5.3800000000000014E-002    -8.6195422336459160E-003
   5.4900000000000004E-002    -9.3144010752439499E-003
   5.6000000000000022E-002    -1.0032850317656994E-002
   5.7100000000000012E-002    -1.0771435685455799E-002
   5.8200000000000002E-002    -1.1526094749569893E-002
   5.9300000000000019E-002    -1.2292150408029556E-002
   6.0400000000000009E-002    -1.3064310885965824E-002
   6.1500000000000027E-002    -1.3836676254868507E-002
   6.2600000000000017E-002    -1.4602762646973133E-002
   6.3700000000000007E-002    -1.5355524607002735E-002
   6.4800000000000024E-002    -1.6087390482425690E-002
   6.5900000000000014E-002    -1.6790313646197319E-002
   6.7000000000000004E-002    -1.7455844208598137E-002
   6.8100000000000022E-002    -1.8075220286846161E-002
   6.9200000000000012E-002    -1.8639454618096352E-002
   7.0300000000000029E-002    -1.9139438867568970E-002
   7.1400000000000019E-002    -1.9566060975193977E-002
   7.2500000000000009E-002    -1.9910309463739395E-002
   7.3600000000000027E-002    -2.0163413137197495E-002
   7.4700000000000016E-002    -2.0316977053880692E-002
   7.5800000000000006E-002    -2.0363118499517441E-002
   7.6900000000000024E-002    -2.0294602960348129E-002
   7.8000000000000014E-002    -2.0104991272091866E-002
   7.9100000000000004E-002    -1.9788773730397224E-002
   8.0200000000000021E-002    -1.9341504201292992E-002
   8.1300000000000011E-002    -1.8759936094284058E-002
   8.2400000000000029E-002    -1.8042117357254028E-002
   8.3500000000000019E-002    -1.7187487334012985E-002
   8.4600000000000009E-002    -1.6196947544813156E-002
   8.5700000000000026E-002    -1.5072927810251713E-002
   8.6800000000000016E-002    -1.3819415122270584E-002
   8.7900000000000006E-002    -1.2441970407962799E-002
   8.9000000000000024E-002    -1.0947706177830696E-002
   9.0100000000000013E-002    -9.3452623113989830E-003
   9.1200000000000003E-002    -7.6447464525699615E-003
   9.2300000000000021E-002    -5.8576613664627075E-003
   9.3400000000000011E-002    -3.9967936463654041E-003
   9.4500000000000028E-002    -2.0760796032845974E-003
   9.5600000000000018E-002    -1.1043772246921435E-004
   9.6700000000000008E-002     1.8844106234610081E-003
   9.7800000000000026E-002     3.8921271916478872E-003
   9.8900000000000016E-002     5.8959526941180229E-003
  0.10000000000000001          7.8789144754409790E-003
  0.10110000000000002          9.8240515217185020E-003
  0.10220000000000001          1.1714647524058819E-002
  0.10330000000000003          1.3534451834857464E-002
  0.10440000000000002          1.5267885290086269E-002
  0.10550000000000001          1.6900235787034035E-002
  0.10660000000000003          1.8417850136756897E-002
  0.10770000000000002          1.9808324053883553E-002
  0.10880000000000001          2.1060666069388390E-002
  0.10990000000000003          2.2165440022945404E-002
  0.11100000000000002          2.3114867508411407E-002
  0.11210000000000001          2.3902907967567444E-002
  0.11320000000000002          2.4525307118892670E-002
  0.11430000000000001          2.4979626759886742E-002
  0.11540000000000003          2.5265278294682503E-002
  0.11650000000000002          2.5383485481142998E-002
  0.11760000000000001          2.5337226688861847E-002
  0.11870000000000003          2.5131149217486382E-002
  0.11980000000000002          2.4771463125944138E-002
  0.12090000000000001          2.4265835061669350E-002
  0.12200000000000003          2.3623269051313400E-002
  0.12310000000000001          2.2853959351778030E-002
  0.12420000000000003          2.1969106048345566E-002
  0.12530000000000002          2.0980736240744591E-002
  0.12640000000000001          1.9901551306247711E-002
  0.12750000000000003          1.8744736909866333E-002
  0.12860000000000002          1.7523806542158127E-002
  0.12970000000000001          1.6252411529421806E-002
  0.13080000000000003          1.4944165013730526E-002
  0.13190000000000002          1.3612490147352219E-002
  0.13300000000000001          1.2270479463040829E-002
  0.13410000000000000          1.0930784046649933E-002
  0.13520000000000004          9.6054924651980400E-003
  0.13630000000000003          8.3060134202241898E-003
  0.13740000000000002          7.0429779589176178E-003
  0.13850000000000001          5.8261719532310963E-003
  0.13960000000000000          4.6644913963973522E-003
  0.14070000000000005          3.5659107379615307E-003
  0.14180000000000004          2.5374514516443014E-003
  0.14290000000000003          1.5851530479267240E-003
  0.14400000000000002          7.1405468042939901E-004
  0.14510000000000001         -7.1798291173763573E-005
  0.14620000000000000         -7.6931633520871401E-004
  0.14730000000000004         -1.3763189781457186E-003
  0.14840000000000003         -1.8915003165602684E-003
  0.14950000000000002         -2.3144085425883532E-003
  0.15060000000000001         -2.6454245671629906E-003
  0.15170000000000000         -2.8857197612524033E-003
  0.15280000000000005         -3.0371895991265774E-003
  0.15390000000000004         -3.1023845076560974E-003
  0.15500000000000003         -3.0844598077237606E-003
  0.15610000000000002         -2.9871440492570400E-003
  0.15720000000000001         -2.8147096745669842E-003
  0.15830000000000000         -2.5719248224049807E-003
  0.15940000000000004         -2.2639790549874306E-003
  0.16050000000000003         -1.8964115297421813E-003
  0.16160000000000002         -1.4750567497685552E-003
  0.16270000000000001         -1.0060166241601110E-003
  0.16380000000000000         -4.9563421634957194E-004
  0.16490000000000005          4.9549285904504359E-005
  0.16600000000000004          6.2286062166094780E-004
  0.16710000000000003          1.2175637530162930E-003
  0.16820000000000002          1.8269137945026159E-003
  0.16930000000000001          2.4441934656351805E-003
  0.17040000000000000          3.0627476517111063E-003
  0.17150000000000004          3.6760345101356506E-003
  0.17260000000000003          4.2776917107403278E-003
  0.17370000000000002          4.8616034910082817E-003
  0.17480000000000001          5.4219481535255909E-003
  0.17590000000000000          5.9532318264245987E-003
  0.17700000000000005          6.4503224566578865E-003
  0.17810000000000004          6.9084982387721539E-003
  0.17920000000000003          7.3234997689723969E-003
  0.18030000000000002          7.6915766112506390E-003
  0.18140000000000001          8.0095119774341583E-003
  0.18250000000000000          8.2746231928467751E-003
  0.18360000000000004          8.4847826510667801E-003
  0.18470000000000003          8.6384424939751625E-003
  0.18580000000000002          8.7346676737070084E-003
  0.18690000000000001          8.7731415405869484E-003
  0.18800000000000000          8.7541397660970688E-003
  0.18910000000000005          8.6784949526190758E-003
  0.19020000000000004          8.5475677624344826E-003
  0.19130000000000003          8.3632459864020348E-003
  0.19240000000000002          8.1279305741190910E-003
  0.19350000000000001          7.8445002436637878E-003
  0.19460000000000005          7.5162430293858051E-003
  0.19570000000000004          7.1467808447778225E-003
  0.19680000000000003          6.7400131374597549E-003
  0.19790000000000002          6.3000861555337906E-003
  0.19900000000000001          5.8313710615038872E-003
  0.20010000000000000          5.3384108468890190E-003
  0.20120000000000005          4.8258407041430473E-003
  0.20230000000000004          4.2982972227036953E-003
  0.20340000000000003          3.7603517994284630E-003
  0.20450000000000002          3.2164815347641706E-003
  0.20560000000000000          2.6710475794970989E-003
  0.20670000000000005          2.1282550878822803E-003
  0.20780000000000004          1.5920930309221148E-003
  0.20890000000000003          1.0662720305845141E-003
