 -0.12000000000000000          0.0000000000000000
 -0.11889999999999999          0.0000000000000000
 -0.11780000000000000          0.0000000000000000
 -0.11670000000000000          0.0000000000000000
 -0.11559999999999999          0.0000000000000000
 -0.11449999999999999          0.0000000000000000
 -0.11340000000000000          0.0000000000000000
 -0.11230000000000000         -5.1744603846825269E-026
 -0.11119999999999999         -7.0051496234066539E-019
 -0.11009999999999999         -4.9563289184360580E-018
 -0.10900000000000000         -1.0801443552725643E-017
 -0.10790000000000000          1.9451034644537463E-017
 -0.10679999999999999          1.7707816685414227E-016
 -0.10569999999999999          4.5634381783314182E-016
 -0.10460000000000000          3.3751023047060621E-016
 -0.10349999999999999         -1.3943574739245330E-015
 -0.10239999999999999         -5.3090995988868631E-015
 -0.10130000000000000         -7.9867193994399496E-015
 -0.10020000000000000         -8.8191799918696870E-017
  -9.9099999999999994E-002     2.6687670357048582E-014
  -9.7999999999999990E-002     6.0792320342225453E-014
  -9.6899999999999986E-002     5.5600150677091731E-014
  -9.5799999999999996E-002    -4.8361183493158405E-014
  -9.4699999999999993E-002    -2.4531689613721541E-013
  -9.3599999999999989E-002    -3.8010352786284340E-013
  -9.2499999999999999E-002    -1.8131889490281133E-013
  -9.1399999999999995E-002     4.9725946017070699E-013
  -9.0299999999999991E-002     1.3401434909715570E-012
  -8.9200000000000002E-002     1.5009230837359500E-012
  -8.8099999999999984E-002     1.4474033950551135E-013
  -8.6999999999999994E-002    -2.5503358105916085E-012
  -8.5899999999999990E-002    -4.7917728812629790E-012
  -8.4799999999999986E-002    -3.9843709928599758E-012
  -8.3699999999999997E-002     1.0214281677412007E-012
  -8.2599999999999993E-002     7.8916560786179701E-012
  -8.1499999999999989E-002     1.1359411675182507E-011
  -8.0399999999999999E-002     7.0989273487365168E-012
  -7.9299999999999995E-002    -3.7091102758624039E-012
  -7.8199999999999992E-002    -1.3751976120357501E-011
  -7.7100000000000002E-002    -1.5120415336467019E-011
  -7.5999999999999984E-002    -7.1552377738093309E-012
  -7.4899999999999994E-002     1.4806829807395561E-012
  -7.3799999999999991E-002     1.1140684728905281E-012
  -7.2699999999999987E-002    -6.1668569556472264E-012
  -7.1599999999999997E-002    -3.3749691409623583E-012
  -7.0499999999999993E-002     2.5861542074512300E-011
  -6.9399999999999989E-002     7.2509220849781286E-011
  -6.8300000000000000E-002     9.3549779034418634E-011
  -6.7199999999999996E-002     3.9113420835512613E-011
  -6.6099999999999992E-002    -9.6215445333225347E-011
  -6.5000000000000002E-002    -2.4150054178662117E-010
  -6.3899999999999985E-002    -2.7892932408235538E-010
  -6.2799999999999995E-002    -1.3036142998412714E-010
  -6.1699999999999991E-002     1.6145140779855183E-010
  -6.0599999999999994E-002     4.3348391542963327E-010
  -5.9499999999999990E-002     5.0459558753601641E-010
  -5.8399999999999994E-002     3.0942526318966657E-010
  -5.7299999999999990E-002    -4.7209382236790276E-011
  -5.6199999999999986E-002    -3.6953448634413633E-010
  -5.5099999999999996E-002    -5.2052750998399233E-010
  -5.3999999999999992E-002    -5.0784798588665581E-010
  -5.2899999999999989E-002    -4.2501679953232951E-010
  -5.1799999999999985E-002    -3.0872665535142119E-010
  -5.0699999999999995E-002    -7.0016444031484326E-011
  -4.9599999999999991E-002     4.0068021123218500E-010
  -4.8499999999999988E-002     1.0331838717902997E-009
  -4.7399999999999998E-002     1.4922152402618849E-009
  -4.6299999999999994E-002     1.3520492503360515E-009
  -4.5199999999999990E-002     4.4152800859897923E-010
  -4.4099999999999986E-002    -9.2595930922811931E-010
  -4.2999999999999997E-002    -2.0745818396505911E-009
  -4.1899999999999993E-002    -2.3926065573220967E-009
  -4.0799999999999989E-002    -1.7383667838544170E-009
  -3.9699999999999985E-002    -4.9714232730480035E-010
  -3.8599999999999995E-002     7.4296113705685229E-010
  -3.7499999999999992E-002     1.5953115495292991E-009
  -3.6399999999999988E-002     2.0066668326990111E-009
  -3.5299999999999984E-002     2.0511587983662594E-009
  -3.4199999999999994E-002     1.6686579895619502E-009
  -3.3099999999999991E-002     6.8449040879769996E-010
  -3.1999999999999987E-002    -8.6378010299981156E-010
  -3.0899999999999997E-002    -2.4397870390657772E-009
  -2.9799999999999993E-002    -3.1495426267014182E-009
  -2.8699999999999989E-002    -2.3233441837078317E-009
  -2.7599999999999986E-002    -1.0304374020719820E-010
  -2.6499999999999996E-002     2.4769235551502788E-009
  -2.5399999999999992E-002     4.0274339418999716E-009
  -2.4299999999999988E-002     3.5631328998420031E-009
  -2.3199999999999985E-002     9.4145635731734956E-010
  -2.2099999999999995E-002    -3.2118707693484794E-009
  -2.0999999999999991E-002    -7.8196773500849304E-009
  -1.9899999999999987E-002    -1.1530009835780675E-008
  -1.8799999999999983E-002    -1.2693547546405171E-008
  -1.7699999999999994E-002    -9.4389225324675863E-009
  -1.6599999999999990E-002    -8.5147000561391906E-011
  -1.5499999999999986E-002     1.6322076135111274E-008
  -1.4399999999999996E-002     3.9898516490666225E-008
  -1.3299999999999992E-002     7.0539833529892348E-008
  -1.2199999999999989E-002     1.0889102242117588E-007
  -1.1099999999999985E-002     1.5684574350416369E-007
  -9.9999999999999950E-003     2.1709985276174848E-007
  -8.8999999999999913E-003     2.9219972930150107E-007
  -7.7999999999999875E-003     3.8414350456150714E-007
  -6.6999999999999837E-003     4.9522105882715550E-007
  -5.5999999999999939E-003     6.2965710867501912E-007
  -4.4999999999999901E-003     7.9478144243694260E-007
  -3.3999999999999864E-003     1.0007487389884773E-006
  -2.2999999999999826E-003     1.2590745654961211E-006
  -1.1999999999999927E-003     1.5813266145414673E-006
  -9.9999999999988987E-005     1.9792048533417983E-006
   1.0000000000000148E-003     2.4660732833581278E-006
   2.1000000000000185E-003     3.0588487334171077E-006
   3.2000000000000084E-003     3.7790928217873443E-006
   4.3000000000000121E-003     4.6531013140338473E-006
   5.4000000000000159E-003     5.7117877076962031E-006
   6.5000000000000058E-003     6.9911843638692517E-006
   7.6000000000000234E-003     8.5335796029539779E-006
   8.7000000000000133E-003     1.0388612281531096E-005
   9.8000000000000032E-003     1.2613793842319865E-005
   1.0900000000000021E-002     1.5274821635102853E-005
   1.2000000000000011E-002     1.8446549802320078E-005
   1.3100000000000001E-002     2.2214988348423503E-005
   1.4200000000000018E-002     2.6679710572352633E-005
   1.5300000000000008E-002     3.1955667509464547E-005
   1.6400000000000026E-002     3.8173970096977428E-005
   1.7500000000000016E-002     4.5482407585950568E-005
   1.8600000000000005E-002     5.4046799050411209E-005
   1.9700000000000023E-002     6.4053310779854655E-005
   2.0800000000000013E-002     7.5710937380790710E-005
   2.1900000000000003E-002     8.9252920588478446E-005
   2.3000000000000020E-002     1.0493722948012874E-004
   2.4100000000000010E-002     1.2304697884246707E-004
   2.5200000000000000E-002     1.4389217540156096E-004
   2.6300000000000018E-002     1.6781267186161131E-004
   2.7400000000000008E-002     1.9518045883160084E-004
   2.8500000000000025E-002     2.2640006500296295E-004
   2.9600000000000015E-002     2.6190650532953441E-004
   3.0700000000000005E-002     3.0216266168281436E-004
   3.1800000000000023E-002     3.4765800228342414E-004
   3.2900000000000013E-002     3.9890833431854844E-004
   3.4000000000000002E-002     4.5645574573427439E-004
   3.5100000000000020E-002     5.2086648065596819E-004
   3.6200000000000010E-002     5.9272628277540207E-004
   3.7300000000000028E-002     6.7263375967741013E-004
   3.8400000000000017E-002     7.6119392178952694E-004
   3.9500000000000007E-002     8.5901090642437339E-004
   4.0600000000000025E-002     9.6667988691478968E-004
   4.1700000000000015E-002     1.0847775265574455E-003
   4.2800000000000005E-002     1.2138517340645194E-003
   4.3900000000000022E-002     1.3544105459004641E-003
   4.5000000000000012E-002     1.5069105429574847E-003
   4.6100000000000002E-002     1.6717442777007818E-003
   4.7200000000000020E-002     1.8492247909307480E-003
   4.8300000000000010E-002     2.0395696628838778E-003
   4.9400000000000027E-002     2.2428857628256083E-003
   5.0500000000000017E-002     2.4591523688286543E-003
   5.1600000000000007E-002     2.6882092934101820E-003
   5.2700000000000025E-002     2.9297412838786840E-003
   5.3800000000000014E-002     3.1832617241889238E-003
   5.4900000000000004E-002     3.4480984322726727E-003
   5.6000000000000022E-002     3.7233794573694468E-003
   5.7100000000000012E-002     4.0080221369862556E-003
   5.8200000000000002E-002     4.3007303029298782E-003
   5.9300000000000019E-002     4.5999842695891857E-003
   6.0400000000000009E-002     4.9040406011044979E-003
   6.1500000000000027E-002     5.2109290845692158E-003
   6.2600000000000017E-002     5.5184587836265564E-003
   6.3700000000000007E-002     5.8242250233888626E-003
   6.4800000000000024E-002     6.1256261542439461E-003
   6.5900000000000014E-002     6.4198733307421207E-003
   6.7000000000000004E-002     6.7040091380476952E-003
   6.8100000000000022E-002     6.9749341346323490E-003
   6.9200000000000012E-002     7.2294361889362335E-003
   7.0300000000000029E-002     7.4642235413193703E-003
   7.1400000000000019E-002     7.6759681105613708E-003
   7.2500000000000009E-002     7.8613432124257088E-003
   7.3600000000000027E-002     8.0170650035142899E-003
   7.4700000000000016E-002     8.1399399787187576E-003
   7.5800000000000006E-002     8.2269106060266495E-003
   7.6900000000000024E-002     8.2751056179404259E-003
   7.8000000000000014E-002     8.2818884402513504E-003
   7.9100000000000004E-002     8.2449112087488174E-003
   8.0200000000000021E-002     8.1621501594781876E-003
   8.1300000000000011E-002     8.0319512635469437E-003
   8.2400000000000029E-002     7.8530702739953995E-003
   8.3500000000000019E-002     7.6247141696512699E-003
   8.4600000000000009E-002     7.3465732857584953E-003
   8.5700000000000026E-002     7.0188413374125957E-003
   8.6800000000000016E-002     6.6422279924154282E-003
   8.7900000000000006E-002     6.2179635278880596E-003
   8.9000000000000024E-002     5.7478002272546291E-003
   9.0100000000000013E-002     5.2340123802423477E-003
   9.1200000000000003E-002     4.6793757937848568E-003
   9.2300000000000021E-002     4.0871384553611279E-003
   9.3400000000000011E-002     3.4609825816005468E-003
   9.4500000000000028E-002     2.8049815446138382E-003
   9.5600000000000018E-002     2.1235512103885412E-003
   9.6700000000000008E-002     1.4213996473699808E-003
   9.7800000000000026E-002     7.0346245774999261E-004
   9.8900000000000016E-002    -2.5171480956487358E-005
  0.10000000000000001         -7.5934076448902488E-004
  0.10110000000000002         -1.4938904205337167E-003
  0.10220000000000001         -2.2237438242882490E-003
  0.10330000000000003         -2.9439709614962339E-003
  0.10440000000000002         -3.6498673725873232E-003
  0.10550000000000001         -4.3370290659368038E-003
  0.10660000000000003         -5.0014271400868893E-003
  0.10770000000000002         -5.6394678540527821E-003
  0.10880000000000001         -6.2480401247739792E-003
  0.10990000000000003         -6.8245609290897846E-003
  0.11100000000000002         -7.3670088313519955E-003
  0.11210000000000001         -7.8739635646343231E-003
  0.11320000000000002         -8.3446269854903221E-003
  0.11430000000000001         -8.7788216769695282E-003
  0.11540000000000003         -9.1769816353917122E-003
  0.11650000000000002         -9.5401257276535034E-003
  0.11760000000000001         -9.8698250949382782E-003
  0.11870000000000003         -1.0168172419071198E-002
  0.11980000000000002         -1.0437732562422752E-002
  0.12090000000000001         -1.0681482031941414E-002
  0.12200000000000003         -1.0902732610702515E-002
  0.12310000000000001         -1.1105045676231384E-002
  0.12420000000000003         -1.1292148381471634E-002
  0.12530000000000002         -1.1467856355011463E-002
  0.12640000000000001         -1.1635992676019669E-002
  0.12750000000000003         -1.1800288222730160E-002
  0.12860000000000002         -1.1964282952249050E-002
  0.12970000000000001         -1.2131218798458576E-002
  0.13080000000000003         -1.2303958646953106E-002
  0.13190000000000002         -1.2484912760555744E-002
  0.13300000000000001         -1.2675973586738110E-002
  0.13410000000000000         -1.2878450565040112E-002
  0.13520000000000004         -1.3092999346554279E-002
  0.13630000000000003         -1.3319561257958412E-002
  0.13740000000000002         -1.3557333499193192E-002
  0.13850000000000001         -1.3804766349494457E-002
  0.13960000000000000         -1.4059564098715782E-002
  0.14070000000000005         -1.4318686909973621E-002
  0.14180000000000004         -1.4578366652131081E-002
  0.14290000000000003         -1.4834128320217133E-002
  0.14400000000000002         -1.5080838464200497E-002
  0.14510000000000001         -1.5312798321247101E-002
  0.14620000000000000         -1.5523824840784073E-002
  0.14730000000000004         -1.5707347542047501E-002
  0.14840000000000003         -1.5856487676501274E-002
  0.14950000000000002         -1.5964165329933167E-002
  0.15060000000000001         -1.6023224219679832E-002
  0.15170000000000000         -1.6026582568883896E-002
  0.15280000000000005         -1.5967369079589844E-002
  0.15390000000000004         -1.5839051455259323E-002
  0.15500000000000003         -1.5635546296834946E-002
  0.15610000000000002         -1.5351347625255585E-002
  0.15720000000000001         -1.4981650747358799E-002
  0.15830000000000000         -1.4522486366331577E-002
  0.15940000000000004         -1.3970844447612762E-002
  0.16050000000000003         -1.3324758037924767E-002
  0.16160000000000002         -1.2583366595208645E-002
  0.16270000000000001         -1.1746972799301147E-002
  0.16380000000000000         -1.0817090980708599E-002
  0.16490000000000005         -9.7964908927679062E-003
  0.16600000000000004         -8.6892144754528999E-003
  0.16710000000000003         -7.5005493126809597E-003
  0.16820000000000002         -6.2369839288294315E-003
  0.16930000000000001         -4.9061370082199574E-003
  0.17040000000000000         -3.5166835878044367E-003
  0.17150000000000004         -2.0782747305929661E-003
  0.17260000000000003         -6.0143385780975223E-004
  0.17370000000000002          9.0257648844271898E-004
  0.17480000000000001          2.4219115730375051E-003
  0.17590000000000000          3.9443084970116615E-003
  0.17700000000000005          5.4572517983615398E-003
  0.17810000000000004          6.9481302052736282E-003
  0.17920000000000003          8.4044067189097404E-003
  0.18030000000000002          9.8137930035591125E-003
  0.18140000000000001          1.1164423078298569E-002
  0.18250000000000000          1.2445025146007538E-002
  0.18360000000000004          1.3645068742334843E-002
  0.18470000000000003          1.4754907228052616E-002
  0.18580000000000002          1.5765896067023277E-002
  0.18690000000000001          1.6670508310198784E-002
  0.18800000000000000          1.7462423071265221E-002
  0.18910000000000005          1.8136596307158470E-002
  0.19020000000000004          1.8689321354031563E-002
  0.19130000000000003          1.9118251278996468E-002
  0.19240000000000002          1.9422413781285286E-002
  0.19350000000000001          1.9602185115218163E-002
  0.19460000000000005          1.9659260287880898E-002
  0.19570000000000004          1.9596589729189873E-002
  0.19680000000000003          1.9418317824602127E-002
  0.19790000000000002          1.9129687920212746E-002
  0.19900000000000001          1.8736947327852249E-002
  0.20010000000000000          1.8247228115797043E-002
  0.20120000000000005          1.7668422311544418E-002
  0.20230000000000004          1.7009049654006958E-002
  0.20340000000000003          1.6278119757771492E-002
  0.20450000000000002          1.5484991483390331E-002
  0.20560000000000000          1.4639247208833694E-002
  0.20670000000000005          1.3750567100942135E-002
  0.20780000000000004          1.2828584760427475E-002
  0.20890000000000003          1.1882758699357510E-002
