  -4.80000019       0.00000000
  -4.76000023       0.00000000
  -4.71999979       0.00000000
  -4.67999983       0.00000000
  -4.63999987       0.00000000
  -4.59999990       0.00000000
  -4.55999994       0.00000000
  -4.51999998       0.00000000
  -4.48000002       0.00000000
  -4.44000006      -6.85767982E-31
  -4.40000010      -1.15871408E-29
  -4.36000013      -1.01123395E-28
  -4.32000017      -6.05011007E-28
  -4.28000021      -2.77829203E-27
  -4.23999977      -1.03903720E-26
  -4.19999981      -3.27639849E-26
  -4.15999985      -8.89270141E-26
  -4.11999989      -2.09954985E-25
  -4.07999992      -4.31592309E-25
  -4.03999996      -7.62861282E-25
  -4.00000000      -1.11311981E-24
  -3.96000004      -1.16900933E-24
  -3.92000008      -2.45434251E-25
  -3.88000011       2.80318035E-24
  -3.83999991       9.44899801E-24
  -3.79999995       2.09361239E-23
  -3.75999999       3.72132321E-23
  -3.72000003       5.56360562E-23
  -3.68000007       7.04432026E-23
  -3.64000010       7.49706520E-23
  -3.59999990       6.93226414E-23
  -3.55999994       7.58461866E-23
  -3.51999998       1.61973616E-22
  -3.48000002       4.63560467E-22
  -3.44000006       1.19145421E-21
  -3.40000010       2.59160371E-21
  -3.35999990       4.81995598E-21
  -3.31999993       7.69713855E-21
  -3.27999997       1.03367745E-20
  -3.24000001       1.07063804E-20
  -3.20000005       5.28427371E-21
  -3.16000009      -1.08947288E-20
  -3.11999989      -4.33982732E-20
  -3.07999992      -9.63264425E-20
  -3.03999996      -1.68731326E-19
  -3.00000000      -2.49669604E-19
  -2.96000004      -3.12776635E-19
  -2.92000008      -3.12266420E-19
  -2.88000011      -1.83341571E-19
  -2.83999991       1.49255100E-19
  -2.79999995       7.50960779E-19
  -2.75999999       1.64346736E-18
  -2.72000003       2.75892155E-18
  -2.68000007       3.88981187E-18
  -2.64000010       4.64935351E-18
  -2.59999990       4.46428839E-18
  -2.55999994       2.62635593E-18
  -2.51999998      -1.57307812E-18
  -2.48000002      -8.61198002E-18
  -2.44000006      -1.84198597E-17
  -2.40000010      -3.00172032E-17
  -2.35999990      -4.11975683E-17
  -2.31999993      -4.83774364E-17
  -2.27999997      -4.67633291E-17
  -2.24000001      -3.09786683E-17
  -2.20000005       3.76103184E-18
  -2.16000009       5.99458849E-17
  -2.11999989       1.35727077E-16
  -2.07999992       2.22911967E-16
  -2.03999996       3.05572880E-16
  -2.00000000       3.59972935E-16
  -1.96000004       3.56512303E-16
  -1.91999996       2.64207205E-16
  -1.88000000       5.77940374E-17
  -1.84000003      -2.73091866E-16
  -1.79999995      -7.14004941E-16
  -1.75999999      -1.21719047E-15
  -1.72000003      -1.69724777E-15
  -1.67999995      -2.03387836E-15
  -1.63999999      -2.08414871E-15
  -1.60000002      -1.70541010E-15
  -1.55999994      -7.87909571E-16
  -1.51999998       7.06569950E-16
  -1.48000002       2.70657520E-15
  -1.44000006       5.00230511E-15
  -1.39999998       7.23653281E-15
  -1.36000001       8.92453564E-15
  -1.32000005       9.50925858E-15
  -1.27999997       8.45217586E-15
  -1.24000001       5.35252486E-15
  -1.20000005       7.87550522E-17
  -1.15999997      -7.11199610E-15
  -1.12000000      -1.54958460E-14
  -1.08000004      -2.38753533E-14
  -1.03999996      -3.06676749E-14
  -1.00000000      -3.40982634E-14
 -0.959999979      -3.24913775E-14
 -0.920000017      -2.46255636E-14
 -0.879999995      -1.00996719E-14
 -0.839999974       1.03623859E-14
 -0.800000012       3.47465553E-14
 -0.759999990       5.97932077E-14
 -0.720000029       8.12959997E-14
 -0.680000007       9.46582900E-14
 -0.639999986       9.56582022E-14
 -0.600000024       8.13184494E-14
 -0.560000002       5.07316797E-14
 -0.519999981       5.66658774E-15
 -0.479999989      -4.92135324E-14
 -0.439999998      -1.06645466E-13
 -0.400000006      -1.57620458E-13
 -0.360000014      -1.92739108E-13
 -0.319999993      -2.03891252E-13
 -0.280000001      -1.85982252E-13
 -0.239999995      -1.38361815E-13
 -0.200000003      -6.56057782E-14
 -0.159999996       2.26293576E-14
 -0.119999997       1.12816691E-13
  -7.99999982E-02   1.89769058E-13
  -3.99999991E-02   2.39555093E-13
   2.77555756E-16   2.52615854E-13
   3.99999991E-02   2.26432805E-13
   7.99999982E-02   1.67067545E-13
  0.119999997       8.90071301E-14
  0.159999996       1.30107234E-14
  0.200000003      -3.79616518E-14
  0.239999995      -4.42090856E-14
  0.280000001       4.81838377E-15
  0.319999993       1.05461904E-13
  0.360000014       2.36993151E-13
  0.400000006       3.62135018E-13
  0.439999998       4.31669999E-13
  0.479999989       3.93108153E-13
  0.519999981       2.02494610E-13
  0.560000002      -1.62455837E-13
  0.600000024      -6.90413384E-13
  0.639999986      -1.32852908E-12
  0.680000007      -1.98123462E-12
  0.720000029      -2.51764321E-12
  0.759999990      -2.78812195E-12
  0.800000012      -2.64890497E-12
  0.839999974      -1.99176656E-12
  0.879999995      -7.74154070E-13
  0.920000017       9.55886412E-13
  0.959999979       3.04583659E-12
   1.00000000       5.24082687E-12
   1.03999996       7.20470645E-12
   1.08000004       8.56009187E-12
   1.12000000       8.94399051E-12
   1.15999997       8.07215145E-12
   1.20000005       5.80253944E-12
   1.24000001       2.18677897E-12
   1.27999997      -2.50133052E-12
   1.32000005      -7.76900072E-12
   1.36000001      -1.29440425E-11
   1.39999998      -1.72501423E-11
   1.44000006      -1.99109652E-11
   1.48000002      -2.02703982E-11
   1.51999998      -1.79118474E-11
   1.55999994      -1.27571920E-11
   1.60000002      -5.12687115E-12
   1.63999999       4.25359878E-12
   1.67999995       1.43085691E-11
   1.72000003       2.37276501E-11
   1.75999999       3.11308930E-11
   1.79999995       3.52639862E-11
   1.84000003       3.51968350E-11
   1.88000000       3.04955505E-11
   1.91999996       2.13388925E-11
   1.96000004       8.55579323E-12
   2.00000000      -6.42957649E-12
   2.03999996      -2.17459939E-11
   2.07999992      -3.53034824E-11
   2.11999989      -4.50753185E-11
   2.16000009      -4.93970732E-11
   2.20000005      -4.72403089E-11
   2.24000001      -3.84186225E-11
   2.27999997      -2.36901297E-11
   2.31999993      -4.73244534E-12
   2.35999990       1.60173992E-11
   2.40000010       3.56469507E-11
   2.44000006       5.11466251E-11
   2.48000002       5.98369271E-11
   2.51999998       5.97886393E-11
   2.55999994       5.01762694E-11
   2.59999990       3.15091009E-11
   2.64000010       5.69629413E-12
   2.68000007      -2.40790530E-11
   2.72000003      -5.36781314E-11
   2.75999999      -7.84925944E-11
   2.79999995      -9.40493655E-11
   2.83999991      -9.66641281E-11
   2.88000011      -8.40599049E-11
   2.92000008      -5.58630399E-11
   2.96000004      -1.38957760E-11
   3.00000000       3.77975012E-11
   3.03999996       9.32249278E-11
   3.07999992       1.45021661E-10
   3.11999989       1.85283025E-10
   3.16000009       2.06575812E-10
   3.20000005       2.03013800E-10
   3.24000001       1.71260589E-10
   3.27999997       1.11316012E-10
   3.31999993       2.69527629E-11
   3.35999990      -7.42990114E-11
   3.40000010      -1.81673565E-10
   3.44000006      -2.82190160E-10
   3.48000002      -3.62095715E-10
   3.51999998      -4.08585887E-10
   3.55999994      -4.11604473E-10
   3.59999990      -3.65487002E-10
   3.64000010      -2.70206246E-10
   3.68000007      -1.32005518E-10
   3.72000003       3.67365444E-11
   3.75999999       2.18475460E-10
   3.79999995       3.92263194E-10
   3.83999991       5.36146350E-10
   3.88000011       6.29938435E-10
   3.92000008       6.58024357E-10
   3.96000004       6.11816708E-10
   4.00000000       4.91493402E-10
   4.03999996       3.06711295E-10
   4.07999992       7.61046642E-11
   4.11999989      -1.74469647E-10
   4.15999985      -4.14807827E-10
   4.19999981      -6.14052642E-10
   4.23999977      -7.44763751E-10
   4.28000021      -7.86832544E-10
   4.32000017      -7.30690952E-10
   4.36000013      -5.79315762E-10
   4.40000010      -3.48664903E-10
   4.44000006      -6.63699373E-11
   4.48000002       2.31257569E-10
   4.51999998       5.03610542E-10
   4.55999994       7.11053716E-10
   4.59999990       8.20407464E-10
   4.63999987       8.09912581E-10
   4.67999983       6.72962852E-10
   4.71999979       4.20020629E-10
   4.76000023       7.83446502E-11
   4.80000019      -3.10562159E-10
   4.84000015      -6.95572600E-10
   4.88000011      -1.02211872E-09
   4.92000008      -1.23919852E-09
   4.96000004      -1.30631828E-09
   5.00000000      -1.19945154E-09
   5.03999996      -9.15185261E-10
   5.07999992      -4.72428485E-10
   5.11999989       8.86444460E-11
   5.15999985       7.10394077E-10
   5.19999981       1.32388112E-09
   5.23999977       1.85669780E-09
   5.28000021       2.24153562E-09
   5.32000017       2.42443843E-09
   5.36000013       2.37170528E-09
   5.40000010       2.07456252E-09
   5.44000006       1.55098367E-09
   5.48000002       8.44389836E-10
   5.51999998       1.93455755E-11
   5.55999994      -8.45259807E-10
   5.59999990      -1.66474445E-09
   5.63999987      -2.35786746E-09
   5.67999983      -2.85566792E-09
   5.71999979      -3.10886961E-09
   5.76000023      -3.09299275E-09
   5.80000019      -2.81060086E-09
   5.84000015      -2.29046671E-09
   5.88000011      -1.58380631E-09
   5.92000008      -7.58082652E-10
   5.96000004       1.10855831E-10
   6.00000000       9.47353307E-10
   6.03999996       1.68424985E-09
   6.07999992       2.26997843E-09
   6.11999989       2.67370681E-09
   6.15999985       2.88802404E-09
   6.19999981       2.92897839E-09
   6.23999977       2.83357493E-09
   6.28000021       2.65511457E-09
   6.32000017       2.45698017E-09
   6.36000013       2.30558772E-09
   6.40000010       2.26327379E-09
   6.44000006       2.38183651E-09
   6.48000002       2.69731681E-09
   6.51999998       3.22644267E-09
   6.55999994       3.96493993E-09
   6.59999990       4.88771734E-09
   6.63999987       5.95073724E-09
   6.67999983       7.09424164E-09
   6.71999979       8.24687429E-09
   6.76000023       9.33023525E-09
   6.80000019       1.02633306E-08
   6.84000015       1.09664624E-08
   6.88000011       1.13641265E-08
   6.92000008       1.13865886E-08
   6.96000004       1.09698837E-08
   7.00000000       1.00540145E-08
   7.03999996       8.57930704E-09
   7.07999992       6.48086163E-09
   7.11999989       3.68110342E-09
   7.15999985       8.05421493E-11
   7.19999981      -4.45316939E-09
   7.23999977      -1.00977431E-08
   7.28000021      -1.70900254E-08
   7.32000017      -2.57411017E-08
   7.36000013      -3.64522954E-08
   7.40000010      -4.97319625E-08
   7.44000006      -6.62130546E-08
   7.48000002      -8.66712355E-08
   7.51999998      -1.12043381E-07
   7.55999994      -1.43446954E-07
   7.59999990      -1.82200026E-07
   7.63999987      -2.29842428E-07
   7.67999983      -2.88158418E-07
   7.71999979      -3.59201834E-07
   7.76000023      -4.45324133E-07
   7.80000019      -5.49206732E-07
   7.84000015      -6.73898569E-07
   7.88000011      -8.22860102E-07
   7.92000008      -1.00001512E-06
   7.96000004      -1.20981088E-06
   8.00000000      -1.45728870E-06
   8.03999996      -1.74816523E-06
   8.07999992      -2.08892402E-06
   8.11999989      -2.48692049E-06
   8.15999985      -2.95049449E-06
   8.19999981      -3.48909680E-06
   8.23999977      -4.11342035E-06
   8.27999973      -4.83554413E-06
   8.31999969      -5.66908102E-06
   8.35999966      -6.62932871E-06
   8.39999962      -7.73343163E-06
   8.43999958      -9.00053146E-06
   8.47999954      -1.04519313E-05
   8.52000046      -1.21112471E-05
   8.56000042      -1.40045613E-05
   8.60000038      -1.61605694E-05
   8.64000034      -1.86107100E-05
   8.68000031      -2.13892927E-05
   8.72000027      -2.45335850E-05
   8.76000023      -2.80838794E-05
   8.80000019      -3.20835279E-05
   8.84000015      -3.65789128E-05
   8.88000011      -4.16193761E-05
   8.92000008      -4.72570537E-05
   8.96000004      -5.35466061E-05
   9.00000000      -6.05449313E-05
   9.03999996      -6.83106264E-05
   9.07999992      -7.69034959E-05
   9.11999989      -8.63837995E-05
   9.15999985      -9.68114837E-05
   9.19999981      -1.08245164E-04
   9.23999977      -1.20741133E-04
   9.27999973      -1.34352129E-04
   9.31999969      -1.49126063E-04
   9.35999966      -1.65104619E-04
   9.39999962      -1.82321863E-04
   9.43999958      -2.00802679E-04
   9.47999954      -2.20561255E-04
   9.52000046      -2.41599511E-04
   9.56000042      -2.63905444E-04
   9.60000038      -2.87451723E-04
   9.64000034      -3.12194054E-04
   9.68000031      -3.38069804E-04
   9.72000027      -3.64996697E-04
   9.76000023      -3.92871647E-04
   9.80000019      -4.21569624E-04
   9.84000015      -4.50943102E-04
   9.88000011      -4.80821240E-04
   9.92000008      -5.11009945E-04
   9.96000004      -5.41291665E-04
   10.0000000      -5.71426121E-04
   10.0400000      -6.01150852E-04
   10.0799999      -6.30182796E-04
   10.1199999      -6.58219564E-04
   10.1599998      -6.84942002E-04
   10.1999998      -7.10016291E-04
   10.2399998      -7.33097258E-04
   10.2799997      -7.53831642E-04
   10.3199997      -7.71861756E-04
   10.3599997      -7.86829682E-04
   10.3999996      -7.98381632E-04
   10.4399996      -8.06172553E-04
   10.4799995      -8.09870951E-04
   10.5200005      -8.09163961E-04
   10.5600004      -8.03762174E-04
   10.6000004      -7.93405052E-04
   10.6400003      -7.77865585E-04
   10.6800003      -7.56954891E-04
   10.7200003      -7.30527216E-04
   10.7600002      -6.98483957E-04
   10.8000002      -6.60777383E-04
   10.8400002      -6.17413956E-04
   10.8800001      -5.68457181E-04
   10.9200001      -5.14029583E-04
   10.9600000      -4.54313937E-04
   11.0000000      -3.89554043E-04
   11.0400000      -3.20054300E-04
   11.0799999      -2.46178446E-04
   11.1199999      -1.68347528E-04
   11.1599998      -8.70368967E-05
   11.1999998      -2.77231106E-06
   11.2399998       8.38748747E-05
   11.2799997       1.72293192E-04
   11.3199997       2.61837558E-04
   11.3599997       3.51836235E-04
   11.3999996       4.41598415E-04
   11.4399996       5.30422491E-04
   11.4799995       6.17604121E-04
   11.5200005       7.02445337E-04
   11.5600004       7.84263131E-04
   11.6000004       8.62398010E-04
   11.6400003       9.36222554E-04
   11.6800003       1.00514980E-03
   11.7200003       1.06864003E-03
   11.7600002       1.12620904E-03
   11.8000002       1.17743295E-03
   11.8400002       1.22195459E-03
   11.8800001       1.25948701E-03
   11.9200001       1.28981692E-03
   11.9600000       1.31280662E-03
   12.0000000       1.32839498E-03
   12.0400000       1.33659667E-03
   12.0799999       1.33750041E-03
   12.1199999       1.33126625E-03
   12.1599998       1.31812168E-03
   12.1999998       1.29835552E-03
   12.2399998       1.27231330E-03
   12.2799997       1.24038884E-03
   12.3199997       1.20301777E-03
   12.3599997       1.16066867E-03
   12.3999996       1.11383514E-03
   12.4399996       1.06302684E-03
   12.4799995       1.00876123E-03
   12.5200005       9.51554975E-04
   12.5600004       8.91916512E-04
   12.6000004       8.30338511E-04
   12.6400003       7.67291291E-04
   12.6800003       7.03217403E-04
   12.7200003       6.38526981E-04
   12.7600002       5.73594181E-04
   12.8000002       5.08754572E-04
   12.8400002       4.44304431E-04
   12.8800001       3.80500278E-04
   12.9200001       3.17560247E-04
   12.9600000       2.55666091E-04
   13.0000000       1.94966458E-04
   13.0400000       1.35580834E-04
   13.0799999       7.76043016E-05
   13.1199999       2.11127572E-05
   13.1599998      -3.38314203E-05
   13.1999998      -8.71736775E-05
   13.2399998      -1.38861491E-04
   13.2799997      -1.88838996E-04
   13.3199997      -2.37041881E-04
   13.3599997      -2.83393281E-04
   13.3999996      -3.27799993E-04
   13.4399996      -3.70150112E-04
   13.4799995      -4.10311477E-04
   13.5200005      -4.48131323E-04
   13.5600004      -4.83437296E-04
   13.6000004      -5.16039261E-04
   13.6400003      -5.45732852E-04
   13.6800003      -5.72303310E-04
   13.7200003      -5.95531368E-04
   13.7600002      -6.15198573E-04
   13.8000002      -6.31094386E-04
   13.8400002      -6.43023115E-04
   13.8800001      -6.50811184E-04
   13.9200001      -6.54314470E-04
   13.9600000      -6.53425232E-04
   14.0000000      -6.48078567E-04
   14.0400000      -6.38258352E-04
   14.0799999      -6.24002016E-04
   14.1199999      -6.05404435E-04
   14.1599998      -5.82620502E-04
   14.1999998      -5.55866398E-04
   14.2399998      -5.25419367E-04
   14.2799997      -4.91615792E-04
   14.3199997      -4.54848167E-04
   14.3599997      -4.15560120E-04
   14.3999996      -3.74240335E-04
   14.4399996      -3.31414776E-04
   14.4799995      -2.87638337E-04
   14.5200005      -2.43484828E-04
   14.5600004      -1.99536589E-04
   14.6000004      -1.56373470E-04
   14.6400003      -1.14561655E-04
   14.6800003      -7.46423175E-05
   14.7200003      -3.71207243E-05
   14.7600002      -2.45597516E-06
   14.8000002       2.89484960E-05
   14.8400002       5.67531933E-05
   14.8800001       8.06895114E-05
   14.9200001       1.00565172E-04
   14.9600000       1.16267896E-04
   15.0000000       1.27767256E-04
   15.0400000       1.35114751E-04
   15.0799999       1.38441872E-04
   15.1199999       1.37956420E-04
   15.1599998       1.33936977E-04
   15.1999998       1.26725834E-04
   15.2399998       1.16720439E-04
   15.2799997       1.04363578E-04
   15.3199997       9.01326130E-05
   15.3599997       7.45279394E-05
   15.3999996       5.80610431E-05
   15.4399996       4.12423942E-05
   15.4799995       2.45694810E-05
   15.5200005       8.51528966E-06
   15.5600004      -6.48251171E-06
   15.6000004      -2.00314244E-05
   15.6400003      -3.17927588E-05
   15.6800003      -4.14888746E-05
   15.7200003      -4.89088707E-05
   15.7600002      -5.39125722E-05
   15.8000002      -5.64327638E-05
   15.8400002      -5.64756047E-05
   15.8800001      -5.41192494E-05
   15.9200001      -4.95107015E-05
   15.9600000      -4.28610729E-05
   16.0000000      -3.44392320E-05
   16.0400009      -2.45642004E-05
   16.0799999      -1.35962982E-05
   16.1200008      -1.92745188E-06
   16.1599998       1.00292418E-05
   16.2000008       2.18503537E-05
   16.2399998       3.31131378E-05
   16.2800007       4.34064386E-05
   16.3199997       5.23412382E-05
   16.3600006       5.95606398E-05
   16.3999996       6.47489942E-05
   16.4400005       6.76400086E-05
   16.4799995       6.80236626E-05
   16.5200005       6.57517885E-05
   16.5599995       6.07421534E-05
   16.6000004       5.29810241E-05
   16.6399994       4.25241378E-05
   16.6800003       2.94961283E-05
   16.7199993       1.40883267E-05
   16.7600002      -3.44486443E-06
   16.7999992      -2.27910150E-05
   16.8400002      -4.35859693E-05
   16.8799992      -6.54212563E-05
   16.9200001      -8.78524370E-05
   16.9599991      -1.10408146E-04
   17.0000000      -1.32599802E-04
   17.0400009      -1.53931542E-04
   17.0799999      -1.73910303E-04
   17.1200008      -1.92055886E-04
   17.1599998      -2.07910693E-04
   17.2000008      -2.21049137E-04
   17.2399998      -2.31086233E-04
   17.2800007      -2.37685468E-04
   17.3199997      -2.40565918E-04
   17.3600006      -2.39508110E-04
   17.3999996      -2.34358813E-04
   17.4400005      -2.25034630E-04
   17.4799995      -2.11524413E-04
   17.5200005      -1.93890213E-04
   17.5599995      -1.72267130E-04
   17.6000004      -1.46861712E-04
   17.6399994      -1.17949305E-04
   17.6800003      -8.58701605E-05
   17.7199993      -5.10244790E-05
   17.7600002      -1.38665482E-05
   17.7999992       2.51020610E-05
   17.8400002       6.53399111E-05
   17.8799992       1.06273845E-04
   17.9200001       1.47307495E-04
   17.9599991       1.87830141E-04
   18.0000000       2.27225813E-04
   18.0400009       2.64882547E-04
   18.0799999       3.00201413E-04
   18.1200008       3.32605647E-04
   18.1599998       3.61549319E-04
   18.2000008       3.86525702E-04
   18.2399998       4.07075218E-04
   18.2800007       4.22792888E-04
   18.3199997       4.33335139E-04
   18.3600006       4.38425574E-04
   18.3999996       4.37860552E-04
   18.4400005       4.31513385E-04
   18.4799995       4.19338088E-04
   18.5200005       4.01371683E-04
   18.5599995       3.77735996E-04
   18.6000004       3.48638190E-04
   18.6399994       3.14370409E-04
   18.6800003       2.75308324E-04
   18.7199993       2.31908678E-04
   18.7600002       1.84706034E-04
   18.7999992       1.34308269E-04
   18.8400002       8.13914157E-05
   18.8799992       2.66934676E-05
   18.9200001      -2.89925865E-05
   18.9599991      -8.48265263E-05
   19.0000000      -1.39929354E-04
   19.0400009      -1.93392407E-04
   19.0799999      -2.44287163E-04
   19.1200008      -2.91675387E-04
   19.1599998      -3.34619777E-04
   19.2000008      -3.72194918E-04
   19.2399998      -4.03498503E-04
   19.2800007      -4.27662628E-04
   19.3199997      -4.43865109E-04
   19.3600006      -4.51340718E-04
   19.3999996      -4.49392042E-04
   19.4400005      -4.37400158E-04
   19.4799995      -4.14834794E-04
   19.5200005      -3.81263671E-04
   19.5599995      -3.36361292E-04
   19.6000004      -2.79916771E-04
   19.6399994      -2.11840743E-04
   19.6800003      -1.32170928E-04
   19.7199993      -4.10768698E-05
   19.7600002       6.11370124E-05
   19.7999992       1.74029628E-04
   19.8400002       2.97022692E-04
   19.8799992       4.29402164E-04
   19.9200001       5.70320757E-04
   19.9599991       7.18802330E-04
   20.0000000       8.73747806E-04
   20.0400009       1.03394256E-03
   20.0799999       1.19806535E-03
   20.1200008       1.36469910E-03
   20.1599998       1.53234240E-03
   20.2000008       1.69942225E-03
   20.2399998       1.86430977E-03
   20.2800007       2.02533416E-03
   20.3199997       2.18079961E-03
   20.3600006       2.32900283E-03
   20.3999996       2.46824999E-03
   20.4400005       2.59687589E-03
   20.4799995       2.71326047E-03
   20.5200005       2.81584938E-03
   20.5599995       2.90316949E-03
   20.6000004       2.97384849E-03
   20.6399994       3.02663120E-03
   20.6800003       3.06039490E-03
   20.7199993       3.07416474E-03
   20.7600002       3.06712766E-03
   20.7999992       3.03864363E-03
   20.8400002       2.98825698E-03
   20.8799992       2.91570416E-03
   20.9200001       2.82092113E-03
   20.9599991       2.70404783E-03
   21.0000000       2.56543024E-03
   21.0400009       2.40561995E-03
   21.0799999       2.22537364E-03
   21.1200008       2.02564686E-03
   21.1599998       1.80758815E-03
   21.2000008       1.57252967E-03
   21.2399998       1.32197619E-03
   21.2800007       1.05759129E-03
   21.3199997       7.81182607E-04
   21.3600006       4.94684209E-04
   21.3999996       2.00138093E-04
   21.4400005      -1.00325771E-04
   21.4799995      -4.04510676E-04
   21.5200005      -7.10175140E-04
   21.5599995      -1.01505558E-03
   21.6000004      -1.31688942E-03
   21.6399994      -1.61343790E-03
   21.6800003      -1.90250855E-03
   21.7199993      -2.18197750E-03
   21.7600002      -2.44981027E-03
   21.7999992      -2.70408252E-03
   21.8400002      -2.94299820E-03
   21.8799992      -3.16490582E-03
   21.9200001      -3.36831599E-03
   21.9599991      -3.55191249E-03
   22.0000000      -3.71456449E-03
   22.0400009      -3.85533576E-03
   22.0799999      -3.97349009E-03
   22.1200008      -4.06849710E-03
   22.1599998      -4.14003292E-03
   22.2000008      -4.18798067E-03
   22.2399998      -4.21242602E-03
   22.2800007      -4.21365350E-03
   22.3199997      -4.19213995E-03
   22.3600006      -4.14854195E-03
   22.3999996      -4.08368930E-03
   22.4400005      -3.99856875E-03
   22.4799995      -3.89431091E-03
   22.5200005      -3.77217564E-03
   22.5599995      -3.63353477E-03
   22.6000004      -3.47985583E-03
   22.6399994      -3.31268436E-03
   22.6800003      -3.13362572E-03
   22.7199993      -2.94432719E-03
   22.7600002      -2.74646073E-03
   22.7999992      -2.54170550E-03
   22.8400002      -2.33173068E-03
   22.8799992      -2.11818051E-03
   22.9200001      -1.90265768E-03
   22.9599991      -1.68671017E-03
   23.0000000      -1.47181819E-03
   23.0400009      -1.25938212E-03
   23.0799999      -1.05071289E-03
   23.1200008      -8.47022748E-04
   23.1599998      -6.49417867E-04
   23.2000008      -4.58892493E-04
   23.2399998      -2.76324979E-04
   23.2800007      -1.02474318E-04
   23.3199997       6.20206993E-05
   23.3600006       2.16641653E-04
   23.3999996       3.60989216E-04
   23.4400005       4.94780194E-04
   23.4799995       6.17843587E-04
   23.5200005       7.30115804E-04
   23.5599995       8.31634214E-04
   23.6000004       9.22530249E-04
   23.6399994       1.00302149E-03
   23.6800003       1.07340328E-03
   23.7199993       1.13403983E-03
   23.7600002       1.18535419E-03
   23.7999992       1.22781901E-03
   23.8400002       1.26194628E-03
   23.8799992       1.28827791E-03
   23.9200001       1.30737585E-03
   23.9599991       1.31981284E-03
   24.0000000       1.32616318E-03
   24.0400009       1.32699509E-03
   24.0799999       1.32286223E-03
   24.1200008       1.31429709E-03
   24.1599998       1.30180502E-03
   24.2000008       1.28585903E-03
   24.2399998       1.26689544E-03
   24.2800007       1.24531088E-03
   24.3199997       1.22145982E-03
   24.3600006       1.19565416E-03
   24.3999996       1.16816256E-03
   24.4400005       1.13921170E-03
   24.4799995       1.10898772E-03
   24.5200005       1.07763964E-03
   24.5599995       1.04528212E-03
   24.6000004       1.01200014E-03
   24.6399994       9.77853197E-04
   24.6800003       9.42880753E-04
   24.7199993       9.07106616E-04
   24.7600002       8.70545511E-04
   24.7999992       8.33207334E-04
   24.8400002       7.95102911E-04
   24.8799992       7.56248483E-04
   24.9200001       7.16670242E-04
   24.9599991       6.76408003E-04
   25.0000000       6.35518460E-04
   25.0400009       5.94077632E-04
   25.0799999       5.52182551E-04
   25.1200008       5.09952079E-04
   25.1599998       4.67527017E-04
   25.2000008       4.25069273E-04
   25.2399998       3.82760307E-04
   25.2800007       3.40798870E-04
   25.3199997       2.99398002E-04
   25.3600006       2.58781627E-04
   25.3999996       2.19180365E-04
   25.4400005       1.80827483E-04
   25.4799995       1.43954123E-04
   25.5200005       1.08784749E-04
   25.5599995       7.55324945E-05
   25.6000004       4.43946228E-05
   25.6399994       1.55483431E-05
   25.6800003      -1.08531021E-05
   25.7199993      -3.46838533E-05
   25.7600002      -5.58483152E-05
   25.7999992      -7.42834382E-05
   25.8400002      -8.99602965E-05
   25.8799992      -1.02885046E-04
   25.9200001      -1.13099086E-04
   25.9599991      -1.20678495E-04
   26.0000000      -1.25732782E-04
   26.0400009      -1.28403059E-04
   26.0799999      -1.28859363E-04
   26.1200008      -1.27297666E-04
   26.1599998      -1.23936188E-04
   26.2000008      -1.19011464E-04
   26.2399998      -1.12773982E-04
   26.2800007      -1.05483698E-04
   26.3199997      -9.74054201E-05
   26.3600006      -8.88041541E-05
   26.3999996      -7.99405898E-05
   26.4400005      -7.10667373E-05
   26.4799995      -6.24219174E-05
   26.5200005      -5.42290218E-05
   26.5599995      -4.66912898E-05
   26.6000004      -3.99895434E-05
   26.6399994      -3.42799613E-05
   26.6800003      -2.96924518E-05
   26.7199993      -2.63295842E-05
   26.7600002      -2.42661918E-05
   26.7999992      -2.35495099E-05
   26.8400002      -2.41999969E-05
   26.8799992      -2.62126778E-05
   26.9200001      -2.95590762E-05
   26.9599991      -3.41896302E-05
   27.0000000      -4.00366262E-05
   27.0400009      -4.70175073E-05
   27.0799999      -5.50385375E-05
   27.1200008      -6.39987047E-05
   27.1599998      -7.37938535E-05
   27.2000008      -8.43208109E-05
   27.2399998      -9.54815769E-05
   27.2800007      -1.07187247E-04
   27.3199997      -1.19361815E-04
   27.3600006      -1.31945591E-04
   27.3999996      -1.44898062E-04
   27.4400005      -1.58200390E-04
   27.4799995      -1.71857144E-04
   27.5200005      -1.85897341E-04
   27.5599995      -2.00374852E-04
   27.6000004      -2.15367851E-04
   27.6399994      -2.30977603E-04
   27.6800003      -2.47326243E-04
   27.7199993      -2.64553848E-04
   27.7600002      -2.82814552E-04
   27.7999992      -3.02271917E-04
   27.8400002      -3.23093700E-04
   27.8799992      -3.45445646E-04
   27.9200001      -3.69485002E-04
   27.9599991      -3.95353447E-04
   28.0000000      -4.23169753E-04
   28.0400009      -4.53022338E-04
   28.0799999      -4.84961871E-04
   28.1200008      -5.18993940E-04
   28.1599998      -5.55072271E-04
   28.2000008      -5.93092642E-04
   28.2399998      -6.32887415E-04
   28.2800007      -6.74221141E-04
   28.3199997      -7.16787181E-04
   28.3600006      -7.60205730E-04
   28.3999996      -8.04023352E-04
   28.4400005      -8.47713498E-04
   28.4799995      -8.90679425E-04
   28.5200005      -9.32257797E-04
   28.5599995      -9.71724745E-04
   28.6000004      -1.00830325E-03
   28.6399994      -1.04117161E-03
   28.6800003      -1.06947403E-03
   28.7199993      -1.09233253E-03
   28.7600002      -1.10885932E-03
   28.7999992      -1.11817138E-03
   28.8400002      -1.11940422E-03
   28.8799992      -1.11172756E-03
   28.9200001      -1.09436072E-03
   28.9599991      -1.06658787E-03
   29.0000000      -1.02777302E-03
   29.0400009      -9.77374380E-04
   29.0799999      -9.14958946E-04
   29.1200008      -8.40213674E-04
   29.1599998      -7.52957654E-04
   29.2000008      -6.53151306E-04
   29.2399998      -5.40904293E-04
   29.2800007      -4.16481518E-04
   29.3199997      -2.80306413E-04
   29.3600006      -1.32962741E-04
   29.3999996       2.48063352E-05
   29.4400005       1.92101608E-04
   29.4799995       3.67873174E-04