  -4.80000019       0.00000000
  -4.76000023       0.00000000
  -4.71999979       0.00000000
  -4.67999983       0.00000000
  -4.63999987       0.00000000
  -4.59999990       0.00000000
  -4.55999994       0.00000000
  -4.51999998       0.00000000
  -4.48000002       0.00000000
  -4.44000006      -2.05071174E-36
  -4.40000010      -4.09347770E-35
  -4.36000013      -4.41089516E-34
  -4.32000017      -3.39336052E-33
  -4.28000021      -2.07553144E-32
  -4.23999977      -1.06542658E-31
  -4.19999981      -4.73666013E-31
  -4.15999985      -1.86139794E-30
  -4.11999989      -6.55999951E-30
  -4.07999992      -2.09607051E-29
  -4.03999996      -6.12445301E-29
  -4.00000000      -1.64766027E-28
  -3.96000004      -4.10391549E-28
  -3.92000008      -9.50498524E-28
  -3.88000011      -2.05384193E-27
  -3.83999991      -4.14999538E-27
  -3.79999995      -7.85123600E-27
  -3.75999999      -1.39077872E-26
  -3.72000003      -2.30335289E-26
  -3.68000007      -3.55344028E-26
  -3.64000010      -5.06994063E-26
  -3.59999990      -6.59929047E-26
  -3.55999994      -7.62236048E-26
  -3.51999998      -7.30408346E-26
  -3.48000002      -4.52633935E-26
  -3.44000006       1.94168698E-26
  -3.40000010       1.31008411E-25
  -3.35999990       2.92216167E-25
  -3.31999993       4.92758612E-25
  -3.27999997       7.04692306E-25
  -3.24000001       8.80842284E-25
  -3.20000005       9.57998107E-25
  -3.16000009       8.64927311E-25
  -3.11999989       5.32711360E-25
  -3.07999992      -9.75170931E-26
  -3.03999996      -1.07470426E-24
  -3.00000000      -2.44703706E-24
  -2.96000004      -4.27120730E-24
  -2.92000008      -6.59780108E-24
  -2.88000011      -9.39438044E-24
  -2.83999991      -1.23648299E-23
  -2.79999995      -1.46467252E-23
  -2.75999999      -1.44313630E-23
  -2.72000003      -8.65697456E-24
  -2.68000007       6.94321053E-24
  -2.64000010       3.70481803E-23
  -2.59999990       8.48171444E-23
  -2.55999994       1.48620549E-22
  -2.51999998       2.17718491E-22
  -2.48000002       2.67953103E-22
  -2.44000006       2.59488739E-22
  -2.40000010       1.39495107E-22
  -2.35999990      -1.47054603E-22
  -2.31999993      -6.36190294E-22
  -2.27999997      -1.31365783E-21
  -2.24000001      -2.07830583E-21
  -2.20000005      -2.71080698E-21
  -2.16000009      -2.86432855E-21
  -2.11999989      -2.09745559E-21
  -2.07999992       3.19821755E-23
  -2.03999996       3.80348147E-21
  -2.00000000       9.11227171E-21
  -1.96000004       1.52304000E-20
  -1.91999996       2.06251912E-20
  -1.88000000       2.29385585E-20
  -1.84000003       1.92407122E-20
  -1.79999995       6.64816610E-21
  -1.75999999      -1.66737656E-20
  -1.72000003      -5.02228525E-20
  -1.67999995      -8.98417795E-20
  -1.63999999      -1.26788370E-19
  -1.60000002      -1.47731498E-19
  -1.55999994      -1.36218850E-19
  -1.51999998      -7.60004112E-20
  -1.48000002       4.37860690E-20
  -1.44000006       2.22146514E-19
  -1.39999998       4.39776518E-19
  -1.36000001       6.54616158E-19
  -1.32000005       8.01851825E-19
  -1.27999997       8.00733374E-19
  -1.24000001       5.69747427E-19
  -1.20000005       4.99818166E-20
  -1.15999997      -7.65987807E-19
  -1.12000000      -1.80530887E-18
  -1.08000004      -2.89451217E-18
  -1.03999996      -3.75759408E-18
  -1.00000000      -4.04201227E-18
 -0.959999979      -3.37867298E-18
 -0.920000017      -1.47529037E-18
 -0.879999995       1.76709043E-18
 -0.839999974       6.13566100E-18
 -0.800000012       1.10168637E-17
 -0.759999990       1.53741509E-17
 -0.720000029       1.78281989E-17
 -0.680000007       1.68633672E-17
 -0.639999986       1.11608999E-17
 -0.600000024       2.61471824E-20
 -0.560000002      -1.61611669E-17
 -0.519999981      -3.55800392E-17
 -0.479999989      -5.48131200E-17
 -0.439999998      -6.90297309E-17
 -0.400000006      -7.25979564E-17
 -0.360000014      -6.01444612E-17
 -0.319999993      -2.79762542E-17
 -0.280000001       2.43448717E-17
 -0.239999995       9.26014204E-17
 -0.200000003       1.67099894E-16
 -0.159999996       2.32848643E-16
 -0.119999997       2.71063884E-16
  -7.99999982E-02   2.62135998E-16
  -3.99999991E-02   1.89887396E-16
   2.77555756E-16   4.65887444E-17
   3.99999991E-02  -1.62165980E-16
   7.99999982E-02  -4.13903311E-16
  0.119999997      -6.68309737E-16
  0.159999996      -8.69977535E-16
  0.200000003      -9.55494351E-16
  0.239999995      -8.64734983E-16
  0.280000001      -5.55224221E-16
  0.319999993      -1.73834487E-17
  0.360000014       7.12417442E-16
  0.400000006       1.54456543E-15
  0.439999998       2.33807013E-15
  0.479999989       2.91403834E-15
  0.519999981       3.08143153E-15
  0.560000002       2.67333445E-15
  0.600000024       1.58919104E-15
  0.639999986      -1.64120958E-16
  0.680000007      -2.44132090E-15
  0.720000029      -4.94720223E-15
  0.759999990      -7.25246127E-15
  0.800000012      -8.84129772E-15
  0.839999974      -9.18985262E-15
  0.879999995      -7.86799079E-15
  0.920000017      -4.65021469E-15
  0.959999979       3.84065888E-16
   1.00000000       6.78362429E-15
   1.03999996       1.37136616E-14
   1.08000004       2.00155088E-14
   1.12000000       2.43439708E-14
   1.15999997       2.53747998E-14
   1.20000005       2.20592926E-14
   1.24000001       1.38885036E-14
   1.27999997       1.11903757E-15
   1.32000005      -1.50911744E-14
   1.36000001      -3.26830881E-14
   1.39999998      -4.88631251E-14
   1.44000006      -6.04417368E-14
   1.48000002      -6.43185592E-14
   1.51999998      -5.80562548E-14
   1.55999994      -4.04567296E-14
   1.60000002      -1.20356174E-14
   1.63999999       2.47109885E-14
   1.67999995       6.53366047E-14
   1.72000003       1.03823315E-13
   1.75999999       1.33308756E-13
   1.79999995       1.47097747E-13
   1.84000003       1.39832861E-13
   1.88000000       1.08648150E-13
   1.91999996       5.41023288E-14
   1.96000004      -1.93076637E-14
   2.00000000      -1.03211825E-13
   2.03999996      -1.86095158E-13
   2.07999992      -2.54671176E-13
   2.11999989      -2.95769675E-13
   2.16000009      -2.98498503E-13
   2.20000005      -2.56357381E-13
   2.24000001      -1.68941684E-13
   2.27999997      -4.28930200E-14
   2.31999993       1.08166954E-13
   2.35999990       2.64847633E-13
   2.40000010       4.04297797E-13
   2.44000006       5.03372355E-13
   2.48000002       5.42244743E-13
   2.51999998       5.07926329E-13
   2.55999994       3.97102408E-13
   2.59999990       2.17739577E-13
   2.64000010      -1.09409755E-14
   2.68000007      -2.60303416E-13
   2.72000003      -4.95847449E-13
   2.75999999      -6.82067792E-13
   2.79999995      -7.87959921E-13
   2.83999991      -7.92327196E-13
   2.88000011      -6.87987698E-13
   2.92000008      -4.84066997E-13
   2.96000004      -2.05801142E-13
   3.00000000       1.08367986E-13
   3.03999996       4.12181384E-13
   3.07999992       6.58764872E-13
   3.11999989       8.08585024E-13
   3.16000009       8.36853861E-13
   3.20000005       7.39021474E-13
   3.24000001       5.33172410E-13
   3.27999997       2.58542238E-13
   3.31999993      -3.00382921E-14
   3.35999990      -2.71266679E-13
   3.40000010      -4.08853236E-13
   3.44000006      -4.03569783E-13
   3.48000002      -2.43709404E-13
   3.51999998       4.82246282E-14
   3.55999994       4.14435250E-13
   3.59999990       7.67470289E-13
   3.64000010       1.00266768E-12
   3.68000007       1.01628450E-12
   3.72000003       7.26985692E-13
   3.75999999       9.73596678E-14
   3.79999995      -8.48458023E-13
   3.83999991      -2.01498583E-12
   3.88000011      -3.23670279E-12
   3.92000008      -4.29238459E-12
   3.96000004      -4.93250796E-12
   4.00000000      -4.91750130E-12
   4.03999996      -4.06236243E-12
   4.07999992      -2.28124008E-12
   4.11999989       3.75586227E-13
   4.15999985       3.70004288E-12
   4.19999981       7.32644934E-12
   4.23999977       1.07577064E-11
   4.28000021       1.34180653E-11
   4.32000017       1.47288449E-11
   4.36000013       1.41990647E-11
   4.40000010       1.15191528E-11
   4.44000006       6.64336685E-12
   4.48000002      -1.54100040E-13
   4.51999998      -8.26265271E-12
   4.55999994      -1.67677244E-11
   4.59999990      -2.45351326E-11
   4.63999987      -3.03427040E-11
   4.67999983      -3.30464510E-11
   4.71999979      -3.17611389E-11
   4.76000023      -2.60299386E-11
   4.80000019      -1.59557333E-11
   4.84000015      -2.26865098E-12
   4.88000011       1.36893925E-11
   4.92000008       3.00722676E-11
   4.96000004       4.47256954E-11
   5.00000000       5.54540268E-11
   5.03999996       6.03271461E-11
   5.07999992       5.79867543E-11
   5.11999989       4.79066786E-11
   5.15999985       3.05630833E-11
   5.19999981       7.47920389E-12
   5.23999977      -1.88759806E-11
   5.28000021      -4.53360058E-11
   5.32000017      -6.84110477E-11
   5.36000013      -8.47456202E-11
   5.40000010      -9.16009907E-11
   5.44000006      -8.72936931E-11
   5.48000002      -7.15219758E-11
   5.51999998      -4.55220098E-11
   5.55999994      -1.20166099E-11
   5.59999990       2.50536657E-11
   5.63999987       6.09948342E-11
   5.67999983       9.09661999E-11
   5.71999979       1.10651106E-10
   5.76000023       1.16897436E-10
   5.80000019       1.08231493E-10
   5.84000015       8.51609477E-11
   5.88000011       5.02085179E-11
   5.92000008       7.65471367E-12
   5.96000004      -3.69894254E-11
   6.00000000      -7.77164375E-11
   6.03999996      -1.08865181E-10
   6.07999992      -1.25951541E-10
   6.11999989      -1.26361657E-10
   6.15999985      -1.09795936E-10
   6.19999981      -7.83846807E-11
   6.23999977      -3.64424740E-11
   6.28000021       1.01175986E-11
   6.32000017       5.46347481E-11
   6.36000013       9.06961034E-11
   6.40000010       1.13128479E-10
   6.44000006       1.18830598E-10
   6.48000002       1.07307475E-10
   6.51999998       8.08087972E-11
   6.55999994       4.40308935E-11
   6.59999990       3.40907380E-12
   6.63999987      -3.39060169E-11
   6.67999983      -6.12390416E-11
   6.71999979      -7.35635858E-11
   6.76000023      -6.84670654E-11
   6.80000019      -4.67371974E-11
   6.84000015      -1.24507514E-11
   6.88000011       2.74831199E-11
   6.92000008       6.42891920E-11
   6.96000004       8.86839491E-11
   7.00000000       9.24376131E-11
   7.03999996       6.99096336E-11
   7.07999992       1.93160384E-11
   7.11999989      -5.64873287E-11
   7.15999985      -1.49862067E-10
   7.19999981      -2.48954996E-10
   7.23999977      -3.38945233E-10
   7.28000021      -4.03838379E-10
   7.32000017      -4.28589081E-10
   7.36000013      -4.01274847E-10
   7.40000010      -3.15023757E-10
   7.44000006      -1.69420589E-10
   7.48000002       2.88233586E-11
   7.51999998       2.66057315E-10
   7.55999994       5.22742849E-10
   7.59999990       7.75262687E-10
   7.63999987       9.98276795E-10
   7.67999983       1.16733878E-09
   7.71999979       1.26145494E-09
   7.76000023       1.26527233E-09
   7.80000019       1.17063892E-09
   7.84000015       9.77361081E-10
   7.88000011       6.93100299E-10
   7.92000008       3.32461170E-10
   7.96000004      -8.45625028E-11
   8.00000000      -5.34541578E-10
   8.03999996      -9.92673499E-10
   8.07999992      -1.43466095E-09
   8.11999989      -1.83815541E-09
   8.15999985      -2.18358953E-09
   8.19999981      -2.45432497E-09
   8.23999977      -2.63615418E-09
   8.27999973      -2.71629941E-09
   8.31999969      -2.68213807E-09
   8.35999966      -2.51993670E-09
   8.39999962      -2.21389262E-09
   8.43999958      -1.74574866E-09
   8.47999954      -1.09520104E-09
   8.52000046      -2.41205972E-10
   8.56000042       8.35776448E-10
   8.60000038       2.15070006E-09
   8.64000034       3.71017150E-09
   8.68000031       5.50824009E-09
   8.72000027       7.52200346E-09
   8.76000023       9.70725100E-09
   8.80000019       1.19943735E-08
   8.84000015       1.42846206E-08
   8.88000011       1.64467462E-08
   8.92000008       1.83138695E-08
   8.96000004       1.96804173E-08
   9.00000000       2.02986641E-08
   9.03999996       1.98745500E-08
   9.07999992       1.80621793E-08
   9.11999989       1.44564902E-08
   9.15999985       8.58340066E-09
   9.19999981      -1.12996307E-10
   9.23999977      -1.22869910E-08
   9.27999973      -2.87120745E-08
   9.31999969      -5.03065749E-08
   9.35999966      -7.81649518E-08
   9.39999962      -1.13595434E-07
   9.43999958      -1.58164596E-07
   9.47999954      -2.13750596E-07
   9.52000046      -2.82605669E-07
   9.56000042      -3.67429152E-07
   9.60000038      -4.71453717E-07
   9.64000034      -5.98545853E-07
   9.68000031      -7.53322297E-07
   9.72000027      -9.41287112E-07
   9.76000023      -1.16898809E-06
   9.80000019      -1.44419903E-06
   9.84000015      -1.77612867E-06
   9.88000011      -2.17565798E-06
   9.92000008      -2.65561243E-06
   9.96000004      -3.23106792E-06
   10.0000000      -3.91969888E-06
   10.0400000      -4.74216313E-06
   10.0799999      -5.72253794E-06
   10.1199999      -6.88879800E-06
   10.1599998      -8.27335134E-06
   10.1999998      -9.91362504E-06
   10.2399998      -1.18527032E-05
   10.2799997      -1.41400278E-05
   10.3199997      -1.68321640E-05
   10.3599997      -1.99936021E-05
   10.3999996      -2.36976412E-05
   10.4399996      -2.80273107E-05
   10.4799995      -3.30763360E-05
   10.5200005      -3.89501511E-05
   10.5600004      -4.57669412E-05
   10.6000004      -5.36586740E-05
   10.6400003      -6.27721893E-05
   10.6800003      -7.32701883E-05
   10.7200003      -8.53322636E-05
   10.7600002      -9.91557899E-05
   10.8000002      -1.14956740E-04
   10.8400002      -1.32970410E-04
   10.8800001      -1.53451925E-04
   10.9200001      -1.76676549E-04
   10.9600000      -2.02939758E-04
   11.0000000      -2.32556995E-04
   11.0400000      -2.65863055E-04
   11.0799999      -3.03211156E-04
   11.1199999      -3.44971602E-04
   11.1599998      -3.91529495E-04
   11.1999998      -4.43282595E-04
   11.2399998      -5.00638096E-04
   11.2799997      -5.64008893E-04
   11.3199997      -6.33808959E-04
   11.3599997      -7.10448599E-04
   11.3999996      -7.94328167E-04
   11.4399996      -8.85831658E-04
   11.4799995      -9.85319377E-04
   11.5200005      -1.09311973E-03
   11.5600004      -1.20952062E-03
   11.6000004      -1.33475964E-03
   11.6400003      -1.46901479E-03
   11.6800003      -1.61239353E-03
   11.7200003      -1.76492217E-03
   11.7600002      -1.92653423E-03
   11.8000002      -2.09705997E-03
   11.8400002      -2.27621500E-03
   11.8800001      -2.46358942E-03
   11.9200001      -2.65863724E-03
   11.9600000      -2.86066718E-03
   12.0000000      -3.06883361E-03
   12.0400000      -3.28212837E-03
   12.0799999      -3.49937659E-03
   12.1199999      -3.71923042E-03
   12.1599998      -3.94016737E-03
   12.1999998      -4.16049035E-03
   12.2399998      -4.37833089E-03
   12.2799997      -4.59165126E-03
   12.3199997      -4.79825633E-03
   12.3599997      -4.99580242E-03
   12.3999996      -5.18180942E-03
   12.4399996      -5.35368314E-03
   12.4799995      -5.50873205E-03
   12.5200005      -5.64419059E-03
   12.5600004      -5.75724896E-03
   12.6000004      -5.84508153E-03
   12.6400003      -5.90487942E-03
   12.6800003      -5.93388546E-03
   12.7200003      -5.92943188E-03
   12.7600002      -5.88897895E-03
   12.8000002      -5.81015600E-03
   12.8400002      -5.69080049E-03
   12.8800001      -5.52900136E-03
   12.9200001      -5.32313809E-03
   12.9600000      -5.07191988E-03
   13.0000000      -4.77442425E-03
   13.0400000      -4.43012873E-03
   13.0799999      -4.03894670E-03
   13.1199999      -3.60125164E-03
   13.1599998      -3.11790081E-03
   13.1999998      -2.59025279E-03
   13.2399998      -2.02017836E-03
   13.2799997      -1.41006662E-03
   13.3199997      -7.62822456E-04
   13.3599997      -8.18588451E-05
   13.3999996       6.28920156E-04
   13.4399996       1.36514218E-03
   13.4799995       2.12199753E-03
   13.5200005       2.89427745E-03
   13.5600004       3.67641938E-03
   13.6000004       4.46255784E-03
   13.6400003       5.24658244E-03
   13.6800003       6.02220278E-03
   13.7200003       6.78301230E-03
   13.7600002       7.52256438E-03
   13.8000002       8.23444501E-03
   13.8400002       8.91234726E-03
   13.8800001       9.55015048E-03
   13.9200001       1.01419957E-02
   13.9600000       1.06823612E-02
   14.0000000       1.11661330E-02
   14.0400000       1.15886703E-02
   14.0799999       1.19458744E-02
   14.1199999       1.22342370E-02
   14.1599998       1.24508943E-02
   14.1999998       1.25936670E-02
   14.2399998       1.26610920E-02
   14.2799997       1.26524456E-02
   14.3199997       1.25677539E-02
   14.3599997       1.24077983E-02
   14.3999996       1.21741081E-02
   14.4399996       1.18689407E-02
   14.4799995       1.14952587E-02
   14.5200005       1.10566858E-02
   14.5600004       1.05574680E-02
   14.6000004       1.00024128E-02
   14.6400003       9.39683430E-03
   14.6800003       8.74648057E-03
   14.7200003       8.05745926E-03
   14.7600002       7.33616343E-03
   14.8000002       6.58919057E-03
   14.8400002       5.82325645E-03
   14.8800001       5.04511595E-03
   14.9200001       4.26147925E-03
   14.9600000       3.47893476E-03
   15.0000000       2.70386878E-03
   15.0400000       1.94239663E-03
   15.0799999       1.20029529E-03
   15.1199999       4.82943055E-04
   15.1599998      -2.04732991E-04
   15.1999998      -8.58301762E-04
   15.2399998      -1.47386466E-03
   15.2799997      -2.04808405E-03
   15.3199997      -2.57820217E-03
   15.3599997      -3.06205079E-03
   15.3999996      -3.49805364E-03
   15.4399996      -3.88521934E-03
   15.4799995      -4.22312645E-03
   15.5200005      -4.51190025E-03
   15.5600004      -4.75218520E-03
   15.6000004      -4.94510867E-03
   15.6400003      -5.09224227E-03
   15.6800003      -5.19555435E-03
   15.7200003      -5.25736343E-03
   15.7600002      -5.28028747E-03
   15.8000002      -5.26719028E-03
   15.8400002      -5.22112986E-03
   15.8800001      -5.14530577E-03
   15.9200001      -5.04300464E-03
   15.9600000      -4.91755502E-03
   16.0000000      -4.77227569E-03
   16.0400009      -4.61043650E-03
   16.0799999      -4.43521375E-03
   16.1200008      -4.24965750E-03
   16.1599998      -4.05665766E-03
   16.2000008      -3.85892042E-03
   16.2399998      -3.65894404E-03
   16.2800007      -3.45900236E-03
   16.3199997      -3.26113193E-03
   16.3600006      -3.06712650E-03
   16.3999996      -2.87853088E-03
   16.4400005      -2.69664405E-03
   16.4799995      -2.52252282E-03
   16.5200005      -2.35699071E-03
   16.5599995      -2.20064889E-03
   16.6000004      -2.05388945E-03
   16.6399994      -1.91691180E-03
   16.6800003      -1.78974029E-03
   16.7199993      -1.67224219E-03
   16.7600002      -1.56414835E-03
   16.7999992      -1.46507204E-03
   16.8400002      -1.37452898E-03
   16.8799992      -1.29195687E-03
   16.9200001      -1.21673348E-03
   16.9599991      -1.14819489E-03
   17.0000000      -1.08565169E-03
   17.0400009      -1.02840376E-03
   17.0799999      -9.75754869E-04
   17.1200008      -9.27023764E-04
   17.1599998      -8.81555490E-04
   17.2000008      -8.38729960E-04
   17.2399998      -7.97969697E-04
   17.2800007      -7.58745708E-04
   17.3199997      -7.20581796E-04
   17.3600006      -6.83057937E-04
   17.3999996      -6.45812310E-04
   17.4400005      -6.08542003E-04
   17.4799995      -5.71002951E-04
   17.5200005      -5.33009239E-04
   17.5599995      -4.94431122E-04
   17.6000004      -4.55192989E-04
   17.6399994      -4.15270682E-04
   17.6800003      -3.74688301E-04
   17.7199993      -3.33514850E-04
   17.7600002      -2.91860662E-04
   17.7999992      -2.49873527E-04
   17.8400002      -2.07734804E-04
   17.8799992      -1.65655350E-04
   17.9200001      -1.23871578E-04
   17.9599991      -8.26412215E-05
   18.0000000      -4.22393859E-05
   18.0400009      -2.95428958E-06
   18.0799999       3.49168040E-05
   18.1200008       7.10717868E-05
   18.1599998       1.05207931E-04
   18.2000008       1.37026233E-04
   18.2399998       1.66235768E-04
   18.2800007       1.92558276E-04
   18.3199997       2.15732798E-04
   18.3600006       2.35520449E-04
   18.3999996       2.51709251E-04
   18.4400005       2.64118920E-04
   18.4799995       2.72605801E-04
   18.5200005       2.77067185E-04
   18.5599995       2.77445884E-04
   18.6000004       2.73733865E-04
   18.6399994       2.65975570E-04
   18.6800003       2.54270330E-04
   18.7199993       2.38774111E-04
   18.7600002       2.19700043E-04
   18.7999992       1.97318019E-04
   18.8400002       1.71953172E-04
   18.8799992       1.43983052E-04
   18.9200001       1.13833710E-04
   18.9599991       8.19745765E-05
   19.0000000       4.89122067E-05
   19.0400009       1.51829272E-05
   19.0799999      -1.86555590E-05
   19.1200008      -5.20333888E-05
   19.1599998      -8.43785747E-05
   19.2000008      -1.15127688E-04
   19.2399998      -1.43736921E-04
   19.2800007      -1.69693507E-04
   19.3199997      -1.92527048E-04
   19.3600006      -2.11820719E-04
   19.3999996      -2.27221710E-04
   19.4400005      -2.38451219E-04
   19.4799995      -2.45312985E-04
   19.5200005      -2.47700547E-04
   19.5599995      -2.45602714E-04
   19.6000004      -2.39107219E-04
   19.6399994      -2.28402030E-04
   19.6800003      -2.13774314E-04
   19.7199993      -1.95607005E-04
   19.7600002      -1.74372777E-04
   19.7999992      -1.50625638E-04
   19.8400002      -1.24990082E-04
   19.8799992      -9.81480916E-05
   19.9200001      -7.08240550E-05
   19.9599991      -4.37681992E-05
   20.0000000      -1.77385846E-05
   20.0400009       6.51767687E-06
   20.0799999       2.82837464E-05
   20.1200008       4.68923317E-05
   20.1599998       6.17444457E-05
   20.2000008       7.23272460E-05
   20.2399998       7.82303323E-05
   20.2800007       7.91602433E-05
   20.3199997       7.49524697E-05
   20.3600006       6.55807817E-05
   20.3999996       5.11634717E-05
   20.4400005       3.19661340E-05
   20.4799995       8.40094435E-06
   20.5200005      -1.89778639E-05
   20.5599995      -4.94823180E-05
   20.6000004      -8.23026567E-05
   20.6399994      -1.16523086E-04
   20.6800003      -1.51140586E-04
   20.7199993      -1.85086945E-04
   20.7600002      -2.17253299E-04
   20.7999992      -2.46516633E-04
   20.8400002      -2.71767814E-04
   20.8799992      -2.91940523E-04
   20.9200001      -3.06040165E-04
   20.9599991      -3.13172175E-04
   21.0000000      -3.12569318E-04
   21.0400009      -3.03616689E-04
   21.0799999      -2.85874237E-04
   21.1200008      -2.59095919E-04
   21.1599998      -2.23245210E-04
   21.2000008      -1.78505841E-04
   21.2399998      -1.25288439E-04
   21.2800007      -6.42317318E-05
   21.3199997       3.80134179E-06
   21.3600006       7.77326277E-05
   21.3999996       1.56283277E-04
   21.4400005       2.37993008E-04
   21.4799995       3.21244472E-04
   21.5200005       4.04291699E-04
   21.5599995       4.85292898E-04
   21.6000004       5.62346191E-04
   21.6399994       6.33528223E-04
   21.6800003       6.96934643E-04
   21.7199993       7.50721607E-04
   21.7600002       7.93147716E-04
   21.7999992       8.22615228E-04
   21.8400002       8.37709638E-04
   21.8799992       8.37237108E-04
   21.9200001       8.20258632E-04
   21.9599991       7.86119490E-04
   22.0000000       7.34475441E-04
   22.0400009       6.65311760E-04
   22.0799999       5.78957202E-04
   22.1200008       4.76091838E-04
   22.1599998       3.57747223E-04
   22.2000008       2.25300231E-04
   22.2399998       8.04598239E-05
   22.2800007      -7.47535014E-05
   22.3199997      -2.38034540E-04
   22.3600006      -4.06827050E-04
   22.3999996      -5.78363193E-04
   22.4400005      -7.49708444E-04
   22.4799995      -9.17811412E-04
   22.5200005      -1.07955723E-03
   22.5599995      -1.23182475E-03
   22.6000004      -1.37154525E-03
   22.6399994      -1.49576261E-03
   22.6800003      -1.60169450E-03
   22.7199993      -1.68679073E-03
   22.7600002      -1.74879178E-03
   22.7999992      -1.78578286E-03
   22.8400002      -1.79624499E-03
   22.8799992      -1.77910051E-03
   22.9200001      -1.73375267E-03
   22.9599991      -1.66011881E-03
   23.0000000      -1.55865622E-03
   23.0400009      -1.43037899E-03
   23.0799999      -1.27686746E-03
   23.1200008      -1.10026856E-03
   23.1599998      -9.03285982E-04
   23.2000008      -6.89162116E-04
   23.2399998      -4.61651100E-04
   23.2800007      -2.24981704E-04
   23.3199997       1.61878670E-05
   23.3600006       2.56823027E-04
   23.3999996       4.91573999E-04
   23.4400005       7.14843802E-04
   23.4799995       9.20862018E-04
   23.5200005       1.10376428E-03
   23.5599995       1.25767535E-03
   23.6000004       1.37679547E-03
   23.6399994       1.45548850E-03
   23.6800003       1.48837187E-03
   23.7199993       1.47040398E-03
   23.7600002       1.39697164E-03
   23.7999992       1.26397435E-03
   23.8400002       1.06790289E-03
   23.8799992       8.05914693E-04
   23.9200001       4.75901325E-04
   23.9599991       7.65485893E-05
   24.0000000      -3.92611633E-04
   24.0400009      -9.31157963E-04
   24.0799999      -1.53774966E-03
   24.1200008      -2.21010298E-03
   24.1599998      -2.94498354E-03
   24.2000008      -3.73820658E-03
   24.2399998      -4.58465377E-03
   24.2800007      -5.47829643E-03
   24.3199997      -6.41223555E-03
   24.3600006      -7.37875327E-03
   24.3999996      -8.36937223E-03
   24.4400005      -9.37493145E-03
   24.4799995      -1.03856679E-02
   24.5200005      -1.13913100E-02
   24.5599995      -1.23811793E-02
   24.6000004      -1.33442972E-02
   24.6399994      -1.42695075E-02
   24.6800003      -1.51455905E-02
   24.7199993      -1.59613919E-02
   24.7600002      -1.67059414E-02
   24.7999992      -1.73685960E-02
   24.8400002      -1.79391522E-02
   24.8799992      -1.84079688E-02
   24.9200001      -1.87661070E-02
   24.9599991      -1.90054160E-02
   25.0000000      -1.91186648E-02
   25.0400009      -1.90996248E-02
   25.0799999      -1.89431645E-02
   25.1200008      -1.86453238E-02
   25.1599998      -1.82033852E-02
   25.2000008      -1.76159199E-02
   25.2399998      -1.68828275E-02
   25.2800007      -1.60053615E-02
   25.3199997      -1.49861379E-02
   25.3600006      -1.38291270E-02
   25.3999996      -1.25396308E-02
   25.4400005      -1.11242523E-02
   25.4799995      -9.59083438E-03
   25.5200005      -7.94840325E-03
   25.5599995      -6.20708475E-03
   25.6000004      -4.37801518E-03
   25.6399994      -2.47323513E-03
   25.6800003      -5.05579985E-04
   25.7199993       1.51144527E-03
   25.7600002       3.56379454E-03
   25.7999992       5.63701568E-03
   25.8400002       7.71639170E-03
   25.8799992       9.78708360E-03
   25.9200001       1.18342703E-02
   25.9599991       1.38432970E-02
   26.0000000       1.57998130E-02
   26.0400009       1.76899098E-02
   26.0799999       1.95002444E-02
   26.1200008       2.12181769E-02
   26.1599998       2.28318702E-02
   26.2000008       2.43304111E-02
   26.2399998       2.57038865E-02
   26.2800007       2.69434825E-02
   26.3199997       2.80415509E-02
   26.3600006       2.89916601E-02
   26.3999996       2.97886468E-02
   26.4400005       3.04286331E-02
   26.4799995       3.09090558E-02
   26.5200005       3.12286578E-02
   26.5599995       3.13874781E-02
   26.6000004       3.13868299E-02
   26.6399994       3.12292576E-02
   26.6800003       3.09184864E-02
   26.7199993       3.04593649E-02
   26.7600002       2.98577864E-02
   26.7999992       2.91206241E-02
   26.8400002       2.82556191E-02
   26.8799992       2.72713061E-02
   26.9200001       2.61769053E-02
   26.9599991       2.49822233E-02
   27.0000000       2.36975364E-02
   27.0400009       2.23334972E-02
   27.0799999       2.09010076E-02
   27.1200008       1.94111373E-02
   27.1599998       1.78749952E-02
   27.2000008       1.63036361E-02
   27.2399998       1.47079779E-02
   27.2800007       1.30986841E-02
   27.3199997       1.14861028E-02
   27.3600006       9.88017768E-03
   27.3999996       8.29037465E-03
   27.4400005       6.72562420E-03
   27.4799995       5.19426633E-03
   27.5200005       3.70400073E-03
   27.5599995       2.26184842E-03
   27.6000004       8.74124700E-04
   27.6399994      -4.53583460E-04
   27.6800003      -1.71643053E-03
   27.7199993      -2.91032065E-03
   27.7600002      -4.03190218E-03
   27.7999992      -5.07855928E-03
   27.8400002      -6.04839530E-03
   27.8799992      -6.94021024E-03
   27.9200001      -7.75347091E-03
   27.9599991      -8.48827790E-03
   28.0000000      -9.14532505E-03
   28.0400009      -9.72586125E-03
   28.0799999      -1.02316383E-02
   28.1200008      -1.06648672E-02
   28.1599998      -1.10281678E-02
   28.2000008      -1.13245118E-02
   28.2399998      -1.15571786E-02
   28.2800007      -1.17296958E-02
   28.3199997      -1.18457908E-02
   28.3600006      -1.19093396E-02
   28.3999996      -1.19243143E-02
   28.4400005      -1.18947364E-02
   28.4799995      -1.18246321E-02
   28.5200005      -1.17179872E-02
   28.5599995      -1.15787117E-02
   28.6000004      -1.14105949E-02
   28.6399994      -1.12172812E-02
   28.6800003      -1.10022398E-02
   28.7199993      -1.07687367E-02
   28.7600002      -1.05198184E-02
   28.7999992      -1.02582937E-02
   28.8400002      -9.98672377E-03
   28.8799992      -9.70741455E-03
   28.9200001      -9.42240842E-03
   28.9599991      -9.13349353E-03
   29.0000000      -8.84219632E-03
   29.0400009      -8.54979735E-03
   29.0799999      -8.25733505E-03
   29.1200008      -7.96562713E-03
   29.1599998      -7.67527660E-03
   29.2000008      -7.38669606E-03
   29.2399998      -7.10012624E-03
   29.2800007      -6.81565562E-03
   29.3199997      -6.53324742E-03
   29.3600006      -6.25275681E-03
   29.3999996      -5.97395934E-03
   29.4400005      -5.69657423E-03
   29.4799995      -5.42028481E-03