  -4.80000019       0.00000000
  -4.76000023       0.00000000
  -4.71999979       0.00000000
  -4.67999983       0.00000000
  -4.63999987       0.00000000
  -4.59999990       0.00000000
  -4.55999994       0.00000000
  -4.51999998       0.00000000
  -4.48000002       0.00000000
  -4.44000006       0.00000000
  -4.40000010       0.00000000
  -4.36000013       0.00000000
  -4.32000017       7.98740125E-44
  -4.28000021       2.35418142E-42
  -4.23999977       3.55061005E-41
  -4.19999981       3.70461275E-40
  -4.15999985       2.98319487E-39
  -4.11999989       1.96898353E-38
  -4.07999992       1.10604959E-37
  -4.03999996       5.42633840E-37
  -4.00000000       2.36940836E-36
  -3.96000004       9.34166021E-36
  -3.92000008       3.36332438E-35
  -3.88000011       1.11587532E-34
  -3.83999991       3.43700681E-34
  -3.79999995       9.88818226E-34
  -3.75999999       2.67073051E-33
  -3.72000003       6.80085048E-33
  -3.68000007       1.63852760E-32
  -3.64000010       3.74610066E-32
  -3.59999990       8.14683942E-32
  -3.55999994       1.68858929E-31
  -3.51999998       3.34063293E-31
  -3.48000002       6.31470910E-31
  -3.44000006       1.14115318E-30
  -3.40000010       1.97160082E-30
  -3.35999990       3.25479753E-30
  -3.31999993       5.12687554E-30
  -3.27999997       7.68617049E-30
  -3.24000001       1.09210241E-29
  -3.20000005       1.46038408E-29
  -3.16000009       1.81574855E-29
  -3.11999989       2.05161373E-29
  -3.07999992       2.00247558E-29
  -3.03999996       1.44459130E-29
  -3.00000000       1.16343641E-30
  -2.96000004      -2.23217222E-29
  -2.92000008      -5.75292788E-29
  -2.88000011      -1.03758368E-28
  -2.83999991      -1.56564635E-28
  -2.79999995      -2.06210619E-28
  -2.75999999      -2.36535156E-28
  -2.72000003      -2.24878369E-28
  -2.68000007      -1.43838427E-28
  -2.64000010       3.43460687E-29
  -2.59999990       3.30181333E-28
  -2.55999994       7.45949164E-28
  -2.51999998       1.25212429E-27
  -2.48000002       1.77321275E-27
  -2.44000006       2.17673263E-27
  -2.40000010       2.27096800E-27
  -2.35999990       1.81881396E-27
  -2.31999993       5.75747753E-28
  -2.27999997      -1.64144236E-27
  -2.24000001      -4.85345093E-27
  -2.20000005      -8.79281005E-27
  -2.16000009      -1.27769852E-26
  -2.11999989      -1.56227708E-26
  -2.07999992      -1.56641922E-26
  -2.03999996      -1.09483509E-26
  -2.00000000       3.22434762E-28
  -1.96000004       1.90713133E-26
  -1.91999996       4.43984045E-26
  -1.88000000       7.25734345E-26
  -1.84000003       9.62906917E-26
  -1.79999995       1.04649536E-25
  -1.75999999       8.43945706E-26
  -1.72000003       2.28694428E-26
  -1.67999995      -8.71722978E-26
  -1.63999999      -2.41339594E-25
  -1.60000002      -4.17226955E-25
  -1.55999994      -5.70077679E-25
  -1.51999998      -6.33412018E-25
  -1.48000002      -5.27687154E-25
  -1.44000006      -1.79171512E-25
  -1.39999998       4.51045274E-25
  -1.36000001       1.33165903E-24
  -1.32000005       2.32776662E-24
  -1.27999997       3.18238953E-24
  -1.24000001       3.52847662E-24
  -1.20000005       2.94571154E-24
  -1.15999997       1.06938546E-24
  -1.12000000      -2.25518826E-24
  -1.08000004      -6.79881586E-24
  -1.03999996      -1.18030102E-23
  -1.00000000      -1.59285264E-23
 -0.959999979      -1.73683206E-23
 -0.920000017      -1.41788928E-23
 -0.879999995      -4.83986479E-24
 -0.839999974       1.10200366E-23
 -0.800000012       3.18820312E-23
 -0.759999990       5.38193411E-23
 -0.720000029       7.04927872E-23
 -0.680000007       7.39330159E-23
 -0.639999986       5.62646269E-23
 -0.600000024       1.22963512E-23
 -0.560000002      -5.74240631E-23
 -0.519999981      -1.43850818E-22
 -0.479999989      -2.28029345E-22
 -0.439999998      -2.82178853E-22
 -0.400000006      -2.74177910E-22
 -0.360000014      -1.75711547E-22
 -0.319999993       2.67205995E-23
 -0.280000001       3.20057984E-22
 -0.239999995       6.55607026E-22
 -0.200000003       9.46874818E-22
 -0.159999996       1.07840613E-21
 -0.119999997       9.28212263E-22
  -7.99999982E-02   4.03321256E-22
  -3.99999991E-02  -5.16388046E-22
   2.77555756E-16  -1.73584437E-21
   3.99999991E-02  -3.01791576E-21
   7.99999982E-02  -3.98783410E-21
  0.119999997      -4.18252770E-21
  0.159999996      -3.15104357E-21
  0.200000003      -5.99482589E-22
  0.239999995       3.44277377E-21
  0.280000001       8.47597433E-21
  0.319999993       1.34553310E-20
  0.360000014       1.68447464E-20
  0.400000006       1.68421469E-20
  0.439999998       1.17883795E-20
  0.479999989       7.22955805E-22
  0.519999981      -1.60092940E-20
  0.560000002      -3.62539724E-20
  0.600000024      -5.58363586E-20
  0.639999986      -6.88346942E-20
  0.680000007      -6.84723244E-20
  0.720000029      -4.86467503E-20
  0.759999990      -5.94154585E-21
  0.800000012       5.82329400E-20
  0.839999974       1.35909316E-19
  0.879999995       2.11894179E-19
  0.920000017       2.64789923E-19
  0.959999979       2.70134544E-19
   1.00000000       2.05686214E-19
   1.03999996       5.83132347E-20
   1.08000004      -1.68698213E-19
   1.12000000      -4.49689606E-19
   1.15999997      -7.34143680E-19
   1.20000005      -9.49698676E-19
   1.24000001      -1.01204948E-18
   1.27999997      -8.41868652E-19
   1.32000005      -3.87117993E-19
   1.36000001       3.52881427E-19
   1.39999998       1.30707275E-18
   1.44000006       2.32253477E-18
   1.48000002       3.17100556E-18
   1.51999998       3.57665121E-18
   1.55999994       3.26605296E-18
   1.60000002       2.03624239E-18
   1.63999999      -1.69316879E-19
   1.67999995      -3.19246656E-18
   1.72000003      -6.61910629E-18
   1.75999999      -9.78451019E-18
   1.79999995      -1.18403642E-17
   1.84000003      -1.18891480E-17
   1.88000000      -9.17748783E-18
   1.91999996      -3.32328910E-18
   1.96000004       5.46481214E-18
   2.00000000       1.62292241E-17
   2.03999996       2.72233577E-17
   2.07999992       3.60381980E-17
   2.11999989       3.99214867E-17
   2.16000009       3.62801714E-17
   2.20000005       2.33123617E-17
   2.24000001       6.69197594E-19
   2.27999997      -2.99907434E-17
   2.31999993      -6.47104717E-17
   2.35999990      -9.73527127E-17
   2.40000010      -1.20227459E-16
   2.44000006      -1.25248790E-16
   2.48000002      -1.05532378E-16
   2.51999998      -5.72247187E-17
   2.55999994       1.87551392E-17
   2.59999990       1.15453595E-16
   2.64000010       2.19503440E-16
   2.68000007       3.11959693E-16
   2.72000003       3.70523101E-16
   2.75999999       3.73084794E-16
   2.79999995       3.02237502E-16
   2.83999991       1.50106083E-16
   2.88000011      -7.73864521E-17
   2.92000008      -3.57821339E-16
   2.96000004      -6.52105996E-16
   3.00000000      -9.07513217E-16
   3.03999996      -1.06417831E-15
   3.07999992      -1.06467870E-15
   3.11999989      -8.65630456E-16
   3.16000009      -4.49582960E-16
   3.20000005       1.64980406E-16
   3.24000001       9.17888206E-16
   3.27999997       1.70788333E-15
   3.31999993       2.40098710E-15
   3.35999990       2.84690590E-15
   3.40000010       2.90233404E-15
   3.44000006       2.45848010E-15
   3.48000002       1.46878107E-15
   3.51999998      -2.81545678E-17
   3.55999994      -1.89553438E-15
   3.59999990      -3.89978712E-15
   3.64000010      -5.72924869E-15
   3.68000007      -7.03052678E-15
   3.72000003      -7.45993267E-15
   3.75999999      -6.74419788E-15
   3.79999995      -4.74196403E-15
   3.83999991      -1.49569374E-15
   3.88000011       2.73668934E-15
   3.92000008       7.47973799E-15
   3.96000004       1.20740887E-14
   4.00000000       1.57469862E-14
   4.03999996       1.77150639E-14
   4.07999992       1.73085999E-14
   4.11999989       1.41009649E-14
   4.15999985       8.02333748E-15
   4.19999981      -5.56375603E-16
   4.23999977      -1.08092814E-14
   4.28000021      -2.14892902E-14
   4.32000017      -3.10497545E-14
   4.36000013      -3.78271362E-14
   4.40000010      -4.02743770E-14
   4.44000006      -3.72162899E-14
   4.48000002      -2.80913530E-14
   4.51999998      -1.31409538E-14
   4.55999994       6.49091300E-15
   4.59999990       2.87765383E-14
   4.63999987       5.09575157E-14
   4.67999983       6.98294978E-14
   4.71999979       8.21366223E-14
   4.76000023       8.50335427E-14
   4.80000019       7.65577312E-14
   4.84000015       5.60444025E-14
   4.88000011       2.44161025E-14
   4.92000008      -1.57126594E-14
   4.96000004      -6.01560292E-14
   5.00000000      -1.03516201E-13
   5.03999996      -1.39762157E-13
   5.07999992      -1.62974682E-13
   5.11999989      -1.68173581E-13
   5.15999985      -1.52121425E-13
   5.19999981      -1.13987988E-13
   5.23999977      -5.57657355E-14
   5.28000021       1.76506775E-14
   5.32000017       9.87708857E-14
   5.36000013       1.78201759E-13
   5.40000010       2.45673138E-13
   5.44000006       2.91289779E-13
   5.48000002       3.06860738E-13
   5.51999998       2.87130779E-13
   5.55999994       2.30736925E-13
   5.59999990       1.40734375E-13
   5.63999987       2.45847671E-14
   5.67999983      -1.06433993E-13
   5.71999979      -2.38357809E-13
   5.76000023      -3.56088477E-13
   5.80000019      -4.45181625E-13
   5.84000015      -4.93639363E-13
   5.88000011      -4.93462259E-13
   5.92000008      -4.41739879E-13
   5.96000004      -3.41115482E-13
   6.00000000      -1.99549348E-13
   6.03999996      -2.94082080E-14
   6.07999992       1.53987432E-13
   6.11999989       3.34139319E-13
   6.15999985       4.95198067E-13
   6.19999981       6.23559472E-13
   6.23999977       7.08990050E-13
   6.28000021       7.45130899E-13
   6.32000017       7.29346434E-13
   6.36000013       6.62024797E-13
   6.40000010       5.45553240E-13
   6.44000006       3.83282083E-13
   6.48000002       1.78815025E-13
   6.51999998      -6.40838158E-14
   6.55999994      -3.40794558E-13
   6.59999990      -6.44368727E-13
   6.63999987      -9.63502932E-13
   6.67999983      -1.28039495E-12
   6.71999979      -1.56907722E-12
   6.76000023      -1.79489713E-12
   6.80000019      -1.91576052E-12
   6.84000015      -1.88556419E-12
   6.88000011      -1.65992318E-12
   6.92000008      -1.20387316E-12
   6.96000004      -5.00769131E-13
   7.00000000       4.38842268E-13
   7.03999996       1.56991423E-12
   7.07999992       2.80882652E-12
   7.11999989       4.03409901E-12
   7.15999985       5.09302800E-12
   7.19999981       5.81471460E-12
   7.23999977       6.02904662E-12
   7.28000021       5.59018760E-12
   7.32000017       4.40212406E-12
   7.36000013       2.44301714E-12
   7.40000010      -2.15399584E-13
   7.44000006      -3.39715322E-12
   7.48000002      -6.82334744E-12
   7.51999998      -1.01276227E-11
   7.55999994      -1.28863318E-11
   7.59999990      -1.46620806E-11
   7.63999987      -1.50571344E-11
   7.67999983      -1.37713061E-11
   7.71999979      -1.06574090E-11
   7.76000023      -5.76648104E-12
   7.80000019       6.24790475E-13
   7.84000015       8.01095822E-12
   7.88000011       1.56832568E-11
   7.92000008       2.27847324E-11
   7.96000004       2.83925331E-11
   8.00000000       3.16208691E-11
   8.03999996       3.17345351E-11
   8.07999992       2.82602344E-11
   8.11999989       2.10812427E-11
   8.15999985       1.05013663E-11
   8.19999981      -2.73397754E-12
   8.23999977      -1.74677460E-11
   8.27999973      -3.22152062E-11
   8.31999969      -4.52981715E-11
   8.35999966      -5.50192149E-11
   8.39999962      -5.98592703E-11
   8.43999958      -5.86772089E-11
   8.47999954      -5.08873638E-11
   8.52000046      -3.65908935E-11
   8.56000042      -1.66402777E-11
   8.60000038       7.37799925E-12
   8.64000034       3.32488620E-11
   8.68000031       5.83182669E-11
   8.72000027       7.97525934E-11
   8.76000023       9.48435011E-11
   8.80000019       1.01326246E-10
   8.84000015       9.76751041E-11
   8.88000011       8.33392383E-11
   8.92000008       5.88866109E-11
   8.96000004       2.60319561E-11
   9.00000000      -1.24630263E-11
   9.03999996      -5.30147211E-11
   9.07999992      -9.15503923E-11
   9.11999989      -1.23917390E-10
   9.15999985      -1.46326284E-10
   9.19999981      -1.55779695E-10
   9.23999977      -1.50436941E-10
   9.27999973      -1.29870351E-10
   9.31999969      -9.51795517E-11
   9.35999966      -4.89451743E-11
   9.39999962       4.97856097E-12
   9.43999958       6.18140261E-11
   9.47999954       1.16317990E-10
   9.52000046       1.63298333E-10
   9.56000042       1.98133329E-10
   9.60000038       2.17236146E-10
   9.64000034       2.18412677E-10
   9.68000031       2.01073450E-10
   9.72000027       1.66277284E-10
   9.76000023       1.16604296E-10
   9.80000019       5.58761058E-11
   9.84000015      -1.12407245E-11
   9.88000011      -7.96987268E-11
   9.92000008      -1.44544529E-10
   9.96000004      -2.01348702E-10
   10.0000000      -2.46541731E-10
   10.0400000      -2.77621481E-10
   10.0799999      -2.93215618E-10
   10.1199999      -2.93003510E-10
   10.1599998      -2.77521339E-10
   10.1999998      -2.47890208E-10
   10.2399998      -2.05518755E-10
   10.2799997      -1.51833379E-10
   10.3199997      -8.80860176E-11
   10.3599997      -1.52761883E-11
   10.3999996       6.57931348E-11
   10.4399996       1.54328300E-10
   10.4799995       2.49250648E-10
   10.5200005       3.48839818E-10
   10.5600004       4.50372989E-10
   10.6000004       5.49826573E-10
   10.6400003       6.41704745E-10
   10.6800003       7.19049376E-10
   10.7200003       7.73666464E-10
   10.7600002       7.96583299E-10
   10.8000002       7.78718479E-10
   10.8400002       7.11726400E-10
   10.8800001       5.88948834E-10
   10.9200001       4.06393058E-10
   10.9600000       1.63645986E-10
   11.0000000      -1.35365386E-10
   11.0400000      -4.81846341E-10
   11.0799999      -8.61900662E-10
   11.1199999      -1.25662825E-09
   11.1599998      -1.64256309E-09
   11.1999998      -1.99243577E-09
   11.2399998      -2.27621810E-09
   11.2799997      -2.46239273E-09
   11.3199997      -2.51937271E-09
   11.3599997      -2.41700060E-09
   11.3999996      -2.12805573E-09
   11.4399996      -1.62970781E-09
   11.4799995      -9.04877062E-10
   11.5200005       5.65275014E-11
   11.5600004       1.25649591E-09
   11.6000004       2.68791744E-09
   11.6400003       4.33366898E-09
   11.6800003       6.16573947E-09
   11.7200003       8.14434831E-09
   11.7600002       1.02169908E-08
   11.8000002       1.23173329E-08
   11.8400002       1.43638790E-08
   11.8800001       1.62583405E-08
   11.9200001       1.78835684E-08
   11.9600000       1.91009573E-08
   12.0000000       1.97471408E-08
   12.0400000       1.96298426E-08
   12.0799999       1.85226394E-08
   12.1199999       1.61584151E-08
   12.1599998       1.22211832E-08
   12.1999998       6.33597441E-09
   12.2399998      -1.94360616E-09
   12.2799997      -1.31506441E-08
   12.3199997      -2.79234733E-08
   12.3599997      -4.70281663E-08
   12.3999996      -7.13856281E-08
   12.4399996      -1.02103996E-07
   12.4799995      -1.40517372E-07
   12.5200005      -1.88231624E-07
   12.5600004      -2.47178576E-07
   12.6000004      -3.19679629E-07
   12.6400003      -4.08520265E-07
   12.6800003      -5.17036824E-07
   12.7200003      -6.49217043E-07
   12.7600002      -8.09815958E-07
   12.8000002      -1.00448938E-06
   12.8400002      -1.23994619E-06
   12.8800001      -1.52412258E-06
   12.9200001      -1.86637760E-06
   12.9600000      -2.27771648E-06
   13.0000000      -2.77103982E-06
   13.0400000      -3.36142261E-06
   13.0799999      -4.06642766E-06
   13.1199999      -4.90644834E-06
   13.1599998      -5.90509217E-06
   13.1999998      -7.08959897E-06
   13.2399998      -8.49130174E-06
   13.2799997      -1.01461201E-05
   13.3199997      -1.20951045E-05
   13.3599997      -1.43850039E-05
   13.3999996      -1.70688927E-05
   13.4399996      -2.02068077E-05
   13.4799995      -2.38664397E-05
   13.5200005      -2.81238299E-05
   13.5600004      -3.30640796E-05
   13.6000004      -3.87820983E-05
   13.6400003      -4.53833018E-05
   13.6800003      -5.29843164E-05
   13.7200003      -6.17136538E-05
   13.7600002      -7.17122966E-05
   13.8000002      -8.31342259E-05
   13.8400002      -9.61468977E-05
   13.8800001      -1.10931447E-04
   13.9200001      -1.27682899E-04
   13.9600000      -1.46610124E-04
   14.0000000      -1.67935519E-04
   14.0400000      -1.91894505E-04
   14.0799999      -2.18734669E-04
   14.1199999      -2.48714729E-04
   14.1599998      -2.82102963E-04
   14.1999998      -3.19175277E-04
   14.2399998      -3.60212871E-04
   14.2799997      -4.05499624E-04
   14.3199997      -4.55318688E-04
   14.3599997      -5.09948819E-04
   14.3999996      -5.69660217E-04
   14.4399996      -6.34709548E-04
   14.4799995      -7.05335056E-04
   14.5200005      -7.81750539E-04
   14.5600004      -8.64139467E-04
   14.6000004      -9.52648174E-04
   14.6400003      -1.04737934E-03
   14.6800003      -1.14838418E-03
   14.7200003      -1.25565589E-03
   14.7600002      -1.36912148E-03
   14.8000002      -1.48863485E-03
   14.8400002      -1.61396933E-03
   14.8800001      -1.74481038E-03
   14.9200001      -1.88074948E-03
   14.9600000      -2.02127802E-03
   15.0000000      -2.16578180E-03
   15.0400000      -2.31353752E-03
   15.0799999      -2.46370840E-03
   15.1199999      -2.61534378E-03
   15.1599998      -2.76737730E-03
   15.1999998      -2.91862874E-03
   15.2399998      -3.06780706E-03
   15.2799997      -3.21351457E-03
   15.3199997      -3.35425395E-03
   15.3599997      -3.48843704E-03
   15.3999996      -3.61439586E-03
   15.4399996      -3.73039464E-03
   15.4799995      -3.83464620E-03
   15.5200005      -3.92532721E-03
   15.5600004      -4.00059950E-03
   15.6000004      -4.05862788E-03
   15.6400003      -4.09760512E-03
   15.6800003      -4.11577336E-03
   15.7200003      -4.11145203E-03
   15.7600002      -4.08305880E-03
   15.8000002      -4.02913895E-03
   15.8400002      -3.94838955E-03
   15.8800001      -3.83968698E-03
   15.9200001      -3.70210921E-03
   15.9600000      -3.53496103E-03
   16.0000000      -3.33779585E-03
   16.0400009      -3.11043486E-03
   16.0799999      -2.85298470E-03
   16.1200008      -2.56585144E-03
   16.1599998      -2.24975194E-03
   16.2000008      -1.90572115E-03
   16.2399998      -1.53511483E-03
   16.2800007      -1.13960984E-03
   16.3199997      -7.21197692E-04
   16.3600006      -2.82175752E-04
   16.3999996       1.74867455E-04
   16.4400005       6.47070410E-04
   16.4799995       1.13132189E-03
   16.5200005       1.62428862E-03
   16.5599995       2.12244573E-03
   16.6000004       2.62211100E-03
   16.6399994       3.11948336E-03
   16.6800003       3.61068267E-03
   16.7199993       4.09179227E-03
   16.7600002       4.55890223E-03
   16.7999992       5.00815595E-03
   16.8400002       5.43579180E-03
   16.8799992       5.83818974E-03
   16.9200001       6.21191459E-03
   16.9599991       6.55375561E-03
   17.0000000       6.86076749E-03
   17.0400009       7.13030482E-03
   17.0799999       7.36005465E-03
   17.1200008       7.54806446E-03
   17.1599998       7.69276544E-03
   17.2000008       7.79299252E-03
   17.2399998       7.84799457E-03
   17.2800007       7.85744656E-03
   17.3199997       7.82144628E-03
   17.3600006       7.74051901E-03
   17.3999996       7.61560211E-03
   17.4400005       7.44803483E-03
   17.4799995       7.23953918E-03
   17.5200005       6.99219666E-03
   17.5599995       6.70842128E-03
   17.6000004       6.39092596E-03
   17.6399994       6.04269188E-03
   17.6800003       5.66692790E-03
   17.7199993       5.26703335E-03
   17.7600002       4.84655797E-03
   17.7999992       4.40915767E-03
   17.8400002       3.95855494E-03
   17.8799992       3.49849812E-03
   17.9200001       3.03271855E-03
   17.9599991       2.56489357E-03
   18.0000000       2.09860853E-03
   18.0400009       1.63732225E-03
   18.0799999       1.18433475E-03
   18.1200008       7.42758915E-04
   18.1599998       3.15493991E-04
   18.2000008      -9.47959561E-05
   18.2399998      -4.85701108E-04
   18.2800007      -8.55080376E-04
   18.3199997      -1.20107341E-03
   18.3600006      -1.52210740E-03
   18.3999996      -1.81690126E-03
   18.4400005      -2.08446709E-03
   18.4799995      -2.32410617E-03
   18.5200005      -2.53540534E-03
   18.5599995      -2.71822605E-03
   18.6000004      -2.87269568E-03
   18.6399994      -2.99919257E-03
   18.6800003      -3.09833139E-03
   18.7199993      -3.17094615E-03
   18.7600002      -3.21807014E-03
   18.7999992      -3.24091851E-03
   18.8400002      -3.24086472E-03
   18.8799992      -3.21942032E-03
   18.9200001      -3.17821233E-03
   18.9599991      -3.11896135E-03
   19.0000000      -3.04345856E-03
   19.0400009      -2.95354379E-03
   19.0799999      -2.85108411E-03
   19.1200008      -2.73795100E-03
   19.1599998      -2.61600222E-03
   19.2000008      -2.48706038E-03
   19.2399998      -2.35289568E-03
   19.2800007      -2.21520849E-03
   19.3199997      -2.07561348E-03
   19.3600006      -1.93562626E-03
   19.3999996      -1.79665070E-03
   19.4400005      -1.65996840E-03
   19.4799995      -1.52673048E-03
   19.5200005      -1.39795034E-03
   19.5599995      -1.27450016E-03
   19.6000004      -1.15710753E-03
   19.6399994      -1.04635593E-03
   19.6800003      -9.42685583E-04
   19.7199993      -8.46397888E-04
   19.7600002      -7.57660484E-04
   19.7999992      -6.76515105E-04
   19.8400002      -6.02886255E-04
   19.8799992      -5.36591979E-04
   19.9200001      -4.77355439E-04
   19.9599991      -4.24818078E-04
   20.0000000      -3.78552882E-04
   20.0400009      -3.38078680E-04
   20.0799999      -3.02874600E-04
   20.1200008      -2.72394362E-04
   20.1599998      -2.46080366E-04
   20.2000008      -2.23377108E-04
   20.2399998      -2.03743853E-04
   20.2800007      -1.86666133E-04
   20.3199997      -1.71665888E-04
   20.3600006      -1.58310315E-04
   20.3999996      -1.46218837E-04
   20.4400005      -1.35068447E-04
   20.4799995      -1.24597340E-04
   20.5200005      -1.14606402E-04
   20.5599995      -1.04959188E-04
   20.6000004      -9.55799405E-05
   20.6399994      -8.64499962E-05
   20.6800003      -7.76026209E-05
   20.7199993      -6.91165551E-05
   20.7600002      -6.11083669E-05
   20.7999992      -5.37238957E-05
   20.8400002      -4.71290841E-05
   20.8799992      -4.15003742E-05
   20.9200001      -3.70150919E-05
   20.9599991      -3.38419050E-05
   21.0000000      -3.21318439E-05
   21.0400009      -3.20099425E-05
   21.0799999      -3.35678596E-05
   21.1200008      -3.68576293E-05
   21.1599998      -4.18867166E-05
   21.2000008      -4.86145109E-05
   21.2399998      -5.69503463E-05
   21.2800007      -6.67530694E-05
   21.3199997      -7.78322719E-05
   21.3600006      -8.99509323E-05
   21.3999996      -1.02829639E-04
   21.4400005      -1.16152121E-04
   21.4799995      -1.29571970E-04
   21.5200005      -1.42720412E-04
   21.5599995      -1.55214817E-04
   21.6000004      -1.66667945E-04
   21.6399994      -1.76697446E-04
   21.6800003      -1.84935358E-04
   21.7199993      -1.91037747E-04
   21.7600002      -1.94693595E-04
   21.7999992      -1.95633431E-04
   21.8400002      -1.93636923E-04
   21.8799992      -1.88539445E-04
   21.9200001      -1.80237650E-04
   21.9599991      -1.68693601E-04
   22.0000000      -1.53937537E-04
   22.0400009      -1.36069328E-04
   22.0799999      -1.15258328E-04
   22.1200008      -9.17418511E-05
   22.1599998      -6.58222416E-05
   22.2000008      -3.78625919E-05
   22.2399998      -8.28126667E-06
   22.2800007       2.24546511E-05
   22.3199997       5.38369022E-05
   22.3600006       8.53243400E-05
   22.3999996       1.16351788E-04
   22.4400005       1.46339415E-04
   22.4799995       1.74702145E-04
   22.5200005       2.00859300E-04
   22.5599995       2.24243951E-04
   22.6000004       2.44311988E-04
   22.6399994       2.60550791E-04
   22.6800003       2.72487057E-04
   22.7199993       2.79694301E-04
   22.7600002       2.81799003E-04
   22.7999992       2.78486346E-04
   22.8400002       2.69504468E-04
   22.8799992       2.54668266E-04
   22.9200001       2.33861720E-04
   22.9599991       2.07039411E-04
   23.0000000       1.74226981E-04
   23.0400009       1.35520706E-04
   23.0799999       9.10860253E-05
   23.1200008       4.11553010E-05
   23.1599998      -1.39752028E-05
   23.2000008      -7.39491588E-05
   23.2399998      -1.38354502E-04
   23.2800007      -2.06728437E-04
   23.3199997      -2.78562744E-04
   23.3600006      -3.53309733E-04
   23.3999996      -4.30388056E-04
   23.4400005      -5.09189209E-04
   23.4799995      -5.89083706E-04
   23.5200005      -6.69427798E-04
   23.5599995      -7.49569794E-04
   23.6000004      -8.28856195E-04
   23.6399994      -9.06638452E-04
   23.6800003      -9.82278609E-04
   23.7199993      -1.05515542E-03
   23.7600002      -1.12466968E-03
   23.7999992      -1.19024992E-03
   23.8400002      -1.25135761E-03
   23.8799992      -1.30749063E-03
   23.9200001      -1.35818927E-03
   23.9599991      -1.40303862E-03
   24.0000000      -1.44167303E-03
   24.0400009      -1.47377816E-03
   24.0799999      -1.49909407E-03
   24.1200008      -1.51741644E-03
   24.1599998      -1.52859790E-03
   24.2000008      -1.53254846E-03
   24.2399998      -1.52923551E-03
   24.2800007      -1.51868258E-03
   24.3199997      -1.50096789E-03
   24.3600006      -1.47622137E-03
   24.3999996      -1.44462206E-03
   24.4400005      -1.40639383E-03
   24.4799995      -1.36180082E-03
   24.5200005      -1.31114211E-03
   24.5599995      -1.25474588E-03
   24.6000004      -1.19296333E-03
   24.6399994      -1.12616166E-03
   24.6800003      -1.05471665E-03
   24.7199993      -9.79006640E-04
   24.7600002      -8.99404753E-04
   24.7999992      -8.16271990E-04
   24.8400002      -7.29950960E-04
   24.8799992      -6.40760118E-04
   24.9200001      -5.48988348E-04
   24.9599991      -4.54890542E-04
   25.0000000      -3.58684745E-04
   25.0400009      -2.60549685E-04
   25.0799999      -1.60624273E-04
   25.1200008      -5.90082236E-05
   25.1599998       4.42360179E-05
   25.2000008       1.49079497E-04
   25.2399998       2.55522027E-04
   25.2800007       3.63585161E-04
   25.3199997       4.73305205E-04
   25.3600006       5.84723486E-04
   25.3999996       6.97876851E-04
   25.4400005       8.12786748E-04
   25.4799995       9.29447531E-04
   25.5200005       1.04781508E-03
   25.5599995       1.16779504E-03
   25.6000004       1.28923112E-03
   25.6399994       1.41189480E-03
   25.6800003       1.53547549E-03
   25.7199993       1.65957224E-03
   25.7600002       1.78368634E-03
   25.7999992       1.90721790E-03
   25.8400002       2.02946248E-03
   25.8799992       2.14961125E-03
   25.9200001       2.26675346E-03
   25.9599991       2.37988285E-03
   26.0000000       2.48790393E-03
   26.0400009       2.58964580E-03
   26.0799999       2.68387282E-03
   26.1200008       2.76930397E-03
   26.1599998       2.84462958E-03
   26.2000008       2.90853321E-03
   26.2399998       2.95971404E-03
   26.2800007       2.99691246E-03
   26.3199997       3.01893335E-03
   26.3600006       3.02467356E-03
   26.3999996       3.01314681E-03
   26.4400005       2.98350933E-03
   26.4799995       2.93508498E-03
   26.5200005       2.86738761E-03
   26.5599995       2.78014177E-03
   26.6000004       2.67330138E-03
   26.6399994       2.54706549E-03
   26.6800003       2.40188977E-03
   26.7199993       2.23849504E-03
   26.7600002       2.05787225E-03
   26.7999992       1.86128181E-03
   26.8400002       1.65024912E-03
   26.8799992       1.42655743E-03
   26.9200001       1.19223318E-03
   26.9599991       9.49529291E-04
   27.0000000       7.00903707E-04
   27.0400009       4.48993873E-04
   27.0799999       1.96587542E-04
   27.1200008      -5.34093342E-05
   27.1599998      -2.98007566E-04
   27.2000008      -5.34172112E-04
   27.2399998      -7.58860901E-04
   27.2800007      -9.69065470E-04
   27.3199997      -1.16185111E-03
   27.3600006      -1.33439829E-03
   27.3999996      -1.48404227E-03
   27.4400005      -1.60831213E-03
   27.4799995      -1.70496805E-03
   27.5200005      -1.77203526E-03
   27.5599995      -1.80783682E-03
   27.6000004      -1.81102112E-03
   27.6399994      -1.78058678E-03
   27.6800003      -1.71590270E-03
   27.7199993      -1.61672442E-03
   27.7600002      -1.48320512E-03
   27.7999992      -1.31590117E-03
   27.8400002      -1.11577474E-03
   27.8799992      -8.84188456E-04
   27.9200001      -6.22897816E-04
   27.9599991      -3.34037060E-04
   28.0000000      -2.01005805E-05
   28.0400009       3.16079473E-04
   28.0799999       6.71360584E-04
   28.1200008       1.04232051E-03
   28.1599998       1.42529188E-03
   28.2000008       1.81639998E-03
   28.2399998       2.21160147E-03
   28.2800007       2.60672881E-03
   28.3199997       2.99753179E-03
   28.3600006       3.37972352E-03
   28.3999996       3.74902645E-03
   28.4400005       4.10121633E-03
   28.4799995       4.43216879E-03
   28.5200005       4.73790197E-03
   28.5599995       5.01461932E-03
   28.6000004       5.25875064E-03
   28.6399994       5.46698831E-03
   28.6800003       5.63632464E-03
   28.7199993       5.76408254E-03
   28.7600002       5.84794348E-03
   28.7999992       5.88597311E-03
   28.8400002       5.87663846E-03
   28.8799992       5.81882987E-03
   28.9200001       5.71186515E-03
   28.9599991       5.55550307E-03
   29.0000000       5.34994109E-03
   29.0400009       5.09581668E-03
   29.0799999       4.79419902E-03
   29.1200008       4.44657728E-03
   29.1599998       4.05484857E-03
   29.2000008       3.62129463E-03
   29.2399998       3.14856367E-03
   29.2800007       2.63964152E-03
   29.3199997       2.09782296E-03
   29.3600006       1.52668101E-03
   29.3999996       9.30032402E-04
   29.4400005       3.11901793E-04
   29.4799995      -3.23515269E-04