  -4.80000019       0.00000000
  -4.76000023       0.00000000
  -4.71999979       0.00000000
  -4.67999983       0.00000000
  -4.63999987       0.00000000
  -4.59999990       0.00000000
  -4.55999994       0.00000000
  -4.51999998       0.00000000
  -4.48000002       0.00000000
  -4.44000006       0.00000000
  -4.40000010       0.00000000
  -4.36000013       0.00000000
  -4.32000017       0.00000000
  -4.28000021       0.00000000
  -4.23999977       0.00000000
  -4.19999981       0.00000000
  -4.15999985      -2.80259693E-45
  -4.11999989      -3.92363570E-44
  -4.07999992      -3.78350585E-43
  -4.03999996      -2.76616317E-42
  -4.00000000      -1.68141803E-41
  -3.96000004      -8.84948006E-41
  -3.92000008      -4.12947243E-40
  -3.88000011      -1.73768156E-39
  -3.83999991      -6.67563875E-39
  -3.79999995      -2.36396248E-38
  -3.75999999      -7.77598062E-38
  -3.72000003      -2.39090217E-37
  -3.68000007      -6.90731985E-37
  -3.64000010      -1.88308308E-36
  -3.59999990      -4.86188488E-36
  -3.55999994      -1.19239840E-35
  -3.51999998      -2.78487325E-35
  -3.48000002      -6.20650801E-35
  -3.44000006      -1.32208068E-34
  -3.40000010      -2.69510595E-34
  -3.35999990      -5.26216658E-34
  -3.31999993      -9.84465039E-34
  -3.27999997      -1.76459426E-33
  -3.24000001      -3.02829349E-33
  -3.20000005      -4.96839989E-33
  -3.16000009      -7.77277493E-33
  -3.11999989      -1.15457724E-32
  -3.07999992      -1.61696859E-32
  -3.03999996      -2.10940345E-32
  -3.00000000      -2.50574870E-32
  -2.96000004      -2.57809539E-32
  -2.92000008      -1.97240076E-32
  -2.88000011      -2.06825384E-33
  -2.83999991       3.28316395E-32
  -2.79999995       9.02329859E-32
  -2.75999999       1.72740717E-31
  -2.72000003       2.76845964E-31
  -2.68000007       3.88450642E-31
  -2.64000010       4.78130493E-31
  -2.59999990       4.97687898E-31
  -2.55999994       3.80456693E-31
  -2.51999998       4.85767457E-32
  -2.48000002      -5.69391267E-31
  -2.44000006      -1.50818239E-30
  -2.40000010      -2.72340111E-30
  -2.35999990      -4.04254802E-30
  -2.31999993      -5.12222209E-30
  -2.27999997      -5.43227123E-30
  -2.24000001      -4.29420387E-30
  -2.20000005      -1.00238842E-30
  -2.16000009       4.95221852E-30
  -2.11999989       1.35592901E-29
  -2.07999992       2.39104157E-29
  -2.03999996       3.38607855E-29
  -2.00000000       3.98839628E-29
  -1.96000004       3.73124191E-29
  -1.91999996       2.11531596E-29
  -1.88000000      -1.24090713E-29
  -1.84000003      -6.38816518E-29
  -1.79999995      -1.28038892E-28
  -1.75999999      -1.91869061E-28
  -1.72000003      -2.33879227E-28
  -1.67999995      -2.25914351E-28
  -1.63999999      -1.38511028E-28
  -1.60000002       4.97882231E-29
  -1.55999994       3.39867317E-28
  -1.51999998       6.98526846E-28
  -1.48000002       1.04814240E-27
  -1.44000006       1.26507424E-27
  -1.39999998       1.19284301E-27
  -1.36000001       6.74693367E-28
  -1.32000005      -3.93649608E-28
  -1.27999997      -1.99659020E-27
  -1.24000001      -3.93041626E-27
  -1.20000005      -5.75636001E-27
  -1.15999997      -6.80299239E-27
  -1.12000000      -6.24597917E-27
  -1.08000004      -3.28420629E-27
  -1.03999996       2.58879536E-27
  -1.00000000       1.12498082E-26
 -0.959999979       2.16161801E-26
 -0.920000017       3.14260861E-26
 -0.879999995       3.72565293E-26
 -0.839999974       3.49038133E-26
 -0.800000012       2.02104099E-26
 -0.759999990      -9.66323948E-27
 -0.720000029      -5.46509277E-26
 -0.680000007      -1.10160654E-25
 -0.639999986      -1.65860224E-25
 -0.600000024      -2.05419491E-25
 -0.560000002      -2.07785519E-25
 -0.519999981      -1.50458122E-25
 -0.479999989      -1.49534578E-26
 -0.439999998       2.05819936E-25
 -0.400000006       4.99177129E-25
 -0.360000014       8.24902234E-25
 -0.319999993       1.11048403E-24
 -0.280000001       1.25224589E-24
 -0.239999995       1.12541352E-24
 -0.200000003       6.05635979E-25
 -0.159999996      -3.97006798E-25
 -0.119999997      -1.89311057E-24
  -7.99999982E-02  -3.76363605E-24
  -3.99999991E-02  -5.71450051E-24
   2.77555756E-16  -7.25152341E-24
   3.99999991E-02  -7.69534760E-24
   7.99999982E-02  -6.25722537E-24
  0.119999997      -2.19259017E-24
  0.159999996       4.96221948E-24
  0.200000003       1.50855670E-23
  0.239999995       2.71437697E-23
  0.280000001       3.89230471E-23
  0.319999993       4.69354063E-23
  0.360000014       4.66350081E-23
  0.400000006       3.30746122E-23
  0.439999998       2.08106161E-24
  0.479999989      -4.80776517E-23
  0.519999981      -1.14724900E-22
  0.560000002      -1.88904545E-22
  0.600000024      -2.54213696E-22
  0.639999986      -2.87098795E-22
  0.680000007      -2.59389684E-22
  0.720000029      -1.43637851E-22
  0.759999990       7.86710407E-23
  0.800000012       4.06762002E-22
  0.839999974       8.09842030E-22
  0.879999995       1.21886638E-21
  0.920000017       1.52453830E-21
  0.959999979       1.58554014E-21
   1.00000000       1.25024583E-21
   1.03999996       3.93072173E-22
   1.08000004      -1.03689028E-21
   1.12000000      -2.96202735E-21
   1.15999997      -5.12933890E-21
   1.20000005      -7.08712920E-21
   1.24000001      -8.20377375E-21
   1.27999997      -7.74489369E-21
   1.32000005      -5.01745586E-21
   1.36000001       4.24646072E-22
   1.39999998       8.53833277E-21
   1.44000006       1.85591719E-20
   1.48000002       2.88459690E-20
   1.51999998       3.68802935E-20
   1.55999994       3.94950793E-20
   1.60000002       3.33810804E-20
   1.63999999       1.58697299E-20
   1.67999995      -1.40816626E-20
   1.72000003      -5.48628058E-20
   1.75999999      -1.01385376E-19
   1.79999995      -1.44761919E-19
   1.84000003      -1.72796427E-19
   1.88000000      -1.71524676E-19
   1.91999996      -1.27881386E-19
   1.96000004      -3.33223764E-20
   2.00000000       1.12082598E-19
   2.03999996       2.95893931E-19
   2.07999992       4.90949168E-19
   2.11999989       6.55581426E-19
   2.16000009       7.37434618E-19
   2.20000005       6.81450310E-19
   2.24000001       4.41826427E-19
   2.27999997      -3.28730845E-21
   2.31999993      -6.36743215E-19
   2.35999990      -1.39042009E-18
   2.40000010      -2.14036313E-18
   2.44000006      -2.71299235E-18
   2.48000002      -2.90527855E-18
   2.51999998      -2.51964157E-18
   2.55999994      -1.41120270E-18
   2.59999990       4.58721280E-19
   2.64000010       2.97273244E-18
   2.68000007       5.82376428E-18
   2.72000003       8.51147095E-18
   2.75999999       1.03805079E-17
   2.79999995       1.07075313E-17
   2.83999991       8.83529397E-18
   2.88000011       4.34115759E-18
   2.92000008      -2.78478418E-18
   2.96000004      -1.19876098E-17
   3.00000000      -2.20638716E-17
   3.03999996      -3.11883851E-17
   3.07999992      -3.70840322E-17
   3.11999989      -3.73472808E-17
   3.16000009      -2.99129520E-17
   3.20000005      -1.36064254E-17
   3.24000001       1.13042916E-17
   3.27999997       4.26729905E-17
   3.31999993       7.62859710E-17
   3.35999990       1.06039168E-16
   3.40000010       1.24563911E-16
   3.44000006       1.24316551E-16
   3.48000002       9.90561026E-17
   3.51999998       4.55307076E-17
   3.55999994      -3.49048844E-17
   3.59999990      -1.35089791E-16
   3.64000010      -2.41646297E-16
   3.68000007      -3.35682175E-16
   3.72000003      -3.94803830E-16
   3.75999999      -3.96435772E-16
   3.79999995      -3.22180363E-16
   3.83999991      -1.62669236E-16
   3.88000011       7.78989335E-17
   3.92000008       3.78509193E-16
   3.96000004       7.00371416E-16
   4.00000000       9.89093184E-16
   4.03999996       1.18045635E-15
   4.07999992       1.20971022E-15
   4.11999989       1.02359580E-15
   4.15999985       5.93584755E-16
   4.19999981      -7.18259852E-17
   4.23999977      -9.18323581E-16
   4.28000021      -1.84307699E-15
   4.32000017      -2.70025294E-15
   4.36000013      -3.31591291E-15
   4.40000010      -3.51201989E-15
   4.44000006      -3.13754408E-15
   4.48000002      -2.10283912E-15
   4.51999998      -4.11905425E-16
   4.55999994       1.81381327E-15
   4.59999990       4.32649903E-15
   4.63999987       6.76320275E-15
   4.67999983       8.68025219E-15
   4.71999979       9.61043243E-15
   4.76000023       9.13840723E-15
   4.80000019       6.98557431E-15
   4.84000015       3.09181319E-15
   4.88000011      -2.32079298E-15
   4.92000008      -8.71750046E-15
   4.96000004      -1.52666982E-14
   5.00000000      -2.09099028E-14
   5.03999996      -2.44864621E-14
   5.07999992      -2.49041951E-14
   5.11999989      -2.13375155E-14
   5.15999985      -1.34258754E-14
   5.19999981      -1.43940586E-15
   5.23999977       1.36229859E-14
   5.28000021       3.00339824E-14
   5.32000017       4.54577816E-14
   5.36000013       5.71953509E-14
   5.40000010       6.25413756E-14
   5.44000006       5.92181604E-14
   5.48000002       4.58320820E-14
   5.51999998       2.22836073E-14
   5.55999994      -9.94455474E-15
   5.59999990      -4.76918310E-14
   5.63999987      -8.62704548E-14
   5.67999983      -1.19887363E-13
   5.71999979      -1.42323883E-13
   5.76000023      -1.47816492E-13
   5.80000019      -1.32039209E-13
   5.84000015      -9.30538741E-14
   5.88000011      -3.20742205E-14
   5.92000008       4.61093464E-14
   5.96000004       1.33173000E-13
   6.00000000       2.17850179E-13
   6.03999996       2.87079117E-13
   6.07999992       3.27632751E-13
   6.11999989       3.28069386E-13
   6.15999985       2.80765699E-13
   6.19999981       1.83739661E-13
   6.23999977       4.19525593E-14
   6.28000021      -1.32194169E-13
   6.32000017      -3.19378855E-13
   6.36000013      -4.94990008E-13
   6.40000010      -6.31810305E-13
   6.44000006      -7.03531634E-13
   6.48000002      -6.88717583E-13
   6.51999998      -5.74704618E-13
   6.55999994      -3.60859373E-13
   6.59999990      -6.06154666E-14
   6.63999987       2.98197719E-13
   6.67999983       6.75045577E-13
   6.71999979       1.02046128E-12
   6.76000023       1.28166987E-12
   6.80000019       1.40952929E-12
   6.84000015       1.36598372E-12
   6.88000011       1.13103624E-12
   6.92000008       7.08173591E-13
   6.96000004       1.27251413E-13
   7.00000000      -5.55925911E-13
   7.03999996      -1.26372567E-12
   7.07999992      -1.90442584E-12
   7.11999989      -2.38296015E-12
   7.15999985      -2.61354957E-12
   7.19999981      -2.53268218E-12
   7.23999977      -2.11065887E-12
   7.28000021      -1.35990080E-12
   7.32000017      -3.38452411E-13
   7.36000013       8.52398989E-13
   7.40000010       2.07675652E-12
   7.44000006       3.17852862E-12
   7.48000002       4.00027494E-12
   7.51999998       4.40435622E-12
   7.55999994       4.29367999E-12
   7.59999990       3.62910418E-12
   7.63999987       2.44069999E-12
   7.67999983       8.30649243E-13
   7.71999979      -1.03349306E-12
   7.76000023      -2.93520807E-12
   7.80000019      -4.63375345E-12
   7.84000015      -5.89456912E-12
   7.88000011      -6.52160791E-12
   7.92000008      -6.38720327E-12
   7.96000004      -5.45501318E-12
   8.00000000      -3.79215236E-12
   8.03999996      -1.56781532E-12
   8.07999992       9.62607489E-13
   8.11999989       3.48688504E-12
   8.15999985       5.67568865E-12
   8.19999981       7.22782164E-12
   8.23999977       7.91477647E-12
   8.27999973       7.61801212E-12
   8.31999969       6.35280283E-12
   8.35999966       4.27397701E-12
   8.39999962       1.66114496E-12
   8.43999958      -1.11609279E-12
   8.47999954      -3.64938331E-12
   8.52000046      -5.55286719E-12
   8.56000042      -6.52583196E-12
   8.60000038      -6.40710488E-12
   8.64000034      -5.21182576E-12
   8.68000031      -3.14301645E-12
   8.72000027      -5.73510477E-13
   8.76000023       2.00201834E-12
   8.80000019       4.04051532E-12
   8.84000015       5.04055218E-12
   8.88000011       4.63628832E-12
   8.92000008       2.68065648E-12
   8.96000004      -6.97055965E-13
   9.00000000      -5.07188302E-12
   9.03999996      -9.75036545E-12
   9.07999992      -1.38462818E-11
   9.11999989      -1.63996542E-11
   9.15999985      -1.65263272E-11
   9.19999981      -1.35790051E-11
   9.23999977      -7.29623306E-12
   9.27999973       2.08552208E-12
   9.31999969       1.37793761E-11
   9.35999966       2.64719253E-11
   9.39999962       3.84312235E-11
   9.43999958       4.76950944E-11
   9.47999954       5.23236419E-11
   9.52000046       5.06882487E-11
   9.56000042       4.17602272E-11
   9.60000038       2.53574869E-11
   9.64000034       2.30793748E-12
   9.68000031      -2.55051293E-11
   9.72000027      -5.52383521E-11
   9.76000023      -8.33300512E-11
   9.80000019      -1.05874504E-10
   9.84000015      -1.19094692E-10
   9.88000011      -1.19861593E-10
   9.92000008      -1.06195538E-10
   9.96000004      -7.76797515E-11
   10.0000000      -3.57200658E-11
   10.0400000       1.64022632E-11
   10.0799999       7.37156655E-11
   10.1199999       1.29984148E-10
   10.1599998       1.78344978E-10
   10.1999998       2.12098020E-10
   10.2399998       2.25560154E-10
   10.2799997       2.14881141E-10
   10.3199997       1.78711393E-10
   10.3599997       1.18621390E-10
   10.3999996       3.91949459E-11
   10.4399996      -5.22462490E-11
   10.4799995      -1.46285303E-10
   10.5200005      -2.32370859E-10
   10.5600004      -3.00001385E-10
   10.6000004      -3.40001471E-10
   10.6400003      -3.45736217E-10
   10.6800003      -3.14104853E-10
   10.7200003      -2.46171139E-10
   10.7600002      -1.47323931E-10
   10.8000002      -2.69133604E-11
   10.8400002       1.02627837E-10
   10.8800001       2.27101865E-10
   10.9200001       3.32164324E-10
   10.9600000       4.05057432E-10
   11.0000000       4.36245512E-10
   11.0400000       4.20738222E-10
   11.0799999       3.58914981E-10
   11.1199999       2.56716565E-10
   11.1599998       1.25144409E-10
   11.1999998      -2.09058673E-11
   11.2399998      -1.64361177E-10
   11.2799997      -2.88044505E-10
   11.3199997      -3.76854242E-10
   11.3599997      -4.19770080E-10
   11.3999996      -4.11414708E-10
   11.4399996      -3.52943424E-10
   11.4799995      -2.52111582E-10
   11.5200005      -1.22469881E-10
   11.5600004       1.82486890E-11
   11.6000004       1.50375254E-10
   11.6400003       2.54916199E-10
   11.6800003       3.16196930E-10
   11.7200003       3.24183708E-10
   11.7600002       2.76153350E-10
   11.8000002       1.77449555E-10
   11.8400002       4.11733495E-11
   11.8800001      -1.13210274E-10
   11.9200001      -2.62222577E-10
   11.9600000      -3.81415538E-10
   12.0000000      -4.48740017E-10
   12.0400000      -4.47802267E-10
   12.0799999      -3.70563441E-10
   12.1199999      -2.19086152E-10
   12.1599998      -6.03549198E-12
   12.1999998       2.46208026E-10
   12.2399998       5.07791198E-10
   12.2799997       7.44772133E-10
   12.3199997       9.23269516E-10
   12.3599997       1.01387798E-09
   12.3999996       9.95790006E-10
   12.4399996       8.60071125E-10
   12.4799995       6.11616424E-10
   12.5200005       2.69463230E-10
   12.5600004      -1.34669442E-10
   12.6000004      -5.59521207E-10
   12.6400003      -9.58795265E-10
   12.6800003      -1.28652256E-09
   12.7200003      -1.50264390E-09
   12.7600002      -1.57811075E-09
   12.8000002      -1.49883539E-09
   12.8400002      -1.26793509E-09
   12.8800001      -9.05909514E-10
   12.9200001      -4.48634602E-10
   12.9600000       5.66704461E-11
   13.0000000       5.57085211E-10
   13.0400000       1.00060016E-09
   13.0799999       1.34291156E-09
   13.1199999       1.55355895E-09
   13.1599998       1.62061120E-09
   13.1999998       1.55325786E-09
   13.2399998       1.38189749E-09
   13.2799997       1.15560417E-09
   13.3199997       9.37170119E-10
   13.3599997       7.96219202E-10
   13.3999996       8.01129330E-10
   13.4399996       1.01065911E-09
   13.4799995       1.46622103E-09
   13.5200005       2.18567364E-09
   13.5600004       3.15932636E-09
   13.6000004       4.34857172E-09
   13.6400003       5.68723557E-09
   13.6800003       7.08537717E-09
   13.7200003       8.43494430E-09
   13.7600002       9.61642588E-09
   13.8000002       1.05054800E-08
   13.8400002       1.09784555E-08
   13.8800001       1.09158265E-08
   13.9200001       1.02027151E-08
   13.9600000       8.72599504E-09
   14.0000000       6.36776942E-09
   14.0400000       2.99537883E-09
   14.0799999      -1.55161928E-09
   14.1199999      -7.47683249E-09
   14.1599998      -1.50440158E-08
   14.1999998      -2.45949057E-08
   14.2399998      -3.65673642E-08
   14.2799997      -5.15135170E-08
   14.3199997      -7.01179985E-08
   14.3599997      -9.32168476E-08
   14.3999996      -1.21817919E-07
   14.4399996      -1.57124234E-07
   14.4799995      -2.00561672E-07
   14.5200005      -2.53812971E-07
   14.5600004      -3.18859378E-07
   14.6000004      -3.98032114E-07
   14.6400003      -4.94074129E-07
   14.6800003      -6.10214045E-07
   14.7200003      -7.50252070E-07
   14.7600002      -9.18658486E-07
   14.8000002      -1.12068483E-06
   14.8400002      -1.36248650E-06
   14.8800001      -1.65125743E-06
   14.9200001      -1.99537612E-06
   14.9600000      -2.40456257E-06
   15.0000000      -2.89004561E-06
   15.0400000      -3.46474167E-06
   15.0799999      -4.14344504E-06
   15.1199999      -4.94303004E-06
   15.1599998      -5.88266539E-06
   15.1999998      -6.98403983E-06
   15.2399998      -8.27160238E-06
   15.2799997      -9.77281070E-06
   15.3199997      -1.15183902E-05
   15.3599997      -1.35425953E-05
   15.3999996      -1.58834791E-05
   15.4399996      -1.85831504E-05
   15.4799995      -2.16880271E-05
   15.5200005      -2.52490663E-05
   15.5600004      -2.93219691E-05
   15.6000004      -3.39673497E-05
   15.6400003      -3.92508518E-05
   15.6800003      -4.52432105E-05
   15.7200003      -5.20202411E-05
   15.7600002      -5.96627506E-05
   15.8000002      -6.82563477E-05
   15.8400002      -7.78911635E-05
   15.8800001      -8.86614362E-05
   15.9200001      -1.00664976E-04
   15.9600000      -1.14002491E-04
   16.0000000      -1.28776781E-04
   16.0400009      -1.45091704E-04
   16.0799999      -1.63051081E-04
   16.1200008      -1.82757300E-04
   16.1599998      -2.04309865E-04
   16.2000008      -2.27803685E-04
   16.2399998      -2.53327162E-04
   16.2800007      -2.80960201E-04
   16.3199997      -3.10771953E-04
   16.3600006      -3.42818472E-04
   16.3999996      -3.77140270E-04
   16.4400005      -4.13759641E-04
   16.4799995      -4.52678039E-04
   16.5200005      -4.93873376E-04
   16.5599995      -5.37297223E-04
   16.6000004      -5.82872366E-04
   16.6399994      -6.30490016E-04
   16.6800003      -6.80007623E-04
   16.7199993      -7.31246488E-04
   16.7600002      -7.83989904E-04
   16.7999992      -8.37981410E-04
   16.8400002      -8.92923796E-04
   16.8799992      -9.48478060E-04
   16.9200001      -1.00426329E-03
   16.9599991      -1.05985662E-03
   17.0000000      -1.11479464E-03
   17.0400009      -1.16857432E-03
   17.0799999      -1.22065563E-03
   17.1200008      -1.27046427E-03
   17.1599998      -1.31739536E-03
   17.2000008      -1.36081816E-03
   17.2399998      -1.40008098E-03
   17.2800007      -1.43451709E-03
   17.3199997      -1.46345189E-03
   17.3600006      -1.48620957E-03
   17.3999996      -1.50212145E-03
   17.4400005      -1.51053455E-03
   17.4799995      -1.51082012E-03
   17.5200005      -1.50238315E-03
   17.5599995      -1.48467172E-03
   17.6000004      -1.45718630E-03
   17.6399994      -1.41948950E-03
   17.6800003      -1.37121498E-03
   17.7199993      -1.31207635E-03
   17.7600002      -1.24187546E-03
   17.7999992      -1.16051035E-03
   17.8400002      -1.06798147E-03
   17.8799992      -9.64397739E-04
   17.9200001      -8.49981210E-04
   17.9599991      -7.25070364E-04
   18.0000000      -5.90122188E-04
   18.0400009      -4.45712445E-04
   18.0799999      -2.92534969E-04
   18.1200008      -1.31398629E-04
   18.1599998       3.67767971E-05
   18.2000008       2.10966682E-04
   18.2399998       3.90049187E-04
   18.2800007       5.72814490E-04
   18.3199997       7.57975620E-04
   18.3600006       9.44180414E-04
   18.3999996       1.13002514E-03
   18.4400005       1.31406880E-03
   18.4799995       1.49484864E-03
   18.5200005       1.67089596E-03
   18.5599995       1.84075325E-03
   18.6000004       2.00299034E-03
   18.6399994       2.15622177E-03
   18.6800003       2.29912298E-03
   18.7199993       2.43044598E-03
   18.7600002       2.54903571E-03
   18.7999992       2.65384256E-03
   18.8400002       2.74393684E-03
   18.8799992       2.81851948E-03
   18.9200001       2.87693273E-03
   18.9599991       2.91866786E-03
   19.0000000       2.94337119E-03
   19.0400009       2.95084948E-03
   19.0799999       2.94107106E-03
   19.1200008       2.91416701E-03
   19.1599998       2.87042861E-03
   19.2000008       2.81030405E-03
   19.2399998       2.73439195E-03
   19.2800007       2.64343433E-03
   19.3199997       2.53830641E-03
   19.3600006       2.42000632E-03
   19.3999996       2.28964235E-03
   19.4400005       2.14841892E-03
   19.4799995       1.99762243E-03
   19.5200005       1.83860597E-03
   19.5599995       1.67277304E-03
   19.6000004       1.50156126E-03
   19.6399994       1.32642651E-03
   19.6800003       1.14882656E-03
   19.7199993       9.70205292E-04
   19.7600002       7.91977742E-04
   19.7999992       6.15515746E-04
   19.8400002       4.42134246E-04
   19.8799992       2.73079175E-04
   19.9200001       1.09516222E-04
   19.9599991      -4.74790686E-05
   20.0000000      -1.96929774E-04
   20.0400009      -3.37964651E-04
   20.0799999      -4.69823804E-04
   20.1200008      -5.91862830E-04
   20.1599998      -7.03555415E-04
   20.2000008      -8.04494834E-04
   20.2399998      -8.94393481E-04
   20.2800007      -9.73081798E-04
   20.3199997      -1.04050525E-03
   20.3600006      -1.09672046E-03
   20.3999996      -1.14189053E-03
   20.4400005      -1.17627846E-03
   20.4799995      -1.20024069E-03
   20.5200005      -1.21421914E-03
   20.5599995      -1.21873291E-03
   20.6000004      -1.21436932E-03
   20.6399994      -1.20177423E-03
   20.6800003      -1.18164264E-03
   20.7199993      -1.15470844E-03
   20.7600002      -1.12173450E-03
   20.7999992      -1.08350231E-03
   20.8400002      -1.04080187E-03
   20.8799992      -9.94422007E-04
   20.9200001      -9.45140840E-04
   20.9599991      -8.93716700E-04
   21.0000000      -8.40879395E-04
   21.0400009      -7.87322118E-04
   21.0799999      -7.33694469E-04
   21.1200008      -6.80595636E-04
   21.1599998      -6.28568698E-04
   21.2000008      -5.78096020E-04
   21.2399998      -5.29595301E-04
   21.2800007      -4.83416981E-04
   21.3199997      -4.39842377E-04
   21.3600006      -3.99083132E-04
   21.3999996      -3.61281534E-04
   21.4400005      -3.26512178E-04
   21.4799995      -2.94784288E-04
   21.5200005      -2.66045390E-04
   21.5599995      -2.40185633E-04
   21.6000004      -2.17043067E-04
   21.6399994      -1.96409615E-04
   21.6800003      -1.78037706E-04
   21.7199993      -1.61647316E-04
   21.7600002      -1.46933497E-04
   21.7999992      -1.33574053E-04
   21.8400002      -1.21237346E-04
   21.8799992      -1.09589935E-04
   21.9200001      -9.83041100E-05
   21.9599991      -8.70649892E-05
   22.0000000      -7.55771835E-05
   22.0400009      -6.35708057E-05
   22.0799999      -5.08067278E-05
   22.1200008      -3.70810740E-05
   22.1599998      -2.22287654E-05
   22.2000008      -6.12612439E-06
   22.2399998       1.13074984E-05
   22.2800007       3.01091059E-05
   22.3199997       5.02724106E-05
   22.3600006       7.17491421E-05
   22.3999996       9.44511994E-05
   22.4400005       1.18253680E-04
   22.4799995       1.42998513E-04
   22.5200005       1.68498707E-04
   22.5599995       1.94543085E-04
   22.6000004       2.20901289E-04
   22.6399994       2.47329008E-04
   22.6800003       2.73573067E-04
   22.7199993       2.99376756E-04
   22.7600002       3.24484485E-04
   22.7999992       3.48646456E-04
   22.8400002       3.71622737E-04
   22.8799992       3.93186667E-04
   22.9200001       4.13127942E-04
   22.9599991       4.31254855E-04
   23.0000000       4.47395840E-04
   23.0400009       4.61400545E-04
   23.0799999       4.73139982E-04
   23.1200008       4.82506381E-04
   23.1599998       4.89412225E-04
   23.2000008       4.93788917E-04
   23.2399998       4.95585147E-04
   23.2800007       4.94765001E-04
   23.3199997       4.91305720E-04
   23.3600006       4.85195604E-04
   23.3999996       4.76431829E-04
   23.4400005       4.65018762E-04
   23.4799995       4.50966152E-04
   23.5200005       4.34287911E-04
   23.5599995       4.15001385E-04
   23.6000004       3.93126975E-04
   23.6399994       3.68688372E-04
   23.6800003       3.41713312E-04
   23.7199993       3.12234857E-04
   23.7600002       2.80293112E-04
   23.7999992       2.45937437E-04
   23.8400002       2.09228951E-04
   23.8799992       1.70243293E-04
   23.9200001       1.29073538E-04
   23.9599991       8.58330459E-05
   24.0000000       4.06582149E-05
   24.0400009      -6.28901716E-06
   24.0799999      -5.48191238E-05
   24.1200008      -1.04713494E-04
   24.1599998      -1.55723581E-04
   24.2000008      -2.07570876E-04
   24.2399998      -2.59947701E-04
   24.2800007      -3.12518998E-04
   24.3199997      -3.64924956E-04
   24.3600006      -4.16784867E-04
   24.3999996      -4.67701611E-04
   24.4400005      -5.17267326E-04
   24.4799995      -5.65069786E-04
   24.5200005      -6.10699353E-04
   24.5599995      -6.53756724E-04
   24.6000004      -6.93860929E-04
   24.6399994      -7.30657543E-04
   24.6800003      -7.63826829E-04
   24.7199993      -7.93091895E-04
   24.7600002      -8.18226312E-04
   24.7999992      -8.39060929E-04
   24.8400002      -8.55490216E-04
   24.8799992      -8.67477152E-04
   24.9200001      -8.75057303E-04
   24.9599991      -8.78341380E-04
   25.0000000      -8.77516402E-04
   25.0400009      -8.72845179E-04
   25.0799999      -8.64664209E-04
   25.1200008      -8.53380247E-04
   25.1599998      -8.39464949E-04
   25.2000008      -8.23448121E-04
   25.2399998      -8.05909454E-04
   25.2800007      -7.87469151E-04
   25.3199997      -7.68777390E-04
   25.3600006      -7.50502513E-04
   25.3999996      -7.33318913E-04
   25.4400005      -7.17894407E-04
   25.4799995      -7.04877020E-04
   25.5200005      -6.94882241E-04
   25.5599995      -6.88480504E-04
   25.6000004      -6.86184911E-04
   25.6399994      -6.88440225E-04
   25.6800003      -6.95612689E-04
   25.7199993      -7.07980944E-04
   25.7600002      -7.25728751E-04
   25.7999992      -7.48938939E-04
   25.8400002      -7.77589332E-04
   25.8799992      -8.11550533E-04
   25.9200001      -8.50584940E-04
   25.9599991      -8.94348370E-04
   26.0000000      -9.42393148E-04
   26.0400009      -9.94172762E-04
   26.0799999      -1.04904862E-03
   26.1200008      -1.10629748E-03
   26.1599998      -1.16512144E-03
   26.2000008      -1.22465810E-03
   26.2399998      -1.28399220E-03
   26.2800007      -1.34216750E-03
   26.3199997      -1.39820005E-03
   26.3600006      -1.45109126E-03
   26.3999996      -1.49984087E-03
   26.4400005      -1.54346006E-03
   26.4799995      -1.58098468E-03
   26.5200005      -1.61148678E-03
   26.5599995      -1.63408706E-03
   26.6000004      -1.64796505E-03
   26.6399994      -1.65236869E-03
   26.6800003      -1.64662348E-03
   26.7199993      -1.63013965E-03
   26.7600002      -1.60241849E-03
   26.7999992      -1.56305765E-03
   26.8400002      -1.51175447E-03
   26.8799992      -1.44830893E-03
   26.9200001      -1.37262454E-03
   26.9599991      -1.28470920E-03
   27.0000000      -1.18467386E-03
   27.0400009      -1.07273122E-03
   27.0799999      -9.49192734E-04
   27.1200008      -8.14465282E-04
   27.1599998      -6.69047295E-04
   27.2000008      -5.13524283E-04
   27.2399998      -3.48563539E-04
   27.2800007      -1.74909132E-04
   27.3199997       6.62381535E-06
   27.3600006       1.95154731E-04
   27.3999996       3.89743363E-04
   27.4400005       5.89395582E-04
   27.4799995       7.93068961E-04
   27.5200005       9.99678625E-04
   27.5599995       1.20810268E-03
   27.6000004       1.41718751E-03
   27.6399994       1.62575347E-03
   27.6800003       1.83259998E-03
   27.7199993       2.03651050E-03
   27.7600002       2.23625801E-03
   27.7999992       2.43061059E-03
   27.8400002       2.61833589E-03
   27.8799992       2.79820804E-03
   27.9200001       2.96901190E-03
   27.9599991       3.12955049E-03
   28.0000000       3.27865058E-03
   28.0400009       3.41516989E-03
   28.0799999       3.53800389E-03
   28.1200008       3.64609435E-03
   28.1599998       3.73843615E-03
   28.2000008       3.81408748E-03
   28.2399998       3.87217710E-03
   28.2800007       3.91191477E-03
   28.3199997       3.93260131E-03
   28.3600006       3.93363694E-03
   28.3999996       3.91453272E-03
   28.4400005       3.87491914E-03
   28.4799995       3.81455827E-03
   28.5200005       3.73335043E-03
   28.5599995       3.63134500E-03
   28.6000004       3.50874849E-03
   28.6399994       3.36593110E-03
   28.6800003       3.20343417E-03
   28.7199993       3.02197412E-03
   28.7600002       2.82244664E-03
   28.7999992       2.60592788E-03
   28.8400002       2.37367442E-03
   28.8799992       2.12712050E-03
   28.9200001       1.86787359E-03
   28.9599991       1.59770693E-03
   29.0000000       1.31855020E-03
   29.0400009       1.03247690E-03
   29.0799999       7.41689350E-04
   29.1200008       4.48501291E-04
   29.1599998       1.55317655E-04
   29.2000008      -1.35387847E-04
   29.2399998      -4.21097357E-04
   29.2800007      -6.99275639E-04
   29.3199997      -9.67398286E-04
   29.3600006      -1.22298161E-03
   29.3999996      -1.46361266E-03
   29.4400005      -1.68698118E-03
   29.4799995      -1.89090986E-03