  -4.80000019       0.00000000
  -4.76000023       0.00000000
  -4.71999979       0.00000000
  -4.67999983       0.00000000
  -4.63999987       0.00000000
  -4.59999990       0.00000000
  -4.55999994       0.00000000
  -4.51999998       0.00000000
  -4.48000002       0.00000000
  -4.44000006       1.14693774E-30
  -4.40000010       1.79118602E-29
  -4.36000013       1.42516517E-28
  -4.32000017       7.63444986E-28
  -4.28000021       3.05972818E-27
  -4.23999977       9.59945345E-27
  -4.19999981       2.36987113E-26
  -4.15999985       4.34709598E-26
  -4.11999989       4.22141287E-26
  -4.07999992      -7.68965772E-26
  -4.03999996      -5.60992418E-25
  -4.00000000      -1.91269148E-24
  -3.96000004      -4.96602297E-24
  -3.92000008      -1.08117379E-23
  -3.88000011      -2.03923321E-23
  -3.83999991      -3.36145559E-23
  -3.79999995      -4.80628905E-23
  -3.75999999      -5.79715010E-23
  -3.72000003      -5.50651544E-23
  -3.68000007      -3.40087813E-23
  -3.64000010      -5.89049695E-24
  -3.59999990      -2.22712599E-23
  -3.55999994      -2.08351708E-22
  -3.51999998      -7.95355515E-22
  -3.48000002      -2.12905910E-21
  -3.44000006      -4.61577970E-21
  -3.40000010      -8.55520838E-21
  -3.35999990      -1.38118887E-20
  -3.31999993      -1.93078899E-20
  -3.27999997      -2.23917388E-20
  -3.24000001      -1.82588213E-20
  -3.20000005       2.45303960E-22
  -3.16000009       4.19533567E-20
  -3.11999989       1.15270940E-19
  -3.07999992       2.24164731E-19
  -3.03999996       3.62146160E-19
  -3.00000000       5.04888402E-19
  -2.96000004       6.03204763E-19
  -2.92000008       5.79414583E-19
  -2.88000011       3.31281622E-19
  -2.83999991      -2.51803110E-19
  -2.79999995      -1.25658806E-18
  -2.75999999      -2.69673308E-18
  -2.72000003      -4.45088475E-18
  -2.68000007      -6.19977783E-18
  -2.64000010      -7.38259193E-18
  -2.59999990      -7.20027057E-18
  -2.55999994      -4.69676915E-18
  -2.51999998       1.05533636E-18
  -2.48000002       1.06542889E-17
  -2.44000006       2.39717785E-17
  -2.40000010       3.97173782E-17
  -2.35999990       5.50699860E-17
  -2.31999993       6.55236630E-17
  -2.27999997       6.51180732E-17
  -2.24000001       4.72100298E-17
  -2.20000005       5.87714969E-18
  -2.16000009      -6.20816057E-17
  -2.11999989      -1.54766048E-16
  -2.07999992      -2.62848670E-16
  -2.03999996      -3.67943807E-16
  -2.00000000      -4.42451869E-16
  -1.96000004      -4.51659567E-16
  -1.91999996      -3.58674937E-16
  -1.88000000      -1.32330607E-16
  -1.84000003       2.42493568E-16
  -1.79999995       7.53527498E-16
  -1.75999999       1.35102581E-15
  -1.72000003       1.94191176E-15
  -1.67999995       2.39139403E-15
  -1.63999999       2.53489496E-15
  -1.60000002       2.20189285E-15
  -1.55999994       1.25116507E-15
  -1.51999998      -3.85912128E-16
  -1.48000002      -2.66047988E-15
  -1.44000006      -5.36906826E-15
  -1.39999998      -8.13532625E-15
  -1.36000001      -1.04216723E-14
  -1.32000005      -1.15793673E-14
  -1.27999997      -1.09402005E-14
  -1.24000001      -7.94517752E-15
  -1.20000005      -2.29610473E-15
  -1.15999997       5.89353793E-15
  -1.12000000       1.59796154E-14
  -1.08000004       2.67347772E-14
  -1.03999996       3.63940106E-14
  -1.00000000       4.28196229E-14
 -0.959999979       4.37893028E-14
 -0.920000017       3.73870687E-14
 -0.879999995       2.24508505E-14
 -0.839999974      -9.93839533E-16
 -0.800000012      -3.14010157E-14
 -0.759999990      -6.55626202E-14
 -0.720000029      -9.87348292E-14
 -0.680000007      -1.25077113E-13
 -0.639999986      -1.38399627E-13
 -0.600000024      -1.33155206E-13
 -0.560000002      -1.05550985E-13
 -0.519999981      -5.46040975E-14
 -0.479999989       1.70626639E-14
 -0.439999998       1.02883759E-13
 -0.400000006       1.92627571E-13
 -0.360000014       2.73359189E-13
 -0.319999993       3.31049424E-13
 -0.280000001       3.52664133E-13
 -0.239999995       3.28449860E-13
 -0.200000003       2.54046025E-13
 -0.159999996       1.32023759E-13
 -0.119999997      -2.75080912E-14
  -7.99999982E-02  -2.07474540E-13
  -3.99999991E-02  -3.85648870E-13
   2.77555756E-16  -5.37554701E-13
   3.99999991E-02  -6.40078106E-13
   7.99999982E-02  -6.75229892E-13
  0.119999997      -6.33396059E-13
  0.159999996      -5.15430634E-13
  0.200000003      -3.33087860E-13
  0.239999995      -1.07549637E-13
  0.280000001       1.33847062E-13
  0.319999993       3.62212078E-13
  0.360000014       5.52237401E-13
  0.400000006       6.86867121E-13
  0.439999998       7.60479462E-13
  0.479999989       7.79740096E-13
  0.519999981       7.61675824E-13
  0.560000002       7.29053862E-13
  0.600000024       7.03753082E-13
  0.639999986       6.99359949E-13
  0.680000007       7.14593695E-13
  0.720000029       7.29259860E-13
  0.759999990       7.04180366E-13
  0.800000012       5.85958799E-13
  0.839999974       3.16569796E-13
  0.879999995      -1.53250961E-13
  0.920000017      -8.48815864E-13
  0.959999979      -1.75723726E-12
   1.00000000      -2.81719266E-12
   1.03999996      -3.91556362E-12
   1.08000004      -4.89302479E-12
   1.12000000      -5.55936547E-12
   1.15999997      -5.71769498E-12
   1.20000005      -5.19498940E-12
   1.24000001      -3.87493032E-12
   1.27999997      -1.72803026E-12
   1.32000005       1.16621372E-12
   1.36000001       4.60977784E-12
   1.39999998       8.29237026E-12
   1.44000006       1.18145840E-11
   1.48000002       1.47265828E-11
   1.51999998       1.65785215E-11
   1.55999994       1.69769077E-11
   1.60000002       1.56398280E-11
   1.63999999       1.24437561E-11
   1.67999995       7.45540608E-12
   1.72000003       9.43839082E-13
   1.75999999      -6.62955801E-12
   1.79999995      -1.46429223E-11
   1.84000003      -2.23646709E-11
   1.88000000      -2.90181768E-11
   1.91999996      -3.38539544E-11
   1.96000004      -3.62224868E-11
   2.00000000      -3.56410110E-11
   2.03999996      -3.18485759E-11
   2.07999992      -2.48448553E-11
   2.11999989      -1.49096204E-11
   2.16000009      -2.60089042E-12
   2.20000005       1.12689970E-11
   2.24000001       2.56793319E-11
   2.27999997       3.94678665E-11
   2.31999993       5.14162428E-11
   2.35999990       6.03499403E-11
   2.40000010       6.52465998E-11
   2.44000006       6.53441884E-11
   2.48000002       6.02382103E-11
   2.51999998       4.99555709E-11
   2.55999994       3.49926824E-11
   2.59999990       1.63070044E-11
   2.64000010      -4.74443228E-12
   2.68000007      -2.65198349E-11
   2.72000003      -4.72530660E-11
   2.75999999      -6.52435397E-11
   2.79999995      -7.90521051E-11
   2.83999991      -8.76743539E-11
   2.88000011      -9.06623041E-11
   2.92000008      -8.81696036E-11
   2.96000004      -8.09050396E-11
   3.00000000      -6.99929906E-11
   3.03999996      -5.67560512E-11
   3.07999992      -4.24515978E-11
   3.11999989      -2.80068815E-11
   3.16000009      -1.38045061E-11
   3.20000005       4.31828482E-13
   3.24000001       1.56126275E-11
   3.27999997       3.31008623E-11
   3.31999993       5.43821724E-11
   3.35999990       8.06259365E-11
   3.40000010       1.12203719E-10
   3.44000006       1.48251161E-10
   3.48000002       1.86367088E-10
   3.51999998       2.22534463E-10
   3.55999994       2.51324017E-10
   3.59999990       2.66401068E-10
   3.64000010       2.61308308E-10
   3.68000007       2.30445302E-10
   3.72000003       1.70121472E-10
   3.75999999       7.95273153E-11
   3.79999995      -3.85396853E-11
   3.83999991      -1.77342974E-10
   3.88000011      -3.26375232E-10
   3.92000008      -4.72071271E-10
   3.96000004      -5.99032324E-10
   4.00000000      -6.91650681E-10
   4.03999996      -7.35951966E-10
   4.07999992      -7.21425031E-10
   4.11999989      -6.42591980E-10
   4.15999985      -5.00086750E-10
   4.19999981      -3.01065700E-10
   4.23999977      -5.88547197E-11
   4.28000021       2.08159615E-10
   4.32000017       4.78284135E-10
   4.36000013       7.28711314E-10
   4.40000010       9.37877442E-10
   4.44000006       1.08768383E-09
   4.48000002       1.16529342E-09
   4.51999998       1.16427190E-09
   4.55999994       1.08493692E-09
   4.59999990       9.33892630E-10
   4.63999987       7.22847282E-10
   4.67999983       4.66918226E-10
   4.71999979       1.82702214E-10
   4.76000023      -1.13579056E-10
   4.80000019      -4.07567646E-10
   4.84000015      -6.87667479E-10
   4.88000011      -9.45233003E-10
   4.92000008      -1.17405574E-09
   4.96000004      -1.36928513E-09
   5.00000000      -1.52603385E-09
   5.03999996      -1.63798308E-09
   5.07999992      -1.69632952E-09
   5.11999989      -1.68937764E-09
   5.15999985      -1.60298552E-09
   5.19999981      -1.42194367E-09
   5.23999977      -1.13220555E-09
   5.28000021      -7.23731963E-10
   5.32000017      -1.93579444E-10
   5.36000013       4.51224974E-10
   5.40000010       1.19150323E-09
   5.44000006       1.99487715E-09
   5.48000002       2.81617729E-09
   5.51999998       3.59947050E-09
   5.55999994       4.28167546E-09
   5.59999990       4.79752726E-09
   5.63999987       5.08547338E-09
   5.67999983       5.09394305E-09
   5.71999979       4.78736695E-09
   5.76000023       4.15131707E-09
   5.80000019       3.19622329E-09
   5.84000015       1.95925254E-09
   5.88000011       5.04134734E-10
   5.92000008      -1.08108478E-09
   5.96000004      -2.68817524E-09
   6.00000000      -4.19437596E-09
   6.03999996      -5.46909762E-09
   6.07999992      -6.38112496E-09
   6.11999989      -6.80579060E-09
   6.15999985      -6.63163080E-09
   6.19999981      -5.76617998E-09
   6.23999977      -4.14066115E-09
   6.28000021      -1.71350245E-09
   6.32000017       1.52726609E-09
   6.36000013       5.56255664E-09
   6.40000010       1.03414610E-08
   6.44000006       1.57808557E-08
   6.48000002       2.17650609E-08
   6.51999998       2.81452106E-08
   6.55999994       3.47380080E-08
   6.59999990       4.13236023E-08
   6.63999987       4.76422493E-08
   6.67999983       5.33894173E-08
   6.71999979       5.82091033E-08
   6.76000023       6.16848652E-08
   6.80000019       6.33283292E-08
   6.84000015       6.25645669E-08
   6.88000011       5.87140114E-08
   6.92000008       5.09702041E-08
   6.96000004       3.83730026E-08
   7.00000000       1.97763317E-08
   7.03999996      -6.18985307E-09
   7.07999992      -4.11647285E-08
   7.11999989      -8.71096191E-08
   7.15999985      -1.46370326E-07
   7.19999981      -2.21749914E-07
   7.23999977      -3.16594338E-07
   7.28000021      -4.34892399E-07
   7.32000017      -5.81393408E-07
   7.36000013      -7.61744047E-07
   7.40000010      -9.82649681E-07
   7.44000006      -1.25206077E-06
   7.48000002      -1.57939110E-06
   7.51999998      -1.97576969E-06
   7.55999994      -2.45433193E-06
   7.59999990      -3.03055594E-06
   7.63999987      -3.72264549E-06
   7.67999983      -4.55196914E-06
   7.71999979      -5.54355938E-06
   7.76000023      -6.72667875E-06
   7.80000019      -8.13545466E-06
   7.84000015      -9.80960158E-06
   7.88000011      -1.17952231E-05
   7.92000008      -1.41457058E-05
   7.96000004      -1.69227224E-05
   8.00000000      -2.01973089E-05
   8.03999996      -2.40510890E-05
   8.07999992      -2.85775623E-05
   8.11999989      -3.38835307E-05
   8.15999985      -4.00906101E-05
   8.19999981      -4.73368236E-05
   8.23999977      -5.57783060E-05
   8.27999973      -6.55910553E-05
   8.31999969      -7.69727485E-05
   8.35999966      -9.01445674E-05
   8.39999962      -1.05353080E-04
   8.43999958      -1.22871963E-04
   8.47999954      -1.43003854E-04
   8.52000046      -1.66081911E-04
   8.56000042      -1.92471285E-04
   8.60000038      -2.22570452E-04
   8.64000034      -2.56812113E-04
   8.68000031      -2.95663864E-04
   8.72000027      -3.39628546E-04
   8.76000023      -3.89243854E-04
   8.80000019      -4.45081620E-04
   8.84000015      -5.07746241E-04
   8.88000011      -5.77872328E-04
   8.92000008      -6.56122051E-04
   8.96000004      -7.43180630E-04
   9.00000000      -8.39751796E-04
   9.03999996      -9.46551212E-04
   9.07999992      -1.06429937E-03
   9.11999989      -1.19371340E-03
   9.15999985      -1.33549713E-03
   9.19999981      -1.49032951E-03
   9.23999977      -1.65885338E-03
   9.27999973      -1.84166140E-03
   9.31999969      -2.03928049E-03
   9.35999966      -2.25215754E-03
   9.39999962      -2.48064147E-03
   9.43999958      -2.72496557E-03
   9.47999954      -2.98522832E-03
   9.52000046      -3.26137687E-03
   9.56000042      -3.55318421E-03
   9.60000038      -3.86023289E-03
   9.64000034      -4.18189587E-03
   9.68000031      -4.51731635E-03
   9.72000027      -4.86539351E-03
   9.76000023      -5.22476668E-03
   9.80000019      -5.59379952E-03
   9.84000015      -5.97057259E-03
   9.88000011      -6.35287305E-03
   9.92000008      -6.73818914E-03
   9.96000004      -7.12371292E-03
   10.0000000      -7.50633935E-03
   10.0400000      -7.88267702E-03
   10.0799999      -8.24905839E-03
   10.1199999      -8.60155933E-03
   10.1599998      -8.93602241E-03
   10.1999998      -9.24808625E-03
   10.2399998      -9.53321625E-03
   10.2799997      -9.78674646E-03
   10.3199997      -1.00039262E-02
   10.3599997      -1.01799686E-02
   10.3999996      -1.03101032E-02
   10.4399996      -1.03896381E-02
   10.4799995      -1.04140174E-02
   10.5200005      -1.03788953E-02
   10.5600004      -1.02801919E-02
   10.6000004      -1.01141734E-02
   10.6400003      -9.87750944E-03
   10.6800003      -9.56734829E-03
   10.7200003      -9.18137934E-03
   10.7600002      -8.71789549E-03
   10.8000002      -8.17585085E-03
   10.8400002      -7.55491434E-03
   10.8800001      -6.85551250E-03
   10.9200001      -6.07886817E-03
   10.9600000      -5.22703025E-03
   11.0000000      -4.30289377E-03
   11.0400000      -3.31020448E-03
   11.0799999      -2.25356244E-03
   11.1199999      -1.13840296E-03
   11.1599998       2.90259923E-05
   11.1999998       1.24170294E-03
   11.2399998       2.49188184E-03
   11.2799997       3.77115491E-03
   11.3199997       5.07052382E-03
   11.3599997       6.38048211E-03
   11.3999996       7.69111142E-03
   11.4399996       8.99217743E-03
   11.4799995       1.02732405E-02
   11.5200005       1.15237730E-02
   11.5600004       1.27332713E-02
   11.6000004       1.38913821E-02
   11.6400003       1.49880219E-02
   11.6800003       1.60135012E-02
   11.7200003       1.69586390E-02
   11.7600002       1.78148765E-02
   11.8000002       1.85743868E-02
   11.8400002       1.92301776E-02
   11.8800001       1.97761729E-02
   11.9200001       2.02073026E-02
   11.9600000       2.05195658E-02
   12.0000000       2.07100753E-02
   12.0400000       2.07771137E-02
   12.0799999       2.07201447E-02
   12.1199999       2.05398314E-02
   12.1599998       2.02380233E-02
   12.1999998       1.98177416E-02
   12.2399998       1.92831401E-02
   12.2799997       1.86394565E-02
   12.3199997       1.78929362E-02
   12.3599997       1.70507748E-02
   12.3999996       1.61210112E-02
   12.4399996       1.51124354E-02
   12.4799995       1.40344808E-02
   12.5200005       1.28971050E-02
   12.5600004       1.17106726E-02
   12.6000004       1.04858270E-02
   12.6400003       9.23336577E-03
   12.6800003       7.96411280E-03
   12.7200003       6.68879924E-03
   12.7600002       5.41793089E-03
   12.8000002       4.16168245E-03
   12.8400002       2.92978226E-03
   12.8800001       1.73141272E-03
   12.9200001       5.75118116E-04
   12.9600000      -5.31276979E-04
   13.0000000      -1.58073672E-03
   13.0400000      -2.56707333E-03
   13.0799999      -3.48499068E-03
   13.1199999      -4.33011772E-03
   13.1599998      -5.09902416E-03
   13.1999998      -5.78923058E-03
   13.2399998      -6.39919797E-03
   13.2799997      -6.92830933E-03
   13.3199997      -7.37683615E-03
   13.3599997      -7.74589973E-03
   13.3999996      -8.03741813E-03
   13.4399996      -8.25404190E-03
   13.4799995      -8.39908887E-03
   13.5200005      -8.47646408E-03
   13.5600004      -8.49058758E-03
   13.6000004      -8.44630226E-03
   13.6400003      -8.34879093E-03
   13.6800003      -8.20348598E-03
   13.7200003      -8.01598839E-03
   13.7600002      -7.79197551E-03
   13.8000002      -7.53712235E-03
   13.8400002      -7.25702196E-03
   13.8800001      -6.95711328E-03
   13.9200001      -6.64261403E-03
   13.9600000      -6.31845789E-03
   14.0000000      -5.98924607E-03
   14.0400000      -5.65919885E-03
   14.0799999      -5.33212256E-03
   14.1199999      -5.01138158E-03
   14.1599998      -4.69987746E-03
   14.1999998      -4.40004421E-03
   14.2399998      -4.11384180E-03
   14.2799997      -3.84276779E-03
   14.3199997      -3.58786923E-03
   14.3599997      -3.34976590E-03
   14.3999996      -3.12867784E-03
   14.4399996      -2.92445882E-03
   14.4799995      -2.73663574E-03
   14.5200005      -2.56444956E-03
   14.5600004      -2.40690145E-03
   14.6000004      -2.26279767E-03
   14.6400003      -2.13079760E-03
   14.6800003      -2.00946070E-03
   14.7200003      -1.89729314E-03
   14.7600002      -1.79279142E-03
   14.8000002      -1.69448415E-03
   14.8400002      -1.60096947E-03
   14.8800001      -1.51094934E-03
   14.9200001      -1.42325833E-03
   14.9600000      -1.33688876E-03
   15.0000000      -1.25100859E-03
   15.0400000      -1.16497569E-03
   15.0799999      -1.07834477E-03
   15.1199999      -9.90870758E-04
   15.1599998      -9.02504486E-04
   15.1999998      -8.13385937E-04
   15.2399998      -7.23830715E-04
   15.2799997      -6.34313037E-04
   15.3199997      -5.45445422E-04
   15.3599997      -4.57954739E-04
   15.3999996      -3.72656126E-04
   15.4399996      -2.90425349E-04
   15.4799995      -2.12169703E-04
   15.5200005      -1.38799092E-04
   15.5600004      -7.11972534E-05
   15.6000004      -1.01940432E-05
   15.6400003       4.34605172E-05
   15.6800003       8.91200616E-05
   15.7200003       1.26262894E-04
   15.7600002       1.54509777E-04
   15.8000002       1.73638298E-04
   15.8400002       1.83593278E-04
   15.8800001       1.84493212E-04
   15.9200001       1.76632646E-04
   15.9600000       1.60480238E-04
   16.0000000       1.36672868E-04
   16.0400009       1.06005813E-04
   16.0799999       6.94191403E-05
   16.1200008       2.79807300E-05
   16.1599998      -1.71336469E-05
   16.2000008      -6.46628687E-05
   16.2399998      -1.13285183E-04
   16.2800007      -1.61644377E-04
   16.3199997      -2.08377081E-04
   16.3600006      -2.52140540E-04
   16.3999996      -2.91640346E-04
   16.4400005      -3.25657427E-04
   16.4799995      -3.53074167E-04
   16.5200005      -3.72898619E-04
   16.5599995      -3.84286745E-04
   16.6000004      -3.86562053E-04
   16.6399994      -3.79232661E-04
   16.6800003      -3.62004328E-04
   16.7199993      -3.34790879E-04
   16.7600002      -2.97720340E-04
   16.7999992      -2.51137186E-04
   16.8400002      -1.95600864E-04
   16.8799992      -1.31880006E-04
   16.9200001      -6.09429590E-05
   16.9599991       1.60558557E-05
   17.0000000       9.77930104E-05
   17.0400009       1.82796764E-04
   17.0799999       2.69470824E-04
   17.1200008       3.56120785E-04
   17.1599998       4.40983218E-04
   17.2000008       5.22256305E-04
   17.2399998       5.98132436E-04
   17.2800007       6.66831213E-04
   17.3199997       7.26633181E-04
   17.3600006       7.75913591E-04
   17.3999996       8.13174876E-04
   17.4400005       8.37078376E-04
   17.4799995       8.46474373E-04
   17.5200005       8.40429042E-04
   17.5599995       8.18249304E-04
   17.6000004       7.79504015E-04
   17.6399994       7.24041020E-04
   17.6800003       6.52000657E-04
   17.7199993       5.63823909E-04
   17.7600002       4.60256240E-04
   17.7999992       3.42345971E-04
   17.8400002       2.11437422E-04
   17.8799992       6.91590321E-05
   17.9200001      -8.25944080E-05
   17.9599991      -2.41684116E-04
   18.0000000      -4.05755185E-04
   18.0400009      -5.72269142E-04
   18.0799999      -7.38540490E-04
   18.1200008      -9.01777879E-04
   18.1599998      -1.05912786E-03
   18.2000008      -1.20772235E-03
   18.2399998      -1.34472700E-03
   18.2800007      -1.46739255E-03
   18.3199997      -1.57310499E-03
   18.3600006      -1.65943650E-03
   18.3999996      -1.72419508E-03
   18.4400005      -1.76547177E-03
   18.4799995      -1.78168551E-03
   18.5200005      -1.77162373E-03
   18.5599995      -1.73447840E-03
   18.6000004      -1.66987674E-03
   18.6399994      -1.57790619E-03
   18.6800003      -1.45913195E-03
   18.7199993      -1.31460803E-03
   18.7600002      -1.14588009E-03
   18.7999992      -9.54980555E-04
   18.8400002      -7.44415331E-04
   18.8799992      -5.17142878E-04
   18.9200001      -2.76544830E-04
   18.9599991      -2.63885740E-05
   19.0000000       2.29217112E-04
   19.0400009       4.85874101E-04
   19.0799999       7.38952775E-04
   19.1200008       9.83655802E-04
   19.1599998       1.21508678E-03
   19.2000008       1.42832194E-03
   19.2399998       1.61848590E-03
   19.2800007       1.78082718E-03
   19.3199997       1.91079569E-03
   19.3600006       2.00411910E-03
   19.3999996       2.05687573E-03
   19.4400005       2.06556614E-03
   19.4799995       2.02717911E-03
   19.5200005       1.93925260E-03
   19.5599995       1.79992744E-03
   19.6000004       1.60799432E-03
   19.6399994       1.36293226E-03
   19.6800003       1.06493756E-03
   19.7199993       7.14943570E-04
   19.7600002       3.14629637E-04
   19.7999992      -1.33579175E-04
   19.8400002      -6.26523688E-04
   19.8799992      -1.16033317E-03
   19.9200001      -1.73045637E-03
   19.9599991      -2.33170507E-03
   20.0000000      -2.95830518E-03
   20.0400009      -3.60395666E-03
   20.0799999      -4.26190440E-03
   20.1200008      -4.92501026E-03
   20.1599998      -5.58583764E-03
   20.2000008      -6.23673806E-03
   20.2399998      -6.86993869E-03
   20.2800007      -7.47763831E-03
   20.3199997      -8.05209950E-03
   20.3600006      -8.58574267E-03
   20.3999996      -9.07124206E-03
   20.4400005      -9.50160995E-03
   20.4799995      -9.87028424E-03
   20.5200005      -1.01712169E-02
   20.5599995      -1.03989393E-02
   20.6000004      -1.05486354E-02
   20.6399994      -1.06162047E-02
   20.6800003      -1.05983084E-02
   20.7199993      -1.04924161E-02
   20.7600002      -1.02968374E-02
   20.7999992      -1.00107500E-02
   20.8400002      -9.63420514E-03
   20.8799992      -9.16813221E-03
   20.9200001      -8.61433707E-03
   20.9599991      -7.97547586E-03
   21.0000000      -7.25503359E-03
   21.0400009      -6.45728502E-03
   21.0799999      -5.58724999E-03
   21.1200008      -4.65064216E-03
   21.1599998      -3.65380570E-03
   21.2000008      -2.60365219E-03
   21.2399998      -1.50758622E-03
   21.2800007      -3.73431045E-04
   21.3199997       7.90651655E-04
   21.3600006       1.97624438E-03
   21.3999996       3.17475735E-03
   21.4400005       4.37751180E-03
   21.4799995       5.57582406E-03
   21.5200005       6.76108850E-03
   21.5599995       7.92485662E-03
   21.6000004       9.05891228E-03
   21.6399994       1.01553472E-02
   21.6800003       1.12066269E-02
   21.7199993       1.22056575E-02
   21.7600002       1.31458361E-02
   21.7999992       1.40211089E-02
   21.8400002       1.48260072E-02
   21.8799992       1.55556938E-02
   21.9200001       1.62059851E-02
   21.9599991       1.67733748E-02
   22.0000000       1.72550604E-02
   22.0400009       1.76489316E-02
   22.0799999       1.79535877E-02
   22.1200008       1.81683283E-02
   22.1599998       1.82931311E-02
   22.2000008       1.83286518E-02
   22.2399998       1.82761811E-02
   22.2800007       1.81376263E-02
   22.3199997       1.79154724E-02
   22.3600006       1.76127423E-02
   22.3999996       1.72329582E-02
   22.4400005       1.67800933E-02
   22.4799995       1.62585136E-02
   22.5200005       1.56729482E-02
   22.5599995       1.50284152E-02
   22.6000004       1.43301832E-02
   22.6399994       1.35837151E-02
   22.6800003       1.27946129E-02
   22.7199993       1.19685680E-02
   22.7600002       1.11113153E-02
   22.7999992       1.02285789E-02
   22.8400002       9.32603329E-03
   22.8799992       8.40925518E-03
   22.9200001       7.48368865E-03
   22.9599991       6.55460777E-03
   23.0000000       5.62708499E-03
   23.0400009       4.70596272E-03
   23.0799999       3.79583053E-03
   23.1200008       2.90100137E-03
   23.1599998       2.02549901E-03
   23.2000008       1.17304258E-03
   23.2399998       3.47039226E-04
   23.2800007      -4.49422834E-04
   23.3199997      -1.21357525E-03
   23.3600006      -1.94297044E-03
   23.3999996      -2.63547688E-03
   23.4400005      -3.28927441E-03
   23.4799995      -3.90284625E-03
   23.5200005      -4.47496958E-03
   23.5599995      -5.00470493E-03
   23.6000004      -5.49138431E-03
   23.6399994      -5.93459839E-03
   23.6800003      -6.33418327E-03
   23.7199993      -6.69020787E-03
   23.7600002      -7.00296042E-03
   23.7999992      -7.27293314E-03
   23.8400002      -7.50081241E-03
   23.8799992      -7.68746529E-03
   23.9200001      -7.83392601E-03
   23.9599991      -7.94138759E-03
   24.0000000      -8.01118650E-03
   24.0400009      -8.04479513E-03
   24.0799999      -8.04380979E-03
   24.1200008      -8.00994318E-03
   24.1599998      -7.94501044E-03
   24.2000008      -7.85092078E-03
   24.2399998      -7.72966957E-03
   24.2800007      -7.58332480E-03
   24.3199997      -7.41401827E-03
   24.3600006      -7.22393300E-03
   24.3999996      -7.01529300E-03
   24.4400005      -6.79034973E-03
   24.4799995      -6.55137142E-03
   24.5200005      -6.30062539E-03
   24.5599995      -6.04036869E-03
   24.6000004      -5.77283045E-03
   24.6399994      -5.50019834E-03
   24.6800003      -5.22459950E-03
   24.7199993      -4.94809123E-03
   24.7600002      -4.67263814E-03
   24.7999992      -4.40010242E-03
   24.8400002      -4.13222471E-03
   24.8799992      -3.87061317E-03
   24.9200001      -3.61672719E-03
   24.9599991      -3.37186852E-03
   25.0000000      -3.13716987E-03
   25.0400009      -2.91358563E-03
   25.0799999      -2.70188693E-03
   25.1200008      -2.50265677E-03
   25.1599998      -2.31628702E-03
   25.2000008      -2.14298256E-03
   25.2399998      -1.98276085E-03
   25.2800007      -1.83546031E-03
   25.3199997      -1.70074799E-03
   25.3600006      -1.57813111E-03
   25.3999996      -1.46697019E-03
   25.4400005      -1.36649562E-03
   25.4799995      -1.27582520E-03
   25.5200005      -1.19398441E-03
   25.5599995      -1.11992715E-03
   25.6000004      -1.05255935E-03
   25.6399994      -9.90760745E-04
   25.6800003      -9.33409552E-04
   25.7199993      -8.79405590E-04
   25.7600002      -8.27692798E-04
   25.7999992      -7.77281472E-04
   25.8400002      -7.27268693E-04
   25.8799992      -6.76856085E-04
   25.9200001      -6.25366694E-04
   25.9599991      -5.72258548E-04
   26.0000000      -5.17134729E-04
   26.0400009      -4.59751667E-04
   26.0799999      -4.00022866E-04
   26.1200008      -3.38019861E-04
   26.1599998      -2.73969345E-04
   26.2000008      -2.08247031E-04
   26.2399998      -1.41367753E-04
   26.2800007      -7.39727475E-05
   26.3199997      -6.81357733E-06
   26.3600006       5.92665638E-05
   26.3999996       1.23353821E-04
   26.4400005       1.84486678E-04
   26.4799995       2.41680289E-04
   26.5200005       2.93951598E-04
   26.5599995       3.40345141E-04
   26.6000004       3.79958132E-04
   26.6399994       4.11965535E-04
   26.6800003       4.35642840E-04
   26.7199993       4.50387684E-04
   26.7600002       4.55739093E-04
   26.7999992       4.51393687E-04
   26.8400002       4.37218871E-04
   26.8799992       4.13262751E-04
   26.9200001       3.79759847E-04
   26.9599991       3.37133592E-04
   27.0000000       2.85994262E-04
   27.0400009       2.27132929E-04
   27.0799999       1.61511853E-04
   27.1200008       9.02505490E-05
   27.1599998       1.46086477E-05
   27.2000008      -6.40347716E-05
   27.2399998      -1.44204620E-04
   27.2800007      -2.24355594E-04
   27.3199997      -3.02900007E-04
   27.3600006      -3.78236902E-04
   27.3999996      -4.48781793E-04
   27.4400005      -5.12996863E-04
   27.4799995      -5.69420226E-04
   27.5200005      -6.16694917E-04
   27.5599995      -6.53595140E-04
   27.6000004      -6.79051562E-04
   27.6399994      -6.92173198E-04
   27.6800003      -6.92266738E-04
   27.7199993      -6.78851851E-04
   27.7600002      -6.51673472E-04
   27.7999992      -6.10709714E-04
   27.8400002      -5.56175539E-04
   27.8799992      -4.88522579E-04
   27.9200001      -4.08434251E-04
   27.9599991      -3.16817168E-04
   28.0000000      -2.14787884E-04
   28.0400009      -1.03656566E-04
   28.0799999       1.50934902E-05
   28.1200008       1.39829048E-04
   28.1599998       2.68792966E-04
   28.2000008       4.00132500E-04
   28.2399998       5.31929196E-04
   28.2800007       6.62229839E-04
   28.3199997       7.89078185E-04
   28.3600006       9.10546863E-04
   28.3999996       1.02476787E-03
   28.4400005       1.12996344E-03
   28.4799995       1.22447475E-03
   28.5200005       1.30678748E-03
   28.5599995       1.37555716E-03
   28.6000004       1.42962998E-03
   28.6399994       1.46806077E-03
   28.6800003       1.49012776E-03
   28.7199993       1.49534410E-03
   28.7600002       1.48346426E-03
   28.7999992       1.45448698E-03
   28.8400002       1.40865473E-03
   28.8799992       1.34644809E-03
   28.9200001       1.26857660E-03
   28.9599991       1.17596611E-03
   29.0000000       1.06974191E-03
   29.0400009       9.51208931E-04
   29.0799999       8.21828726E-04
   29.1200008       6.83194143E-04
   29.1599998       5.37001353E-04
   29.2000008       3.85020598E-04
   29.2399998       2.29065190E-04
   29.2800007       7.09599044E-05
   29.3199997      -8.74908656E-05
   29.3600006      -2.44534982E-04
   29.3999996      -3.98503413E-04
   29.4400005      -5.47840085E-04
   29.4799995      -6.91129651E-04