 -0.12000000000000000          0.0000000000000000
 -0.11889999999999999          0.0000000000000000
 -0.11780000000000000          0.0000000000000000
 -0.11670000000000000          0.0000000000000000
 -0.11559999999999999          0.0000000000000000
 -0.11449999999999999          0.0000000000000000
 -0.11340000000000000          0.0000000000000000
 -0.11230000000000000          0.0000000000000000
 -0.11119999999999999          0.0000000000000000
 -0.11009999999999999          0.0000000000000000
 -0.10900000000000000          0.0000000000000000
 -0.10790000000000000          0.0000000000000000
 -0.10679999999999999          0.0000000000000000
 -0.10569999999999999          0.0000000000000000
 -0.10460000000000000          0.0000000000000000
 -0.10349999999999999          3.6832967324973815E-207
 -0.10239999999999999          7.5901951901415752E-182
 -0.10130000000000000         -1.2375186148749345E-155
 -0.10020000000000000         -2.9059880061430592E-132
  -9.9099999999999994E-002     5.5023059993079163E-106
  -9.7999999999999990E-002     2.0351044282160527E-081
  -9.6899999999999986E-002     2.1197726575358489E-057
  -9.5799999999999996E-002     4.6833206630240276E-056
  -9.4699999999999993E-002     4.8217998663403226E-055
  -9.3599999999999989E-002     2.9617575015461685E-054
  -9.2499999999999999E-002     1.1101411100179714E-053
  -9.1399999999999995E-002     1.8258521133880807E-053
  -9.0299999999999991E-002    -5.6581723524683467E-053
  -8.9200000000000002E-002    -4.9451811447028364E-052
  -8.8099999999999984E-002    -1.6003221311062019E-051
  -8.6999999999999994E-002    -1.8489097907289557E-051
  -8.5899999999999990E-002     7.2064273163003225E-051
  -8.4799999999999986E-002     4.3506773648253382E-050
  -8.3699999999999997E-002     1.0466664771679090E-049
  -8.2599999999999993E-002     5.2943360471244974E-050
  -8.1499999999999989E-002    -5.4946386614863300E-049
  -8.0399999999999999E-002    -2.2201939193132370E-048
  -7.9299999999999995E-002    -3.8913582803775494E-048
  -7.8199999999999992E-002     7.8731885751351853E-049
  -7.7100000000000002E-002     2.5071505414395004E-047
  -7.5999999999999984E-002     7.4109844202825897E-047
  -7.4899999999999994E-002     9.3733623854134745E-047
  -7.3799999999999991E-002    -9.9473509133052536E-047
  -7.2699999999999987E-002    -7.6718337655731764E-046
  -7.1599999999999997E-002    -1.7829358946087768E-045
  -7.0499999999999993E-002    -1.5885094036954753E-045
  -6.9399999999999989E-002     3.5799712825241278E-045
  -6.8300000000000000E-002     1.7298837919731669E-044
  -6.7199999999999996E-002     3.3353071379911002E-044
  -6.6099999999999992E-002     2.0117826751393384E-044
  -6.5000000000000002E-002    -8.2153177481400331E-044
  -6.3899999999999985E-002    -3.0752986585575980E-043
  -6.2799999999999995E-002    -5.1477977876669177E-043
  -6.1699999999999991E-002    -2.0345423704087762E-043
  -6.0599999999999994E-002     1.4081316083798694E-042
  -5.9499999999999990E-002     4.5228790753081853E-042
  -5.8399999999999994E-002     6.8637118630853630E-042
  -5.7299999999999990E-002     1.8713199630550720E-042
  -5.6199999999999986E-002    -1.9323500853526365E-041
  -5.5099999999999996E-002    -5.6927840932535482E-041
  -5.3999999999999992E-002    -8.1755149646856518E-041
  -5.2899999999999989E-002    -1.9667810637266400E-041
  -5.1799999999999985E-002     2.2025342335083212E-040
  -5.0699999999999995E-002     6.2741888191621653E-040
  -4.9599999999999991E-002     8.8844025554243733E-040
  -4.8499999999999988E-002     2.6077143821639616E-040
  -4.7399999999999998E-002    -2.1229371743937260E-039
  -4.6299999999999994E-002    -6.1401949453084435E-039
  -4.5199999999999990E-002    -8.8928726362403852E-039
  -4.4099999999999986E-002    -3.6758103111364891E-039
  -4.2999999999999997E-002     1.7333499697917724E-038
  -4.1899999999999993E-002     5.3706524732341586E-038
  -4.0799999999999989E-002     8.2055880423883595E-038
  -3.9699999999999985E-002     4.7289085494206990E-038
  -3.8599999999999995E-002    -1.1744959175346455E-037
  -3.7499999999999992E-002    -4.1977462023732876E-037
  -3.6399999999999988E-002    -6.9483655522539770E-037
  -3.5299999999999984E-002    -5.2967930001552056E-037
  -3.4199999999999994E-002     6.1349825585359431E-037
  -3.3099999999999991E-002     2.9104086370861876E-036
  -3.1999999999999987E-002     5.3602788651007228E-036
  -3.0899999999999997E-002     5.1477520113519363E-036
  -2.9799999999999993E-002    -1.7556401515836285E-036
  -2.8699999999999989E-002    -1.7581272399030682E-035
  -2.7599999999999986E-002    -3.7318892768773428E-035
  -2.6499999999999996E-002    -4.3662130065552686E-035
  -2.5399999999999992E-002    -8.8298015058319250E-036
  -2.4299999999999988E-002     8.8865894702638693E-035
  -2.3199999999999985E-002     2.3147814149228299E-034
  -2.2099999999999995E-002     3.2466908237756732E-034
  -2.0999999999999991E-002     1.9406837359127233E-034
  -1.9899999999999987E-002    -3.3573874351377113E-034
  -1.8799999999999983E-002    -1.2530052384640630E-033
  -1.7699999999999994E-002    -2.1164057852018969E-033
  -1.6599999999999990E-002    -1.9428739983549323E-033
  -1.5499999999999986E-002     4.8711635485165593E-034
  -1.4399999999999996E-002     5.6835049621702618E-033
  -1.3299999999999992E-002     1.2008496272434861E-032
  -1.2199999999999989E-002     1.4576920888402430E-032
  -1.1099999999999985E-002     6.0116351767906774E-033
  -9.9999999999999950E-003    -1.9412705499283471E-032
  -8.8999999999999913E-003    -5.8164265105411132E-032
  -7.7999999999999875E-003    -8.9565682353644136E-032
  -6.6999999999999837E-003    -7.4805606202456526E-032
  -5.5999999999999939E-003     2.8138919100948930E-032
  -4.4999999999999901E-003     2.2917232945871636E-031
  -3.3999999999999864E-003     4.5959666183970693E-031
  -2.2999999999999826E-003     5.4430159500138180E-031
  -1.1999999999999927E-003     2.3863490705643436E-031
  -9.9999999999988987E-005    -6.3151320269569843E-031
   1.0000000000000148E-003    -1.9375711495941526E-030
   2.1000000000000185E-003    -3.0279558345631689E-030
   3.2000000000000084E-003    -2.7232435464269444E-030
   4.3000000000000121E-003     2.4122058142041557E-031
   5.4000000000000159E-003     6.2337396671433110E-030
   6.5000000000000058E-003     1.3474559357080465E-029
   7.6000000000000234E-003     1.7280945696480483E-029
   8.7000000000000133E-003     1.0934594339964993E-029
   9.8000000000000032E-003    -1.0914276145388085E-029
   1.0900000000000021E-002    -4.6550875843355216E-029
   1.2000000000000011E-002    -8.1530543244041553E-029
   1.3100000000000001E-002    -8.7573160001563041E-029
   1.4200000000000018E-002    -3.1256515290012415E-029
   1.5300000000000008E-002     1.0497634948944118E-028
   1.6400000000000026E-002     2.9416473193251187E-028
   1.7500000000000016E-002     4.4335457958145250E-028
   1.8600000000000005E-002     4.0216394857489661E-028
   1.9700000000000023E-002     2.2247073512397865E-029
   2.0800000000000013E-002    -7.3083972876296578E-028
   2.1900000000000003E-002    -1.6492458081297640E-027
   2.3000000000000020E-002    -2.2171678020911584E-027
   2.4100000000000010E-002    -1.7100741334146796E-027
   2.5200000000000000E-002     4.7035745282573214E-028
   2.6300000000000018E-002     4.2628620669630871E-027
   2.7400000000000008E-002     8.4233090763295738E-027
   2.8500000000000025E-002     1.0385414388012684E-026
   2.9600000000000015E-002     6.9188216235651872E-027
   3.0700000000000005E-002    -4.2157491800779377E-027
   3.1800000000000023E-002    -2.1934178809085419E-026
   3.2900000000000013E-002    -3.9850130754356218E-026
   3.4000000000000002E-002    -4.6251283395150107E-026
   3.5100000000000020E-002    -2.7575927403094323E-026
   3.6200000000000010E-002     2.4182813197931073E-026
   3.7300000000000028E-002     1.0195521474446418E-025
   3.8400000000000017E-002     1.7649239956812764E-025
   3.9500000000000007E-002     1.9803548144725522E-025
   4.0600000000000025E-002     1.1219839537831615E-025
   4.1700000000000015E-002    -1.0949426009313365E-025
   4.2800000000000005E-002    -4.3280345735924819E-025
   4.3900000000000022E-002    -7.3592513036778446E-025
   4.5000000000000012E-002    -8.2026493653429750E-025
   4.6100000000000002E-002    -4.7527611429880360E-025
   4.7200000000000020E-002     4.0413310889684878E-025
   4.8300000000000010E-002     1.6815271781848576E-024
   4.9400000000000027E-002     2.8918833644470814E-024
   5.0500000000000017E-002     3.2872939003478676E-024
   5.1600000000000007E-002     2.0767987890501351E-024
   5.2700000000000025E-002    -1.1504720989727017E-024
   5.3800000000000014E-002    -5.9412939440004390E-024
   5.4900000000000004E-002    -1.0667703902836370E-023
   5.6000000000000022E-002    -1.2672813199621064E-023
   5.7100000000000012E-002    -9.0768764064410478E-024
   5.8200000000000002E-002     1.7922143748640926E-024
   5.9300000000000019E-002     1.8742118826111077E-023
   6.0400000000000009E-002     3.6589546045013851E-023
   6.1500000000000027E-002     4.6479718703773522E-023
   6.2600000000000017E-002     3.8329516082904556E-023
   6.3700000000000007E-002     5.3425386305556183E-024
   6.4800000000000024E-002    -5.0563080002604269E-023
   6.5900000000000014E-002    -1.1468699861347564E-022
   6.7000000000000004E-002    -1.5966183464805335E-022
   6.8100000000000022E-002    -1.5198362217374387E-022
   6.9200000000000012E-002    -6.5168736162457740E-023
   7.0300000000000029E-002     1.0342134244833167E-022
   7.1400000000000019E-002     3.1837087428807169E-022
   7.2500000000000009E-002     5.0282765570705844E-022
   7.3600000000000027E-002     5.5307882945926022E-022
   7.4700000000000016E-002     3.7321232070083929E-022
   7.5800000000000006E-002    -7.6398765693647041E-023
   7.6900000000000024E-002    -7.3245073198584241E-022
   7.8000000000000014E-002    -1.4060701965293360E-021
   7.9100000000000004E-002    -1.8056969608153956E-021
   8.0200000000000021E-002    -1.6163824307115062E-021
   8.1300000000000011E-002    -6.2631280603085328E-022
   8.2400000000000029E-002     1.1332533937187660E-021
   8.3500000000000019E-002     3.2887159755453237E-021
   8.4600000000000009E-002     5.1250869119378801E-021
   8.5700000000000026E-002     5.7293093773405097E-021
   8.6800000000000016E-002     4.2763612937995112E-021
   8.7900000000000006E-002     4.0069085324289863E-022
   8.9000000000000024E-002    -5.4608786719129736E-021
   9.0100000000000013E-002    -1.1900603023234583E-020
   9.1200000000000003E-002    -1.6678125905728028E-020
   9.2300000000000021E-002    -1.7229624214064497E-020
   9.3400000000000011E-002    -1.1496153747096176E-020
   9.4500000000000028E-002     1.1151814480706001E-021
   9.5600000000000018E-002     1.8934670948138862E-020
   9.6700000000000008E-002     3.7736926303736827E-020
   9.7800000000000026E-002     5.1228274413299947E-020
   9.8900000000000016E-002     5.2418977367451898E-020
  0.10000000000000001          3.5728029699281654E-020
  0.10110000000000002         -6.1352114383365024E-022
  0.10220000000000001         -5.2523118741496667E-020
  0.10330000000000003         -1.0914913854862478E-019
  0.10440000000000002         -1.5373749877625620E-019
  0.10550000000000001         -1.6663647989066782E-019
  0.10660000000000003         -1.3029908512171504E-019
  0.10770000000000002         -3.5535024571179276E-020
  0.10880000000000001          1.1233973046653195E-019
  0.10990000000000003          2.8926278641060020E-019
  0.11100000000000002          4.5204688558878924E-019
  0.11210000000000001          5.4350077655674349E-019
  0.11320000000000002          5.0380723878881329E-019
  0.11430000000000001          2.8746115299682661E-019
  0.11540000000000003         -1.1681926154283682E-019
  0.11650000000000002         -6.6778389152983638E-019
  0.11760000000000001         -1.2610722478143692E-018
  0.11870000000000003         -1.7329316983188010E-018
  0.11980000000000002         -1.8834622668602667E-018
  0.12090000000000001         -1.5210799418946497E-018
  0.12200000000000003         -5.2422603873156214E-019
  0.12310000000000001          1.0906514700138891E-018
  0.12420000000000003          3.1125831178855345E-018
  0.12530000000000002          5.1130968349184681E-018
  0.12640000000000001          6.4783433206432395E-018
  0.12750000000000003          6.5106785443761115E-018
  0.12860000000000002          4.5994682903804907E-018
  0.12970000000000001          4.4025706543875122E-019
  0.13080000000000003         -5.7415651369267224E-018
  0.13190000000000002         -1.3026078053637394E-017
  0.13300000000000001         -1.9765791055331055E-017
  0.13410000000000000         -2.3748918073663303E-017
  0.13520000000000004         -2.2594019494697764E-017
  0.13630000000000003         -1.4359735595333273E-017
  0.13740000000000002          1.7138010183455123E-018
  0.13850000000000001          2.4485776968192518E-017
  0.13960000000000000          5.0427434156010789E-017
  0.14070000000000005          7.3596687689319772E-017
  0.14180000000000004          8.6270171133888612E-017
  0.14290000000000003          8.0327457837484376E-017
  0.14400000000000002          4.9316530086456464E-017
  0.14510000000000001         -9.0817994110549468E-018
  0.14620000000000000         -9.0691499359377043E-017
  0.14730000000000004         -1.8325334046999212E-016
  0.14840000000000003         -2.6634505923178603E-016
  0.14950000000000002         -3.1343702658478844E-016
  0.15060000000000001         -2.9640054944134113E-016
  0.15170000000000000         -1.9227425334369693E-016
  0.15280000000000005          8.5648401940065914E-018
  0.15390000000000004          2.9437359289125636E-016
  0.15500000000000003          6.2627562888077173E-016
  0.15610000000000002          9.3712622242375955E-016
  0.15720000000000001          1.1371381300341260E-015
  0.15830000000000000          1.1275315492369981E-015
  0.15940000000000004          8.2196116475271157E-016
  0.16050000000000003          1.7344612437466774E-016
  0.16160000000000002         -7.9771544540034169E-016
  0.16270000000000001         -1.9815640239071561E-015
  0.16380000000000000         -3.1693216060485611E-015
  0.16490000000000005         -4.0649155263629937E-015
  0.16600000000000004         -4.3225120039308660E-015
  0.16710000000000003         -3.6111707169182744E-015
  0.16820000000000002         -1.7016432425008523E-015
  0.16930000000000001          1.4368777598136525E-015
  0.17040000000000000          5.5493116164407794E-015
  0.17150000000000004          1.0040982633746323E-014
  0.17260000000000003          1.3983489394305613E-014
  0.17370000000000002          1.6201872253459567E-014
  0.17480000000000001          1.5454094818897397E-014
  0.17590000000000000          1.0696606355317303E-014
  0.17700000000000005          1.4075237328635191E-015
  0.17810000000000004         -1.2084982194150658E-014
  0.17920000000000003         -2.8342389012278135E-014
  0.18030000000000002         -4.4708899805827469E-014
  0.18140000000000001         -5.7440411562698663E-014
  0.18250000000000000         -6.2129691223022938E-014
  0.18360000000000004         -5.4444415160941938E-014
  0.18470000000000003         -3.1131559164739166E-014
  0.18580000000000002          8.8341890391499537E-015
  0.18690000000000001          6.3156821514553967E-014
  0.18800000000000000          1.2543997881760380E-013
  0.18910000000000005          1.8500914813527191E-013
  0.19020000000000004          2.2759689854627035E-013
  0.19130000000000003          2.3706357143692077E-013
  0.19240000000000002          1.9816821644666470E-013
  0.19350000000000001          1.0018794682013940E-013
  0.19460000000000005         -5.9067115945666867E-014
  0.19570000000000004         -2.6954151204389758E-013
  0.19680000000000003         -5.0641028626571953E-013
  0.19790000000000002         -7.2969966911081465E-013
  0.19900000000000001         -8.8690986985738494E-013
  0.20010000000000000         -9.1918927435228368E-013
  0.20120000000000005         -7.7108371183532474E-013
  0.20230000000000004         -4.0317239625335999E-013
  0.20340000000000003          1.9391795345498140E-013
  0.20450000000000002          9.8643203254255557E-013
  0.20560000000000000          1.8882713345667404E-012
  0.20670000000000005          2.7588397655021691E-012
  0.20780000000000004          3.4108712229231449E-012
  0.20890000000000003          3.6302328116107356E-012
