 -0.12000000000000000          0.0000000000000000
 -0.11889999999999999         -8926.6841566714338
 -0.11780000000000000         -25045.082191713347
 -0.11670000000000000         -43967.330258649039
 -0.11559999999999999         -60957.879244107811
 -0.11449999999999999         -73391.489245405872
 -0.11340000000000000         -82158.903216719278
 -0.11230000000000000         -91361.323721397494
 -0.11119999999999999         -106504.54776403301
 -0.11009999999999999         -132152.71391001958
 -0.10900000000000000         -170251.60936979248
 -0.10790000000000000         -219962.34775959674
 -0.10679999999999999         -279055.63676670805
 -0.10569999999999999         -346116.15494285215
 -0.10460000000000000         -422407.71790333954
 -0.10349999999999999         -512453.56182697340
 -0.10239999999999999         -623079.68825865397
 -0.10130000000000000         -761487.42719859816
 -0.10020000000000000         -933436.52803645690
  -9.9099999999999994E-002    -1142564.1885867505
  -9.7999999999999990E-002    -1391268.7024340427
  -9.6899999999999986E-002    -1682761.0015075356
  -9.5799999999999996E-002    -2023265.0064507844
  -9.4699999999999993E-002    -2423255.3554672766
  -9.3599999999999989E-002    -2897110.9305089884
  -9.2499999999999999E-002    -3461384.1038149823
  -9.1399999999999995E-002    -4132614.3685516748
  -9.0299999999999991E-002    -4925871.7686991701
  -8.9200000000000002E-002    -5854862.5583440810
  -8.8099999999999984E-002    -6933642.6897788793
  -8.6999999999999994E-002    -8179164.2454266800
  -8.5899999999999990E-002    -9613445.2851626109
  -8.4799999999999986E-002    -11264328.299322972
  -8.3699999999999997E-002    -13164489.189384656
  -8.2599999999999993E-002    -15349223.698118022
  -8.1499999999999989E-002    -17854132.248759277
  -8.0399999999999999E-002    -20713846.911214996
  -7.9299999999999995E-002    -23962387.100868691
  -7.8199999999999992E-002    -27634879.933184188
  -7.7100000000000002E-002    -31769670.536402956
  -7.5999999999999984E-002    -36409635.927022673
  -7.4899999999999994E-002    -41601904.810484491
  -7.3799999999999991E-002    -47395969.333531201
  -7.2699999999999987E-002    -53840948.504443288
  -7.1599999999999997E-002    -60983131.527433395
  -7.0499999999999993E-002    -68864709.619819403
  -6.9399999999999989E-002    -77523918.104175881
  -6.8300000000000000E-002    -86996017.056250483
  -6.7199999999999996E-002    -97314050.747859716
  -6.6099999999999992E-002    -108508394.85063477
  -6.5000000000000002E-002    -120604687.79726653
  -6.3899999999999985E-002    -133620542.85871536
  -6.2799999999999995E-002    -147562035.96079394
  -6.1699999999999991E-002    -162421052.71045896
  -6.0599999999999994E-002    -178174113.14347777
  -5.9499999999999990E-002    -194782517.38688573
  -5.8399999999999994E-002    -212192972.92193100
  -5.7299999999999990E-002    -230337629.29123291
  -5.6199999999999986E-002    -249132782.56693909
  -5.5099999999999996E-002    -268476248.84727544
  -5.3999999999999992E-002    -288244166.59484190
  -5.2899999999999989E-002    -308288382.94071025
  -5.1799999999999985E-002    -328435407.93695968
  -5.0699999999999995E-002    -348487272.03168035
  -4.9599999999999991E-002    -368223827.98630929
  -4.8499999999999988E-002    -387405503.32616282
  -4.7399999999999998E-002    -405775502.24363297
  -4.6299999999999994E-002    -423060973.66601497
  -4.5199999999999990E-002    -438973433.33920193
  -4.4099999999999986E-002    -453209352.95599717
  -4.2999999999999997E-002    -465451986.84957546
  -4.1899999999999993E-002    -475375116.38234806
  -4.0799999999999989E-002    -482648654.11729902
  -3.9699999999999985E-002    -486945339.72589248
  -3.8599999999999995E-002    -487947434.24916846
  -3.7499999999999992E-002    -485352534.31973314
  -3.6399999999999988E-002    -478878259.75050372
  -3.5299999999999984E-002    -468266280.18329746
  -3.4199999999999994E-002    -453286565.12778091
  -3.3099999999999991E-002    -433742647.65250570
  -3.1999999999999987E-002    -409478132.81386423
  -3.0899999999999997E-002    -380383945.44738895
  -2.9799999999999993E-002    -346405276.48996335
  -2.8699999999999989E-002    -307547126.17057973
  -2.7599999999999986E-002    -263877785.25742969
  -2.6499999999999996E-002    -215530313.39152241
  -2.5399999999999992E-002    -162702699.26965022
  -2.4299999999999988E-002    -105657605.08322315
  -2.3199999999999985E-002    -44722304.185452491
  -2.2099999999999995E-002     19711222.241354864
  -2.0999999999999991E-002     87186715.819016263
  -1.9899999999999987E-002     157185601.86427084
  -1.8799999999999983E-002     229131293.60815141
  -1.7699999999999994E-002     302396044.81576914
  -1.6599999999999990E-002     376309830.49545431
  -1.5499999999999986E-002     450170250.16603929
  -1.4399999999999996E-002     523252434.41416979
  -1.3299999999999992E-002     594818381.73227012
  -1.2199999999999989E-002     664125813.49853194
  -1.1099999999999985E-002     730437159.69136286
  -9.9999999999999950E-003     793029401.42269886
  -8.8999999999999913E-003     851205139.37104928
  -7.7999999999999875E-003     904304614.25064945
  -6.6999999999999837E-003     951717807.59178197
  -5.5999999999999939E-003     992895504.48153305
  -4.4999999999999901E-003     1027358429.1512982
  -3.3999999999999864E-003     1054704150.7058131
  -2.2999999999999826E-003     1074612101.5416739
  -1.1999999999999927E-003     1086847432.2069118
  -9.9999999999988987E-005     1091264362.0034640
   1.0000000000000148E-003     1087809225.6414621
   2.1000000000000185E-003     1076522817.4551773
   3.2000000000000084E-003     1057541221.1276404
   4.3000000000000121E-003     1031094311.9099842
   5.4000000000000159E-003     997501543.58262777
   6.5000000000000058E-003     957165278.57582569
   7.6000000000000234E-003     910562469.62468147
   8.7000000000000133E-003     858235689.40264797
   9.8000000000000032E-003     800784251.61265433
   1.0900000000000021E-002     738855618.44195521
   1.2000000000000011E-002     673136737.77949905
   1.3100000000000001E-002     604344687.40319526
   1.4200000000000018E-002     533216158.86473995
   1.5300000000000008E-002     460495807.80728561
   1.6400000000000026E-002     386924072.64892858
   1.7500000000000016E-002     313225422.61370116
   1.8600000000000005E-002     240097954.31276086
   1.9700000000000023E-002     168204834.39446643
   2.0800000000000013E-002     98167497.154032707
   2.1900000000000003E-002     30560043.809835065
   2.3000000000000020E-002    -34095822.865026653
   2.4100000000000010E-002    -95335719.290860042
   2.5200000000000000E-002    -152757244.66065902
   2.6300000000000018E-002    -206023819.13371208
   2.7400000000000008E-002    -254866966.87574387
   2.8500000000000025E-002    -299086538.08268255
   2.9600000000000015E-002    -338548864.76535386
   3.0700000000000005E-002    -373183372.06254095
   3.1800000000000023E-002    -402978458.39402825
   3.2900000000000013E-002    -427977374.95646018
   3.4000000000000002E-002    -448274431.32507801
   3.5100000000000020E-002    -464011344.92743397
   3.6200000000000010E-002    -475373203.08140630
   3.7300000000000028E-002    -482583495.37087685
   3.8400000000000017E-002    -485898002.71458846
   3.9500000000000007E-002    -485597823.96132350
   4.0600000000000025E-002    -481982224.08654004
   4.1700000000000015E-002    -475362092.18342501
   4.2800000000000005E-002    -466054549.34187108
   4.3900000000000022E-002    -454378772.69033033
   4.5000000000000012E-002    -440652641.10170084
   4.6100000000000002E-002    -425189587.85759765
   4.7200000000000020E-002    -408295166.58179337
   4.8300000000000010E-002    -390263223.97902113
   4.9400000000000027E-002    -371372017.41935468
   5.0500000000000017E-002    -351880883.67195624
   5.1600000000000007E-002    -332028018.78123480
   5.2700000000000025E-002    -312029593.84436268
   5.3800000000000014E-002    -292079980.54659337
   5.4900000000000004E-002    -272352523.05166924
   5.6000000000000022E-002    -253000236.17585373
   5.7100000000000012E-002    -234156054.11041066
   5.8200000000000002E-002    -215932665.69249311
   5.9300000000000019E-002    -198422335.26717055
   6.0400000000000009E-002    -181697236.34162512
   6.1500000000000027E-002    -165810657.07438374
   6.2600000000000017E-002    -150799064.55856076
   6.3700000000000007E-002    -136684634.69198516
   6.4800000000000024E-002    -123477663.00543623
   6.5900000000000014E-002    -111178365.89616597
   6.7000000000000004E-002    -99777910.091914162
   6.8100000000000022E-002    -89258900.544773951
   6.9200000000000012E-002    -79595813.239064947
   7.0300000000000029E-002    -70755852.654595688
   7.1400000000000019E-002    -62700453.632059455
   7.2500000000000009E-002    -55387273.059400924
   7.3600000000000027E-002    -48772222.745431416
   7.4700000000000016E-002    -42811030.896235295
   7.5800000000000006E-002    -37460015.217892185
   7.6900000000000024E-002    -32676102.341868639
   7.8000000000000014E-002    -28416455.107491296
   7.9100000000000004E-002    -24638206.793938965
   8.0200000000000021E-002    -21298685.100503299
   8.1300000000000011E-002    -18356204.446523562
   8.2400000000000029E-002    -15771172.774983533
   8.3500000000000019E-002    -13507068.477216998
   8.4600000000000009E-002    -11530887.633024836
   8.5700000000000026E-002    -9812912.4900100697
   8.6800000000000016E-002    -8325975.5705581242
   8.7900000000000006E-002    -7044622.9060141891
   8.9000000000000024E-002    -5944600.0799116520
   9.0100000000000013E-002    -5002891.1425191974
   9.1200000000000003E-002    -4198237.5438722512
   9.2300000000000021E-002    -3511809.6694651577
   9.3400000000000011E-002    -2927626.1476172074
   9.4500000000000028E-002    -2432450.6170611326
   9.5600000000000018E-002    -2015167.4721691888
   9.6700000000000008E-002    -1665904.1862999760
   9.7800000000000026E-002    -1375291.6392141515
   9.8900000000000016E-002    -1134175.2043363466
  0.10000000000000001         -933853.14798541053
  0.10110000000000002         -766649.66671860556
  0.10220000000000001         -626465.98784447543
  0.10330000000000003         -508975.44374647946
  0.10440000000000002         -411321.08217214182
  0.10550000000000001         -331434.47578818555
  0.10660000000000003         -267287.46377447410
  0.10770000000000002         -216417.87699743410
  0.10880000000000001         -175925.28763855438
  0.10990000000000003         -142892.10808550290
  0.11100000000000002         -114974.18136186445
  0.11210000000000001         -90829.994785487055
  0.11320000000000002         -70152.964556335661
  0.11430000000000001         -53283.219070366154
  0.11540000000000003         -40592.426462372845
  0.11650000000000002         -31946.703284293442
  0.11760000000000001         -26505.007460936526
  0.11870000000000003         -22932.989855381573
  0.11980000000000002         -19899.694869219529
  0.12090000000000001         -16586.360185416230
  0.12200000000000003         -12940.981140860107
  0.12310000000000001         -9552.4093957143723
  0.12420000000000003         -7217.5822720134029
  0.12530000000000002         -6430.9841214711232
  0.12640000000000001         -7058.5835207020864
  0.12750000000000003         -8356.2969678745758
  0.12860000000000002         -9312.1339286509956
  0.12970000000000001         -9126.6099452190665
  0.13080000000000003         -7581.3639875443150
  0.13190000000000002         -5110.9690313900073
  0.13300000000000001         -2550.2067515400968
  0.13410000000000000         -695.24190923605659
  0.13520000000000004          92.904743866293458
  0.13630000000000003          43.707879414401809
  0.13740000000000002         -177.76123338829362
  0.13850000000000001          155.30567998207545
  0.13960000000000000          1437.9959190122233
  0.14070000000000005          3522.5630950693871
  0.14180000000000004          5791.2526914628643
  0.14290000000000003          7466.3615437562357
  0.14400000000000002          7991.9786554409620
  0.14510000000000001          7291.8932569206781
  0.14620000000000000          5778.8760118085593
  0.14730000000000004          4121.8891783867593
  0.14840000000000003          2900.3380124421906
  0.14950000000000002          2326.0800483499370
  0.15060000000000001          2171.1623719093809
  0.15170000000000000          1927.9406274299890
  0.15280000000000005          1108.1338626421102
  0.15390000000000004         -479.70831629427857
  0.15500000000000003         -2616.8172838779606
  0.15610000000000002         -4777.0925453166637
  0.15720000000000001         -6385.2492312237737
  0.15830000000000000         -7092.1022411850818
  0.15940000000000004         -6925.8788309042257
  0.16050000000000003         -6247.9762846254634
  0.16160000000000002         -5544.8554282026626
  0.16270000000000001         -5170.3394832791701
  0.16380000000000000         -5172.9604185713833
  0.16490000000000005         -5293.3548746646729
  0.16600000000000004         -5125.5325652354986
  0.16710000000000003         -4351.7027600870615
  0.16820000000000002         -2926.1269670257861
  0.16930000000000001         -1114.5768443112609
  0.17040000000000000          626.35333531496678
  0.17150000000000004          1863.4073796594300
  0.17260000000000003          2382.8236687937447
  0.17370000000000002          2271.0073843055466
  0.17480000000000001          1845.1562207652814
  0.17590000000000000          1476.6903003821365
  0.17700000000000005          1402.0864860147128
  0.17810000000000004          1616.7595455428670
  0.17920000000000003          1900.1098202835528
  0.18030000000000002          1950.6115837590098
  0.18140000000000001          1555.3478089911775
  0.18250000000000000          705.63498860297341
  0.18360000000000004         -396.61280800857725
  0.18470000000000003         -1437.9879413113929
  0.18580000000000002         -2140.9843277688778
  0.18690000000000001         -2381.9232884517655
  0.18800000000000000         -2222.3836221466959
  0.18910000000000005         -1845.8234271963754
  0.19020000000000004         -1440.7595441945805
  0.19130000000000003         -1096.6305408390970
  0.19240000000000002         -766.95331920674141
  0.19350000000000001         -314.84239996417119
  0.19460000000000005          389.16691687424617
  0.19570000000000004          1373.6667937848435
  0.19680000000000003          2529.0295436405954
  0.19790000000000002          3645.6420459418810
  0.19900000000000001          4506.0217621915181
  0.20010000000000000          4981.1656101254839
  0.20120000000000005          5080.8627358338144
  0.20230000000000004          4933.4851779242117
  0.20340000000000003          4708.2618292259949
  0.20450000000000002          4522.1662522506012
  0.20560000000000000          4379.6059428921817
  0.20670000000000005          4174.1273636841634
  0.20780000000000004          3748.4436220615357
  0.20890000000000003          2979.9051165021215
