 -0.12000000000000000          2.7323800867711885
 -0.11889999999999999          2.3635881773728591
 -0.11780000000000000          1.2767161858391436
 -0.11670000000000000          4.2820695647044979E-002
 -0.11559999999999999        -0.70944357654935342
 -0.11449999999999999        -0.58742328354995466
 -0.11340000000000000         0.39550849262157284
 -0.11230000000000000          1.8531014779779016
 -0.11119999999999999          3.2395450514289008
 -0.11009999999999999          4.1308967396873317
 -0.10900000000000000          4.4318207870989808
 -0.10790000000000000          4.4069595383023294
 -0.10679999999999999          4.5285185942849306
 -0.10569999999999999          5.2260126365092123
 -0.10460000000000000          6.6721451683264519
 -0.10349999999999999          8.7164957191060797
 -0.10239999999999999          10.998645854869896
 -0.10130000000000000          13.176927119314623
 -0.10020000000000000          15.148083833277502
  -9.9099999999999994E-002     17.138459825919309
  -9.7999999999999990E-002     19.615826914099198
  -9.6899999999999986E-002     23.066666371088001
  -9.5799999999999996E-002     27.756364030470611
  -9.4699999999999993E-002     33.601069793369156
  -9.3599999999999989E-002     40.223461736946312
  -9.2499999999999999E-002     47.169230499660600
  -9.1399999999999995E-002     54.176124994949873
  -9.0299999999999991E-002     61.357217694580541
  -8.9200000000000002E-002     69.200989376225991
  -8.8099999999999984E-002     78.382621059556513
  -8.6999999999999994E-002     89.476876342585669
  -8.5899999999999990E-002     102.71402231489694
  -8.4799999999999986E-002     117.89995142219659
  -8.3699999999999997E-002     134.53994446164415
  -8.2599999999999993E-002     152.10362089968851
  -8.1499999999999989E-002     170.29813703970001
  -8.0399999999999999E-002     189.21320812301676
  -7.9299999999999995E-002     209.26655095576197
  -7.8199999999999992E-002     230.97862433387587
  -7.7100000000000002E-002     254.69016206873010
  -7.5999999999999984E-002     280.36235578734914
  -7.4899999999999994E-002     307.55500985727258
  -7.3799999999999991E-002     335.58606890842003
  -7.2699999999999987E-002     363.78397657098742
  -7.1599999999999997E-002     391.69919766393230
  -7.0499999999999993E-002     419.16530625593123
  -6.9399999999999989E-002     446.18002270071764
  -6.8300000000000000E-002     472.67067069525268
  -6.7199999999999996E-002     498.26811442161039
  -6.6099999999999992E-002     522.20794940603253
  -6.5000000000000002E-002     543.41088704803246
  -6.3899999999999985E-002     560.70095624157227
  -6.2799999999999995E-002     573.04886011200472
  -6.1699999999999991E-002     579.71543617772068
  -6.0599999999999994E-002     580.22293111310432
  -5.9499999999999990E-002     574.17227180526947
  -5.8399999999999994E-002     561.00582763216391
  -5.7299999999999990E-002     539.84525505769864
  -5.6199999999999986E-002     509.49729826294572
  -5.5099999999999996E-002     468.63571664699259
  -5.3999999999999992E-002     416.07830237836652
  -5.2899999999999989E-002     351.02996452239347
  -5.1799999999999985E-002     273.18058318810279
  -5.0699999999999995E-002     182.62054819751489
  -4.9599999999999991E-002     79.629499742804612
  -4.8499999999999988E-002    -35.542541717991995
  -4.7399999999999998E-002    -162.78003100672117
  -4.6299999999999994E-002    -302.03074973241479
  -4.5199999999999990E-002    -453.08753092702221
  -4.4099999999999986E-002    -615.32728965482693
  -4.2999999999999997E-002    -787.53370258226732
  -4.1899999999999993E-002    -967.88754312412811
  -4.0799999999999989E-002    -1154.1244077841297
  -3.9699999999999985E-002    -1343.7768779035600
  -3.8599999999999995E-002    -1534.3792982236046
  -3.7499999999999992E-002    -1723.5376776402470
  -3.6399999999999988E-002    -1908.8414886715354
  -3.5299999999999984E-002    -2087.6796122889195
  -3.4199999999999994E-002    -2257.0751980686005
  -3.3099999999999991E-002    -2413.6469523655073
  -3.1999999999999987E-002    -2553.7414442629033
  -3.0899999999999997E-002    -2673.6951337633127
  -2.9799999999999993E-002    -2770.1202535474190
  -2.8699999999999989E-002    -2840.0984347439157
  -2.7599999999999986E-002    -2881.2149492956510
  -2.6499999999999996E-002    -2891.4490962869390
  -2.5399999999999992E-002    -2869.0099201421026
  -2.4299999999999988E-002    -2812.2333371772470
  -2.3199999999999985E-002    -2719.6233099517258
  -2.2099999999999995E-002    -2590.0433903164826
  -2.0999999999999991E-002    -2422.9850355966832
  -1.9899999999999987E-002    -2218.7964430365150
  -1.8799999999999983E-002    -1978.7717672769718
  -1.7699999999999994E-002    -1705.0668388849538
  -1.6599999999999990E-002    -1400.4897677701929
  -1.5499999999999986E-002    -1068.2711686305997
  -1.4399999999999996E-002    -711.92094361439092
  -1.3299999999999992E-002    -335.22631168193811
  -1.2199999999999989E-002     57.633418075176508
  -1.1099999999999985E-002     461.94505826307216
  -9.9999999999999950E-003     872.40046991235931
  -8.8999999999999913E-003     1283.1860138258685
  -7.7999999999999875E-003     1688.2185154026029
  -6.6999999999999837E-003     2081.4521530447851
  -5.5999999999999939E-003     2457.1478677367663
  -4.4999999999999901E-003     2810.0190712128033
  -3.3999999999999864E-003     3135.2324676943099
  -2.2999999999999826E-003     3428.3167641239161
  -1.1999999999999927E-003     3685.0768430319886
  -9.9999999999988987E-005     3901.6039530496873
   1.0000000000000148E-003     4074.4178449862011
   2.1000000000000185E-003     4200.7031660014318
   3.2000000000000084E-003     4278.5479087246713
   4.3000000000000121E-003     4307.0842262802189
   5.4000000000000159E-003     4286.4750367871238
   6.5000000000000058E-003     4217.7611912542543
   7.6000000000000234E-003     4102.6470017404690
   8.7000000000000133E-003     3943.3247130280947
   9.8000000000000032E-003     3742.4100560721427
   1.0900000000000021E-002     3502.9966325901978
   1.2000000000000011E-002     3228.7699812968212
   1.3100000000000001E-002     2924.0870377930669
   1.4200000000000018E-002     2593.9409134111538
   1.5300000000000008E-002     2243.7866341747986
   1.6400000000000026E-002     1879.2717658113229
   1.7500000000000016E-002     1505.9617566917927
   1.8600000000000005E-002     1129.1503287074722
   1.9700000000000023E-002     753.80081258819087
   2.0800000000000013E-002     384.59834586207285
   2.1900000000000003E-002     26.039327822290080
   2.3000000000000020E-002    -317.52947433485582
   2.4100000000000010E-002    -641.97784913976795
   2.5200000000000000E-002    -943.56015079151416
   2.6300000000000018E-002    -1219.1218046631634
   2.7400000000000008E-002    -1466.2567368969119
   2.8500000000000025E-002    -1683.3483637678426
   2.9600000000000015E-002    -1869.4813528988127
   3.0700000000000005E-002    -2024.2720216415789
   3.1800000000000023E-002    -2147.7009294450950
   3.2900000000000013E-002    -2240.0240901324159
   3.4000000000000002E-002    -2301.7935498690372
   3.5100000000000020E-002    -2333.9577617530358
   3.6200000000000010E-002    -2337.9682958056233
   3.7300000000000028E-002    -2315.8141866449350
   3.8400000000000017E-002    -2269.9408244602091
   3.9500000000000007E-002    -2203.0680542686246
   4.0600000000000025E-002    -2117.9723554574748
   4.1700000000000015E-002    -2017.3152080018922
   4.2800000000000005E-002    -1903.5757604621353
   4.3900000000000022E-002    -1779.0935268938167
   4.5000000000000012E-002    -1646.1730713375671
   4.6100000000000002E-002    -1507.1746919552111
   4.7200000000000020E-002    -1364.5265392291296
   4.8300000000000010E-002    -1220.6376591382484
   4.9400000000000027E-002    -1077.7449600404773
   5.0500000000000017E-002    -937.76257179675963
   5.1600000000000007E-002    -802.20179753945831
   5.2700000000000025E-002    -672.19476127612666
   5.3800000000000014E-002    -548.60359067177228
   5.4900000000000004E-002    -432.15605806945331
   5.6000000000000022E-002    -323.53868961105695
   5.7100000000000012E-002    -223.40380196885351
   5.8200000000000002E-002    -132.29390939648590
   5.9300000000000019E-002    -50.530891439773406
   6.0400000000000009E-002     21.864288379232967
   6.1500000000000027E-002     85.171633395447529
   6.2600000000000017E-002     139.88395885615964
   6.3700000000000007E-002     186.56796308105430
   6.4800000000000024E-002     225.73766059281908
   6.5900000000000014E-002     257.79641069986332
   6.7000000000000004E-002     283.06828566784719
   6.8100000000000022E-002     301.89403058664175
   6.9200000000000012E-002     314.73475861292764
   7.0300000000000029E-002     322.22395242662509
   7.1400000000000019E-002     325.13610748645544
   7.2500000000000009E-002     324.28378152537294
   7.3600000000000027E-002     320.39153120313853
   7.4700000000000016E-002     314.00668877515454
   7.5800000000000006E-002     305.48782745193898
   7.6900000000000024E-002     295.07239286307708
   7.8000000000000014E-002     282.98571531821437
   7.9100000000000004E-002     269.53432940114908
   8.0200000000000021E-002     255.13648870023516
   8.1300000000000011E-002     240.27619365587361
   8.2400000000000029E-002     225.40641121225971
   8.3500000000000019E-002     210.85235885855275
   8.4600000000000009E-002     196.76437265027957
   8.5700000000000026E-002     183.14341088555787
   8.6800000000000016E-002     169.92481850441470
   8.7900000000000006E-002     157.07693507406421
   8.9000000000000024E-002     144.66501706126459
   9.0100000000000013E-002     132.85023058923602
   9.1200000000000003E-002     121.82760906274032
   9.2300000000000021E-002     111.73802792919916
   9.3400000000000011E-002     102.60159677799251
   9.4500000000000028E-002     94.307605629190860
   9.5600000000000018E-002     86.666210676795131
   9.6700000000000008E-002     79.495182237984011
   9.7800000000000026E-002     72.697606529643011
   9.8900000000000016E-002     66.291979733953696
  0.10000000000000001          60.381247075659878
  0.10110000000000002          55.078706202029366
  0.10220000000000001          50.430148565068414
  0.10330000000000003          46.372464902677372
  0.10440000000000002          42.749286101394716
  0.10550000000000001          39.374614477187805
  0.10660000000000003          36.111164019904336
  0.10770000000000002          32.923460015017952
  0.10880000000000001          29.879561118731814
  0.10990000000000003          27.101970198766459
  0.11100000000000002          24.693960728511517
  0.11210000000000001          22.679160040890249
  0.11320000000000002          20.984317084490211
  0.11430000000000001          19.472348202993480
  0.11540000000000003          18.007052830948293
  0.11650000000000002          16.515463137252585
  0.11760000000000001          15.016147935629817
  0.11870000000000003          13.600164067896277
  0.11980000000000002          12.375882011867867
  0.12090000000000001          11.406933219604589
  0.12200000000000003          10.675083143490667
  0.12310000000000001          10.086132595255306
  0.12420000000000003          9.5144948048046398
  0.12530000000000002          8.8625965227217005
  0.12640000000000001          8.1045259303371235
  0.12750000000000003          7.2923878097187824
  0.12860000000000002          6.5234967544273958
  0.12970000000000001          5.8864771751128702
  0.13080000000000003          5.4143994626560632
  0.13190000000000002          5.0684960217271300
  0.13300000000000001          4.7596166812454976
  0.13410000000000000          4.3951480861324352
  0.13520000000000004          3.9266231411654218
  0.13630000000000003          3.3737839127964038
  0.13740000000000002          2.8136831327377347
  0.13850000000000001          2.3415458065733494
  0.13960000000000000          2.0241514926547701
  0.14070000000000005          1.8694658867608291
  0.14180000000000004          1.8270684821477643
  0.14290000000000003          1.8177311826163860
  0.14400000000000002          1.7758040688997554
  0.14510000000000001          1.6822669803946564
  0.14620000000000000          1.5719944714888712
  0.14730000000000004          1.5125955599718182
  0.14840000000000003          1.5667704306026335
  0.14950000000000002          1.7580276556386971
  0.15060000000000001          2.0570884574959267
  0.15170000000000000          2.3950881433373854
  0.15280000000000005          2.6958430875408861
  0.15390000000000004          2.9101360430922303
  0.15500000000000003          3.0347229839201830
  0.15610000000000002          3.1073082144259208
  0.15720000000000001          3.1813330240591857
  0.15830000000000000          3.2944836100998591
  0.15940000000000004          3.4473411846913882
  0.16050000000000003          3.6026353837461902
  0.16160000000000002          3.7045496777175453
  0.16270000000000001          3.7073107802526333
  0.16380000000000000          3.5980443393276187
  0.16490000000000005          3.4024847497047643
  0.16600000000000004          3.1713809958723176
  0.16710000000000003          2.9553582688277698
  0.16820000000000002          2.7814887747401640
  0.16930000000000001          2.6433056987544719
  0.17040000000000000          2.5085741056221278
  0.17150000000000004          2.3398795547796643
  0.17260000000000003          2.1168131085763027
  0.17370000000000002          1.8482724536032831
  0.17480000000000001          1.5689937377450409
  0.17590000000000000          1.3227352287745211
  0.17700000000000005          1.1411909637429820
  0.17810000000000004          1.0294265154442113
  0.17920000000000003         0.96479552064387142
  0.18030000000000002         0.90916264222264442
  0.18140000000000001         0.82762445948523622
  0.18250000000000000         0.70411119655811860
  0.18360000000000004         0.54645682133102980
  0.18470000000000003         0.37931169544702409
  0.18580000000000002         0.22947753310528471
  0.18690000000000001         0.11169422614853967
  0.18800000000000000          2.2038548965723083E-002
  0.18910000000000005         -5.8348738434228414E-002
  0.19020000000000004        -0.15198443301875725
  0.19130000000000003        -0.27264292147238006
  0.19240000000000002        -0.41833035723144790
  0.19350000000000001        -0.57283118157371760
  0.19460000000000005        -0.71431302587924683
  0.19570000000000004        -0.82589994302833480
  0.19680000000000003        -0.90247303964644310
  0.19790000000000002        -0.95037726127260813
  0.19900000000000001        -0.98073338524568032
  0.20010000000000000         -1.0004584770829497
  0.20120000000000005         -1.0061273028532829
  0.20230000000000004        -0.98405268795442813
  0.20340000000000003        -0.91649915882123367
  0.20450000000000002        -0.79068008058690897
  0.20560000000000000        -0.60582113356042344
  0.20670000000000005        -0.37471590173300579
  0.20780000000000004        -0.11912784146041422
  0.20890000000000003         0.13849862037942848
