 -0.12000000000000000          0.0000000000000000
 -0.11889999999999999          0.0000000000000000
 -0.11780000000000000          0.0000000000000000
 -0.11670000000000000          0.0000000000000000
 -0.11559999999999999          1.2145292066351098E-011
 -0.11449999999999999          7.1834112133865632E-011
 -0.11340000000000000          2.0037987712793401E-010
 -0.11230000000000000          3.0588506531852922E-010
 -0.11119999999999999          1.2333894552228821E-010
 -0.11009999999999999         -6.3448904948488584E-010
 -0.10900000000000000         -1.8794822342647551E-009
 -0.10790000000000000         -2.7949771261145875E-009
 -0.10679999999999999         -2.0379342423496128E-009
 -0.10569999999999999          1.2584603294038214E-009
 -0.10460000000000000          6.2193741278087198E-009
 -0.10349999999999999          9.9545181353643988E-009
 -0.10239999999999999          9.2823663208108279E-009
 -0.10130000000000000          3.8641051411845620E-009
 -0.10020000000000000         -1.8968087619519366E-009
  -9.9099999999999994E-002    -1.3751389275202365E-009
  -9.7999999999999990E-002     6.7643403024705026E-009
  -9.6899999999999986E-002     1.0671110917503591E-008
  -9.5799999999999996E-002    -1.4204732784385750E-008
  -9.4699999999999993E-002    -8.9207563976480404E-008
  -9.3599999999999989E-002    -2.0403006750284933E-007
  -9.2499999999999999E-002    -2.9283740743235858E-007
  -9.1399999999999995E-002    -2.4059939199502309E-007
  -9.0299999999999991E-002     6.2784318434547149E-008
  -8.9200000000000002E-002     6.3064012086544374E-007
  -8.8099999999999984E-002     1.2960365266257279E-006
  -8.6999999999999994E-002     1.7035188960696022E-006
  -8.5899999999999990E-002     1.4250865587827909E-006
  -8.4799999999999986E-002     1.8755603109342969E-007
  -8.3699999999999997E-002    -1.8831946019182354E-006
  -8.2599999999999993E-002    -4.1484167683560264E-006
  -8.1499999999999989E-002    -5.5965441023470487E-006
  -8.0399999999999999E-002    -5.2467304528930133E-006
  -7.9299999999999995E-002    -2.6649989217527325E-006
  -7.8199999999999992E-002     1.6753072119899487E-006
  -7.7100000000000002E-002     6.4404424471848562E-006
  -7.5999999999999984E-002     9.9602888961144432E-006
  -7.4899999999999994E-002     1.1020670010008854E-005
  -7.3799999999999991E-002     9.4937188041144683E-006
  -7.2699999999999987E-002     6.3744347114327226E-006
  -7.1599999999999997E-002     3.0755531350046923E-006
  -7.0499999999999993E-002     2.9860419293423748E-007
  -6.9399999999999989E-002    -2.8095077856706465E-006
  -6.8300000000000000E-002    -8.4732038752640882E-006
  -6.7199999999999996E-002    -1.8800825094691571E-005
  -6.6099999999999992E-002    -3.3528410526113796E-005
  -6.5000000000000002E-002    -4.8271736123844863E-005
  -6.3899999999999985E-002    -5.4729695158980907E-005
  -6.2799999999999995E-002    -4.3577779476687507E-005
  -6.1699999999999991E-002    -9.3781358331979430E-006
  -6.0599999999999994E-002     4.4637988673088588E-005
  -5.9499999999999990E-002     1.0471380294702010E-004
  -5.8399999999999994E-002     1.4964205865346283E-004
  -5.7299999999999990E-002     1.5859496188515155E-004
  -5.6199999999999986E-002     1.2085103304804829E-004
  -5.5099999999999996E-002     4.2789543377016986E-005
  -5.3999999999999992E-002    -5.2107580105395050E-005
  -5.2899999999999989E-002    -1.3169785240079357E-004
  -5.1799999999999985E-002    -1.6928707720279885E-004
  -5.0699999999999995E-002    -1.5702632457253584E-004
  -4.9599999999999991E-002    -1.1137773839070630E-004
  -4.8499999999999988E-002    -6.6379699762523638E-005
  -4.7399999999999998E-002    -5.6302609433670640E-005
  -4.6299999999999994E-002    -9.5382636737190564E-005
  -4.5199999999999990E-002    -1.6532882687864223E-004
  -4.4099999999999986E-002    -2.1897935875563683E-004
  -4.2999999999999997E-002    -2.0112891602135075E-004
  -4.1899999999999993E-002    -7.8289504384190754E-005
  -4.0799999999999989E-002     1.3727526969976495E-004
  -3.9699999999999985E-002     3.8346094046033273E-004
  -3.8599999999999995E-002     5.7012142145263303E-004
  -3.7499999999999992E-002     6.1973488957121231E-004
  -3.6399999999999988E-002     5.0849061022314036E-004
  -3.5299999999999984E-002     2.8590732532391745E-004
  -3.4199999999999994E-002     5.8816498078571050E-005
  -3.3099999999999991E-002    -5.7874756621631900E-005
  -3.1999999999999987E-002    -3.2046221818348976E-006
  -3.0899999999999997E-002     1.8560013706471590E-004
  -2.9799999999999993E-002     3.7289002403631218E-004
  -2.8699999999999989E-002     3.7592303115059568E-004
  -2.7599999999999986E-002     4.9957299750120127E-005
  -2.6499999999999996E-002    -6.3050950750269462E-004
  -2.5399999999999992E-002    -1.5352613983585553E-003
  -2.4299999999999988E-002    -2.4104876363019293E-003
  -2.3199999999999985E-002    -2.9721254445629246E-003
  -2.2099999999999995E-002    -3.0218738258637758E-003
  -2.0999999999999991E-002    -2.5320411879226575E-003
  -1.9899999999999987E-002    -1.6554042460336425E-003
  -1.8799999999999983E-002    -6.4908263010894152E-004
  -1.7699999999999994E-002     2.5727984961646113E-004
  -1.6599999999999990E-002     9.8900674574386419E-004
  -1.5499999999999986E-002     1.6873211120415779E-003
  -1.4399999999999996E-002     2.6701658325634686E-003
  -1.3299999999999992E-002     4.3069081163868601E-003
  -1.2199999999999989E-002     6.8647990674492749E-003
  -1.1099999999999985E-002     1.0402894431834580E-002
  -9.9999999999999950E-003     1.4770200232794437E-002
  -8.8999999999999913E-003     1.9716316440608568E-002
  -7.7999999999999875E-003     2.5067557325231245E-002
  -6.6999999999999837E-003     3.0887062171073686E-002
  -5.5999999999999939E-003     3.7542422636473734E-002
  -4.4999999999999901E-003     4.5648359009711301E-002
  -3.3999999999999864E-003     5.5914466513316906E-002
  -2.2999999999999826E-003     6.8977918801263180E-002
  -1.1999999999999927E-003     8.5312057883682041E-002
  -9.9999999999988987E-005    0.10526657914672685
   1.0000000000000148E-003    0.12922972932566379
   2.1000000000000185E-003    0.15784019041390232
   3.2000000000000084E-003    0.19214895268045840
   4.3000000000000121E-003    0.23365531747254464
   5.4000000000000159E-003    0.28420585684888905
   6.5000000000000058E-003    0.34581828131629083
   7.6000000000000234E-003    0.42053530435377684
   8.7000000000000133E-003    0.51040240984379437
   9.8000000000000032E-003    0.61760139119430890
   1.0900000000000021E-002    0.74468952949722600
   1.2000000000000011E-002    0.89483554891120143
   1.3100000000000001E-002     1.0719410278916870
   1.4200000000000018E-002     1.2805940918810983
   1.5300000000000008E-002     1.5258925525027247
   1.6400000000000026E-002     1.8132483808726241
   1.7500000000000016E-002     2.1483020401771684
   1.8600000000000005E-002     2.5370201493638240
   1.9700000000000023E-002     2.9859479754752414
   2.0800000000000013E-002     3.5024918787965640
   2.1900000000000003E-002     4.0950698631526672
   2.3000000000000020E-002     4.7730166925686266
   2.4100000000000010E-002     5.5462451956651302
   2.5200000000000000E-002     6.4247908744340423
   2.6300000000000018E-002     7.4184353931248035
   2.7400000000000008E-002     8.5365730051951356
   2.8500000000000025E-002     9.7883590962203222
   2.9600000000000015E-002     11.183018753580425
   3.0700000000000005E-002     12.730077144083626
   3.1800000000000023E-002     14.439267745411769
   3.2900000000000013E-002     16.319992658475247
   3.4000000000000002E-002     18.380401968418028
   3.5100000000000020E-002     20.626334904097760
   3.6200000000000010E-002     23.060434682002050
   3.7300000000000028E-002     25.681669567741427
   3.8400000000000017E-002     28.485295262547865
   3.9500000000000007E-002     31.463069857590231
   4.0600000000000025E-002     34.603392296920113
   4.1700000000000015E-002     37.891052477758635
   4.2800000000000005E-002     41.306454822393398
   4.3900000000000022E-002     44.824428813281685
   4.5000000000000012E-002     48.412949805373906
   4.6100000000000002E-002     52.032158915467811
   4.7200000000000020E-002     55.633958427883464
   4.8300000000000010E-002     59.162222818165866
   4.9400000000000027E-002     62.553421122533180
   5.0500000000000017E-002     65.737314665731077
   5.1600000000000007E-002     68.637439692307225
   5.2700000000000025E-002     71.171282382258568
   5.3800000000000014E-002     73.250301716087549
   5.4900000000000004E-002     74.780125754378005
   5.6000000000000022E-002     75.661251447772003
   5.7100000000000012E-002     75.790415482934023
   5.8200000000000002E-002     75.062559766039342
   5.9300000000000019E-002     73.373118713768918
   6.0400000000000009E-002     70.620310166858616
   6.1500000000000027E-002     66.707239887226166
   6.2600000000000017E-002     61.543858669372440
   6.3700000000000007E-002     55.049010507225702
   6.4800000000000024E-002     47.152861034684150
   6.5900000000000014E-002     37.799856171632740
   6.7000000000000004E-002     26.952094223828055
   6.8100000000000022E-002     14.592738492029572
   6.9200000000000012E-002    0.72899355674225963
   7.0300000000000029E-002    -14.605714786315128
   7.1400000000000019E-002    -31.350425520292248
   7.2500000000000009E-002    -49.415944555404771
   7.3600000000000027E-002    -68.684335938468280
   7.4700000000000016E-002    -89.008246953493668
   7.5800000000000006E-002    -110.21001486597484
   7.6900000000000024E-002    -132.08089422860550
   7.8000000000000014E-002    -154.38102242687381
   7.9100000000000004E-002    -176.84074999376617
   8.0200000000000021E-002    -199.16367127085800
   8.1300000000000011E-002    -221.03122100670620
   8.2400000000000029E-002    -242.10827144127725
   8.3500000000000019E-002    -262.04898146412330
   8.4600000000000009E-002    -280.50230836817747
   8.5700000000000026E-002    -297.11701973535719
   8.6800000000000016E-002    -311.54652744937550
   8.7900000000000006E-002    -323.45416159615718
   8.9000000000000024E-002    -332.51945010123416
   9.0100000000000013E-002    -338.44558088783629
   9.1200000000000003E-002    -340.96767620917825
   9.2300000000000021E-002    -339.86106539850516
   9.3400000000000011E-002    -334.94861781233584
   9.4500000000000028E-002    -326.10645286592649
   9.5600000000000018E-002    -313.26785319328138
   9.6700000000000008E-002    -296.42572019795182
   9.7800000000000026E-002    -275.63417956176750
   9.8900000000000016E-002    -251.00984496586219
  0.10000000000000001         -222.73284678177774
  0.10110000000000002         -191.04724833632758
  0.10220000000000001         -156.26016619485381
  0.10330000000000003         -118.73895027060307
  0.10440000000000002         -78.906152525623185
  0.10550000000000001         -37.232534810690737
  0.10660000000000003          5.7712239313492057
  0.10770000000000002          49.563363514918962
  0.10880000000000001          93.579912665652103
  0.10990000000000003          137.24352888473666
  0.11100000000000002          179.97262685153569
  0.11210000000000001          221.19121249419402
  0.11320000000000002          260.33958263249184
  0.11430000000000001          296.88556320277036
  0.11540000000000003          330.33550239251980
  0.11650000000000002          360.24406610754102
  0.11760000000000001          386.22211751884885
  0.11870000000000003          407.94250458103534
  0.11980000000000002          425.14416451326468
  0.12090000000000001          437.63528150387538
  0.12200000000000003          445.29612495254855
  0.12310000000000001          448.08169478684636
  0.12420000000000003          446.02366227944532
  0.12530000000000002          439.23066055325097
  0.12640000000000001          427.88600267017165
  0.12750000000000003          412.24241811867904
  0.12860000000000002          392.61418322662075
  0.12970000000000001          369.36771237340480
  0.13080000000000003          342.91194178355721
  0.13190000000000002          313.68954399904095
  0.13300000000000001          282.16929901804002
  0.13410000000000000          248.83916542167316
  0.13520000000000004          214.19912664442467
  0.13630000000000003          178.75296438669204
  0.13740000000000002          142.99869280064954
  0.13850000000000001          107.41818155893681
  0.13960000000000000          72.467105234592481
  0.14070000000000005          38.566475845511746
  0.14180000000000004          6.0965857082071118
  0.14290000000000003         -24.606576976283495
  0.14400000000000002         -53.253100184044008
  0.14510000000000001         -79.600101665283333
  0.14620000000000000         -103.45266007650361
  0.14730000000000004         -124.66492273087664
  0.14840000000000003         -143.14092758192771
  0.14950000000000002         -158.83431166375067
  0.15060000000000001         -171.74620752013686
  0.15170000000000000         -181.92118709180400
  0.15280000000000005         -189.44180434951215
  0.15390000000000004         -194.42274611148704
  0.15500000000000003         -197.00557893766100
  0.15610000000000002         -197.35458529960238
  0.15720000000000001         -195.65347223643545
  0.15830000000000000         -192.10218578721953
  0.15940000000000004         -186.91297041519650
  0.16050000000000003         -180.30523309611553
  0.16160000000000002         -172.49949348480303
  0.16270000000000001         -163.71134687825761
  0.16380000000000000         -154.14658854833849
  0.16490000000000005         -143.99831209432972
  0.16600000000000004         -133.44605279784079
  0.16710000000000003         -122.65626373327935
  0.16820000000000002         -111.78297880907385
  0.16930000000000001         -100.96765014124402
  0.17040000000000000         -90.337777242191606
  0.17150000000000004         -80.004749529478175
  0.17260000000000003         -70.061890347618728
  0.17370000000000002         -60.583731154896782
  0.17480000000000001         -51.627040522674108
  0.17590000000000000         -43.233345678231196
  0.17700000000000005         -35.432020809213249
  0.17810000000000004         -28.242817669201443
  0.17920000000000003         -21.677080659854575
  0.18030000000000002         -15.737628531248230
  0.18140000000000001         -10.418013355467535
  0.18250000000000000         -5.7022062219930456
  0.18360000000000004         -1.5655323321084591
  0.18470000000000003          2.0229963515033180
  0.18580000000000002          5.0975740847938305
  0.18690000000000001          7.6928082459899549
  0.18800000000000000          9.8422401464849134
  0.18910000000000005          11.578574460028150
  0.19020000000000004          12.935191838869823
  0.19130000000000003          13.947897856560209
  0.19240000000000002          14.655753060069733
  0.19350000000000001          15.100289581887537
  0.19460000000000005          15.323220225967470
  0.19570000000000004          15.363489763633282
  0.19680000000000003          15.254842661495241
  0.19790000000000002          15.024838271138007
  0.19900000000000001          14.695568654445024
  0.20010000000000000          14.285568824012913
  0.20120000000000005          13.811927643961146
  0.20230000000000004          13.291626295792984
  0.20340000000000003          12.741608041787849
  0.20450000000000002          12.177751179800255
  0.20560000000000000          11.613431383619686
  0.20670000000000005          11.058476419581035
  0.20780000000000004          10.519012639019850
  0.20890000000000003          9.9981755437463153
