 -0.12000000000000000          0.0000000000000000
 -0.11889999999999999          0.0000000000000000
 -0.11780000000000000          0.0000000000000000
 -0.11670000000000000          0.0000000000000000
 -0.11559999999999999          0.0000000000000000
 -0.11449999999999999          0.0000000000000000
 -0.11340000000000000          0.0000000000000000
 -0.11230000000000000          0.0000000000000000
 -0.11119999999999999          0.0000000000000000
 -0.11009999999999999          0.0000000000000000
 -0.10900000000000000          0.0000000000000000
 -0.10790000000000000          0.0000000000000000
 -0.10679999999999999          2.3996155410161749E-034
 -0.10569999999999999          3.8426567637276390E-033
 -0.10460000000000000          3.0119371328357252E-032
 -0.10349999999999999          1.5185462142910557E-031
 -0.10239999999999999          5.4134752429252833E-031
 -0.10130000000000000          1.3932514595137712E-030
 -0.10020000000000000          2.4156552577546833E-030
  -9.9099999999999994E-002     1.6428278386224400E-030
  -9.7999999999999990E-002    -5.8501897361767776E-030
  -9.6899999999999986E-002    -2.7130344983434391E-029
  -9.5799999999999996E-002    -6.5438755464026016E-029
  -9.4699999999999993E-002    -1.0863868143361318E-028
  -9.3599999999999989E-002    -1.1738142613562504E-028
  -9.2499999999999999E-002    -1.8815276254405942E-029
  -9.1399999999999995E-002     3.0364968508401736E-028
  -9.0299999999999991E-002     1.0509786747723013E-027
  -8.9200000000000002E-002     2.5547587307552746E-027
  -8.8099999999999984E-002     5.0916238879387077E-027
  -8.6999999999999994E-002     7.9096527805472153E-027
  -8.5899999999999990E-002     6.9487778688241635E-027
  -8.4799999999999986E-002    -7.9743457725718378E-027
  -8.3699999999999997E-002    -5.2614338191361623E-026
  -8.2599999999999993E-002    -1.3684694299803336E-025
  -8.1499999999999989E-002    -2.3548379951857313E-025
  -8.0399999999999999E-002    -2.4674756987637410E-025
  -7.9299999999999995E-002     2.9009794328460187E-026
  -7.8199999999999992E-002     8.2646300990040610E-025
  -7.7100000000000002E-002     2.2013395580321994E-024
  -7.5999999999999984E-002     3.6679868781986951E-024
  -7.4899999999999994E-002     3.8558201582753789E-024
  -7.3799999999999991E-002     5.6035940117380563E-025
  -7.2699999999999987E-002    -8.3385039340950465E-024
  -7.1599999999999997E-002    -2.2849312187028865E-023
  -7.0499999999999993E-002    -3.8185436420666773E-023
  -6.9399999999999989E-002    -4.2895173571928857E-023
  -6.8300000000000000E-002    -2.0091589356128039E-023
  -6.7199999999999996E-002     4.6093170864753380E-023
  -6.6099999999999992E-002     1.5844303169774492E-022
  -6.5000000000000002E-002     2.9180645792054186E-022
  -6.3899999999999985E-002     3.8190486035280384E-022
  -6.2799999999999995E-002     3.2664044031717640E-022
  -6.1699999999999991E-002     8.5577658380837072E-024
  -6.0599999999999994E-002    -6.5601518538295646E-022
  -5.9499999999999990E-002    -1.6414753136217197E-021
  -5.8399999999999994E-002    -2.7208336541166010E-021
  -5.7299999999999990E-002    -3.3828425043940895E-021
  -5.6199999999999986E-002    -2.8106596624085032E-021
  -5.5099999999999996E-002    -7.8244499355987612E-024
  -5.3999999999999992E-002     5.8228018782817664E-021
  -5.2899999999999989E-002     1.4578050412491579E-020
  -5.1799999999999985E-002     2.4306934663015409E-020
  -5.0699999999999995E-002     3.0365489120533635E-020
  -4.9599999999999991E-002     2.5358821902147008E-020
  -4.8499999999999988E-002     7.6270900154622277E-022
  -4.7399999999999998E-002    -4.9091448210707791E-020
  -4.6299999999999994E-002    -1.2086183470582348E-019
  -4.5199999999999990E-002    -1.9561570404793802E-019
  -4.4099999999999986E-002    -2.3534630577857733E-019
  -4.2999999999999997E-002    -1.8718971233584990E-019
  -4.1899999999999993E-002     8.2605887526062734E-022
  -4.0799999999999989E-002     3.5209648349751251E-019
  -3.9699999999999985E-002     8.2731450566290096E-019
  -3.8599999999999995E-002     1.2961670112123487E-018
  -3.7499999999999992E-002     1.5319665220573153E-018
  -3.6399999999999988E-002     1.2461732766666701E-018
  -3.5299999999999984E-002     1.7252267920293914E-019
  -3.4199999999999994E-002    -1.8038593322277808E-018
  -3.3099999999999991E-002    -4.4961130611295273E-018
  -3.1999999999999987E-002    -7.2879008494796792E-018
  -3.0899999999999997E-002    -9.0885388834393548E-018
  -2.9799999999999993E-002    -8.4390956602208915E-018
  -2.8699999999999989E-002    -3.8301319674016203E-018
  -2.7599999999999986E-002     5.7403978194284817E-018
  -2.6499999999999996E-002     2.0008766569813986E-017
  -2.5399999999999992E-002     3.6637050324115210E-017
  -2.4299999999999988E-002     5.0647390845055427E-017
  -2.3199999999999985E-002     5.4522914658706295E-017
  -2.2099999999999995E-002     3.9440022109284030E-017
  -2.0999999999999991E-002    -2.0532837046848058E-018
  -1.9899999999999987E-002    -7.2016797129265605E-017
  -1.8799999999999983E-002    -1.6253771962474376E-016
  -1.7699999999999994E-002    -2.5216174208486005E-016
  -1.6599999999999990E-002    -3.0550160676311348E-016
  -1.5499999999999986E-002    -2.7819642906509616E-016
  -1.4399999999999996E-002    -1.2847681022979050E-016
  -1.3299999999999992E-002     1.6535018799783607E-016
  -1.2199999999999989E-002     5.8485295007969101E-016
  -1.1099999999999985E-002     1.0549107870340868E-015
  -9.9999999999999950E-003     1.4384022794842312E-015
  -8.8999999999999913E-003     1.5496967520120208E-015
  -7.7999999999999875E-003     1.1917115121643684E-015
  -6.6999999999999837E-003     2.1591289322326556E-016
  -5.5999999999999939E-003    -1.4026949628632440E-015
  -4.4999999999999901E-003    -3.4915984656596459E-015
  -3.3999999999999864E-003    -5.6309138788539270E-015
  -2.2999999999999826E-003    -7.1548299657998911E-015
  -1.1999999999999927E-003    -7.2302790588189504E-015
  -9.9999999999988987E-005    -5.0295364472058286E-015
   1.0000000000000148E-003     5.9505176902149601E-018
   2.1000000000000185E-003     7.8432813151213454E-015
   3.2000000000000084E-003     1.7547759432240087E-014
   4.3000000000000121E-003     2.7091424224158304E-014
   5.4000000000000159E-003     3.3408493985236468E-014
   6.5000000000000058E-003     3.2813759826998303E-014
   7.6000000000000234E-003     2.1839848823009650E-014
   8.7000000000000133E-003    -1.5631461023346493E-015
   9.8000000000000032E-003    -3.6672541856907006E-014
   1.0900000000000021E-002    -7.8841608899336883E-014
   1.2000000000000011E-002    -1.1901222683059334E-013
   1.3100000000000001E-002    -1.4434611678488548E-013
   1.4200000000000018E-002    -1.4027576942257894E-013
   1.5300000000000008E-002    -9.3970530328374328E-014
   1.6400000000000026E-002     1.2034009190293333E-015
   1.7500000000000016E-002     1.4109290915891057E-013
   1.8600000000000005E-002     3.0725730214008169E-013
   1.9700000000000023E-002     4.6592936535256784E-013
   2.0800000000000013E-002     5.7066742761801115E-013
   2.1900000000000003E-002     5.6943774027109650E-013
   2.3000000000000020E-002     4.1603227852010208E-013
   2.4100000000000010E-002     8.4614065833720054E-014
   2.5200000000000000E-002    -4.1506994378760752E-013
   2.6300000000000018E-002    -1.0254305373885329E-012
   2.7400000000000008E-002    -1.6361026387766123E-012
   2.8500000000000025E-002    -2.0906475563103214E-012
   2.9600000000000015E-002    -2.2079569900050310E-012
   3.0700000000000005E-002    -1.8187738345730274E-012
   3.1800000000000023E-002    -8.1380849969581310E-013
   3.2900000000000013E-002     8.0468573418599048E-013
   3.4000000000000002E-002     2.8801924327025429E-012
   3.5100000000000020E-002     5.0826675276760516E-012
   3.6200000000000010E-002     6.9263175189610622E-012
   3.7300000000000028E-002     7.8328357740539897E-012
   3.8400000000000017E-002     7.2393489601765967E-012
   3.9500000000000007E-002     4.7385936215570461E-012
   4.0600000000000025E-002     2.2707476516927678E-013
   4.1700000000000015E-002    -5.9717542747113498E-012
   4.2800000000000005E-002    -1.3045067192231464E-011
   4.3900000000000022E-002    -1.9719906722421350E-011
   4.5000000000000012E-002    -2.4402259739999052E-011
   4.6100000000000002E-002    -2.5424976525346799E-011
   4.7200000000000020E-002    -2.1380785897568777E-011
   4.8300000000000010E-002    -1.1493893514175416E-011
   4.9400000000000027E-002     4.0352232053551730E-012
   5.0500000000000017E-002     2.3788300886861148E-011
   5.1600000000000007E-002     4.5067135800832751E-011
   5.2700000000000025E-002     6.4071814754776645E-011
   5.3800000000000014E-002     7.6348852672292694E-011
   5.4900000000000004E-002     7.7491740923416477E-011
   5.6000000000000022E-002     6.4019034746223244E-011
   5.7100000000000012E-002     3.4297510748420641E-011
   5.8200000000000002E-002    -1.0665680880430430E-011
   5.9300000000000019E-002    -6.6752362410821211E-011
   6.0400000000000009E-002    -1.2674856241671497E-010
   6.1500000000000027E-002    -1.8094103242437648E-010
   6.2600000000000017E-002    -2.1828829473571973E-010
   6.3700000000000007E-002    -2.2804525516376081E-010
   6.4800000000000024E-002    -2.0162122867118160E-010
   6.5900000000000014E-002    -1.3439161113620689E-010
   6.7000000000000004E-002    -2.7176721205993264E-011
   6.8100000000000022E-002     1.1285526886940947E-010
   6.9200000000000012E-002     2.7202833114887771E-010
   7.0300000000000029E-002     4.3082390685530288E-010
   7.1400000000000019E-002     5.6538031170513161E-010
   7.2500000000000009E-002     6.4977797859343520E-010
   7.3600000000000027E-002     6.5901149276295923E-010
   7.4700000000000016E-002     5.7248501237638129E-010
   7.5800000000000006E-002     3.7777413587320980E-010
   7.6900000000000024E-002     7.4276719029915827E-011
   7.8000000000000014E-002    -3.2374642754045089E-010
   7.9100000000000004E-002    -7.8531891973687631E-010
   8.0200000000000021E-002    -1.2626543718050729E-009
   8.1300000000000011E-002    -1.6932721227526631E-009
   8.2400000000000029E-002    -2.0045569982640306E-009
   8.3500000000000019E-002    -2.1207205667631363E-009
   8.4600000000000009E-002    -1.9718395744915320E-009
   8.5700000000000026E-002    -1.5043963700007538E-009
   8.6800000000000016E-002    -6.9252498870087769E-010
   8.7900000000000006E-002     4.5106167312506280E-010
   8.9000000000000024E-002     1.8657666183439461E-009
   9.0100000000000013E-002     3.4370595307834917E-009
   9.1200000000000003E-002     4.9956220485658136E-009
   9.2300000000000021E-002     6.3237350348385677E-009
   9.3400000000000011E-002     7.1706533969543587E-009
   9.4500000000000028E-002     7.2778251850406533E-009
   9.5600000000000018E-002     6.4133002754634216E-009
   9.6700000000000008E-002     4.4127126221565577E-009
   9.7800000000000026E-002     1.2221858468859384E-009
   9.8900000000000016E-002    -3.0631040753121639E-009
  0.10000000000000001         -8.1717190997105233E-009
  0.10110000000000002         -1.3646721125855962E-008
  0.10220000000000001         -1.8859515436034670E-008
  0.10330000000000003         -2.3049535789746450E-008
  0.10440000000000002         -2.5389752899449392E-008
  0.10550000000000001         -2.5075150822631191E-008
  0.10660000000000003         -2.1428612947925018E-008
  0.10770000000000002         -1.4016085264717083E-008
  0.10880000000000001         -2.7603528919320203E-009
  0.10990000000000003          1.1959686180180157E-008
  0.11100000000000002          2.9239393372077441E-008
  0.11210000000000001          4.7624456840511161E-008
  0.11320000000000002          6.5147601025823140E-008
  0.11430000000000001          7.9437035346177396E-008
  0.11540000000000003          8.7900922729509901E-008
  0.11650000000000002          8.7982914763622933E-008
  0.11760000000000001          7.7473429326238382E-008
  0.11870000000000003          5.4851516076589432E-008
  0.11980000000000002          1.9624421762032697E-008
  0.12090000000000001         -2.7372707090497518E-008
  0.12200000000000003         -8.3755993705919601E-008
  0.12310000000000001         -1.4548853537494815E-007
  0.12420000000000003         -2.0692668640185740E-007
  0.12530000000000002         -2.6104510776311116E-007
  0.12640000000000001         -2.9985990920129984E-007
  0.12750000000000003         -3.1505595470698357E-007
  0.12860000000000002         -2.9880546281691104E-007
  0.12970000000000001         -2.4474019060019601E-007
  0.13080000000000003         -1.4901041590062248E-007
  0.13190000000000002         -1.1334407115275682E-008
  0.13300000000000001          1.6408260562600822E-007
  0.13410000000000000          3.6789521394184003E-007
  0.13520000000000004          5.8536516668267499E-007
  0.13630000000000003          7.9662689797607807E-007
  0.13740000000000002          9.7755572256647877E-007
  0.13850000000000001          1.1012767477189387E-006
  0.13960000000000000          1.1402965178554187E-006
  0.14070000000000005          1.0691772297983607E-006
  0.14180000000000004          8.6760788359775631E-007
  0.14290000000000003          5.2366071507241376E-007
  0.14400000000000002          3.6958526807284597E-008
  0.14510000000000001         -5.7857480827933457E-007
  0.14620000000000000         -1.2927436479788742E-006
  0.14730000000000004         -2.0582595211901287E-006
  0.14840000000000003         -2.8114083911954363E-006
  0.14950000000000002         -3.4744696757197215E-006
  0.15060000000000001         -3.9600308518604410E-006
  0.15170000000000000         -4.1771839055544694E-006
  0.15280000000000005         -4.0394063779126733E-006
  0.15390000000000004         -3.4737355635165967E-006
  0.15500000000000003         -2.4306553026576018E-006
  0.15610000000000002         -8.9394528851335479E-007
  0.15720000000000001          1.1103940498349897E-006
  0.15830000000000000          3.5071193472522594E-006
  0.15940000000000004          6.1676345298853436E-006
  0.16050000000000003          8.9097586644173100E-006
  0.16160000000000002          1.1502199646981638E-005
  0.16270000000000001          1.3674320025207828E-005
  0.16380000000000000          1.5131431039092224E-005
  0.16490000000000005          1.5575402991576337E-005
  0.16600000000000004          1.4729860774135633E-005
  0.16710000000000003          1.2368683602063817E-005
  0.16820000000000002          8.3459980246843025E-006
  0.16930000000000001          2.6253960570445890E-006
  0.17040000000000000         -4.6942248284658560E-006
  0.17150000000000004         -1.3358974741183681E-005
  0.17260000000000003         -2.2949188847922201E-005
  0.17370000000000002         -3.2880060259519437E-005
  0.17480000000000001         -4.2415729952428078E-005
  0.17590000000000000         -5.0698176550997917E-005
  0.17700000000000005         -5.6791334958593244E-005
  0.17810000000000004         -5.9739777637307302E-005
  0.17920000000000003         -5.8640071774359596E-005
  0.18030000000000002         -5.2721657394962305E-005
  0.18140000000000001         -4.1432870122806861E-005
  0.18250000000000000         -2.4526659904095359E-005
  0.18360000000000004         -2.1397329498997832E-006
  0.18470000000000003          2.5141644277008390E-005
  0.18580000000000002          5.6236023688077577E-005
  0.18690000000000001          8.9547811179184955E-005
  0.18800000000000000          1.2298058195525058E-004
  0.18910000000000005          1.5398696058466696E-004
  0.19020000000000004          1.7965754965747923E-004
  0.19130000000000003          1.9684918368354388E-004
  0.19240000000000002          2.0235027122863315E-004
  0.19350000000000001          1.9307831431252868E-004
  0.19460000000000005          1.6630204873038372E-004
  0.19570000000000004          1.1987825137176815E-004
  0.19680000000000003          5.2491339849827943E-005
  0.19790000000000002         -3.6117338920797677E-005
  0.19900000000000001         -1.4494399120840948E-004
  0.20010000000000000         -2.7155344511160980E-004
  0.20120000000000005         -4.1195790197291255E-004
  0.20230000000000004         -5.6055166141322980E-004
  0.20340000000000003         -7.1010626080359048E-004
  0.20450000000000002         -8.5182567438605141E-004
  0.20560000000000000         -9.7545563176930524E-004
  0.20670000000000005         -1.0694349541793043E-003
  0.20780000000000004         -1.1210703394212845E-003
  0.20890000000000003         -1.1167095677580498E-003
