 -0.12000000000000000          0.0000000000000000
 -0.11889999999999999          0.0000000000000000
 -0.11780000000000000          0.0000000000000000
 -0.11670000000000000          0.0000000000000000
 -0.11559999999999999          6.6799106364931046E-015
 -0.11449999999999999          5.2868582946612307E-014
 -0.11340000000000000          2.0258627704060213E-013
 -0.11230000000000000          4.8103199538615695E-013
 -0.11119999999999999          7.1710520134860653E-013
 -0.11009999999999999          4.3597264416917784E-013
 -0.10900000000000000         -9.4671156189312469E-013
 -0.10790000000000000         -3.5176642101017633E-012
 -0.10679999999999999         -6.1757654627570733E-012
 -0.10569999999999999         -6.6044761148772584E-012
 -0.10460000000000000         -2.4916671634103603E-012
 -0.10349999999999999          6.4039735813348552E-012
 -0.10239999999999999          1.6984260032231231E-011
 -0.10130000000000000          2.4214819336328696E-011
 -0.10020000000000000          2.5296832344906640E-011
  -9.9099999999999994E-002     2.3497261115696943E-011
  -9.7999999999999990E-002     2.6461321871919589E-011
  -9.6899999999999986E-002     3.6050820042905344E-011
  -9.5799999999999996E-002     3.4107328016120155E-011
  -9.4699999999999993E-002    -2.2769435202356237E-011
  -9.3599999999999989E-002    -1.8405013251598761E-010
  -9.2499999999999999E-002    -4.5732724373035194E-010
  -9.1399999999999995E-002    -7.5071748341541191E-010
  -9.0299999999999991E-002    -8.4851577387367363E-010
  -8.9200000000000002E-002    -4.6713233225867855E-010
  -8.8099999999999984E-002     5.9253982386146597E-010
  -8.6999999999999994E-002     2.2422953063438977E-009
  -8.5899999999999990E-002     3.9630283065127135E-009
  -8.4799999999999986E-002     4.8499817309446344E-009
  -8.3699999999999997E-002     3.9173805169909914E-009
  -8.2599999999999993E-002     5.9999426334014711E-010
  -8.1499999999999989E-002    -4.7597342155465442E-009
  -8.0399999999999999E-002    -1.0723535220928577E-008
  -7.9299999999999995E-002    -1.5074986376983736E-008
  -7.8199999999999992E-002    -1.5619316817353267E-008
  -7.7100000000000002E-002    -1.1155654504807125E-008
  -7.5999999999999984E-002    -2.1352522659925105E-009
  -7.4899999999999994E-002     9.4042751323753026E-009
  -7.3799999999999991E-002     2.0687188980143132E-008
  -7.2699999999999987E-002     2.9414673413694088E-008
  -7.1599999999999997E-002     3.4612166729234665E-008
  -7.0499999999999993E-002     3.6467953259601074E-008
  -6.9399999999999989E-002     3.5086956283596048E-008
  -6.8300000000000000E-002     2.8881464870081943E-008
  -6.7199999999999996E-002     1.3880748936606328E-008
  -6.6099999999999992E-002    -1.4900330654836626E-008
  -6.5000000000000002E-002    -5.9890411312313883E-008
  -6.3899999999999985E-002    -1.1654119851786806E-007
  -6.2799999999999995E-002    -1.7061030956748571E-007
  -6.1699999999999991E-002    -1.9973606298792271E-007
  -6.0599999999999994E-002    -1.8034314392598285E-007
  -5.9499999999999990E-002    -9.8199658534923074E-008
  -5.8399999999999994E-002     4.1696065345342548E-008
  -5.7299999999999990E-002     2.1122642664158047E-007
  -5.6199999999999986E-002     3.6492172385484039E-007
  -5.5099999999999996E-002     4.5492404088862628E-007
  -5.3999999999999992E-002     4.4979912068801840E-007
  -5.2899999999999989E-002     3.4870613280961463E-007
  -5.1799999999999985E-002     1.8316442152763880E-007
  -5.0699999999999995E-002     3.6920505512047187E-009
  -4.9599999999999991E-002    -1.4393018407857848E-007
  -4.8499999999999988E-002    -2.4169677506285493E-007
  -4.7399999999999998E-002    -3.0917204512076177E-007
  -4.6299999999999994E-002    -3.9259893051473540E-007
  -4.5199999999999990E-002    -5.3599023550344343E-007
  -4.4099999999999986E-002    -7.4735973760229695E-007
  -4.2999999999999997E-002    -9.7841928872964022E-007
  -4.1899999999999993E-002    -1.1320994199526881E-006
  -4.0799999999999989E-002    -1.0996572490291221E-006
  -3.9699999999999985E-002    -8.1325233344106827E-007
  -3.8599999999999995E-002    -2.8878203438893703E-007
  -3.7499999999999992E-002     3.6563893667417797E-007
  -3.6399999999999988E-002     9.8616296156107206E-007
  -3.5299999999999984E-002     1.4230818261119539E-006
  -3.4199999999999994E-002     1.6126799289833227E-006
  -3.3099999999999991E-002     1.6131978867846393E-006
  -3.1999999999999987E-002     1.5796042284427324E-006
  -3.0899999999999997E-002     1.6799217616283170E-006
  -2.9799999999999993E-002     1.9870913502338825E-006
  -2.8699999999999989E-002     2.3989385305866819E-006
  -2.7599999999999986E-002     2.6331727125820757E-006
  -2.6499999999999996E-002     2.3138689983181599E-006
  -2.5399999999999992E-002     1.1226950000944725E-006
  -2.4299999999999988E-002    -1.0474669689687941E-006
  -2.3199999999999985E-002    -4.0079041634444638E-006
  -2.2099999999999995E-002    -7.3046037621791494E-006
  -2.0999999999999991E-002    -1.0359257019761689E-005
  -1.9899999999999987E-002    -1.2662352008437654E-005
  -1.8799999999999983E-002    -1.3929819790316075E-005
  -1.7699999999999994E-002    -1.4145311319586940E-005
  -1.6599999999999990E-002    -1.3459853692138762E-005
  -1.5499999999999986E-002    -1.1987873370356769E-005
  -1.4399999999999996E-002    -9.5912555508239935E-006
  -1.3299999999999992E-002    -5.7538648789013133E-006
  -1.2199999999999989E-002     3.9057407220856120E-007
  -1.1099999999999985E-002     9.8878054968146806E-006
  -9.9999999999999950E-003     2.3733007562360641E-005
  -8.8999999999999913E-003     4.2700591732732300E-005
  -7.7999999999999875E-003     6.7331722303944205E-005
  -6.6999999999999837E-003     9.8106763026911930E-005
  -5.5999999999999939E-003     1.3574297967106300E-004
  -4.4999999999999901E-003     1.8149790957646477E-004
  -3.3999999999999864E-003     2.3735746361413029E-004
  -2.2999999999999826E-003     3.0604827553714931E-004
  -1.1999999999999927E-003     3.9090776271386918E-004
  -9.9999999999988987E-005     4.9572601308059405E-004
   1.0000000000000148E-003     6.2469898274040894E-004
   2.1000000000000185E-003     7.8258743859717036E-004
   3.2000000000000084E-003     9.7508146729906873E-004
   4.3000000000000121E-003     1.2092738158832204E-003
   5.4000000000000159E-003     1.4940974617600091E-003
   6.5000000000000058E-003     1.8406107377508581E-003
   7.6000000000000234E-003     2.2621052098693952E-003
   8.7000000000000133E-003     2.7741209526780594E-003
   9.8000000000000032E-003     3.3945230432490163E-003
   1.0900000000000021E-002     4.1437830496293604E-003
   1.2000000000000011E-002     5.0455218427539958E-003
   1.3100000000000001E-002     6.1272489599955848E-003
   1.4200000000000018E-002     7.4211432758706170E-003
   1.5300000000000008E-002     8.9647109302817204E-003
   1.6400000000000026E-002     1.0801238443638164E-002
   1.7500000000000016E-002     1.2980091175215550E-002
   1.8600000000000005E-002     1.5557018379463095E-002
   1.9700000000000023E-002     1.8594650848124582E-002
   2.0800000000000013E-002     2.2163292767974074E-002
   2.1900000000000003E-002     2.6341951726046153E-002
   2.3000000000000020E-002     3.1219399331692866E-002
   2.4100000000000010E-002     3.6894993370221431E-002
   2.5200000000000000E-002     4.3479063208775981E-002
   2.6300000000000018E-002     5.1092837655933351E-002
   2.7400000000000008E-002     5.9868092275009319E-002
   2.8500000000000025E-002     6.9946804930787823E-002
   2.9600000000000015E-002     8.1481062748178235E-002
   3.0700000000000005E-002     9.4633265491893465E-002
   3.1800000000000023E-002    0.10957640518111594
   3.2900000000000013E-002    0.12649399840325382
   3.4000000000000002E-002    0.14557921544804511
   3.5100000000000020E-002    0.16703292072792877
   3.6200000000000010E-002    0.19106064400028366
   3.7300000000000028E-002    0.21786880133764258
   3.8400000000000017E-002    0.24766063199430169
   3.9500000000000007E-002    0.28063223281037769
   4.0600000000000025E-002    0.31696878699535841
   4.1700000000000015E-002    0.35684073162143171
   4.2800000000000005E-002    0.40039936063651532
   4.3900000000000022E-002    0.44777134663613666
   4.5000000000000012E-002    0.49905190487639728
   4.6100000000000002E-002    0.55429671467286024
   4.7200000000000020E-002    0.61351307921170350
   4.8300000000000010E-002    0.67665097889703063
   4.9400000000000027E-002    0.74359458306441506
   5.0500000000000017E-002    0.81415448774796040
   5.1600000000000007E-002    0.88806060264488151
   5.2700000000000025E-002    0.96495539978589273
   5.3800000000000014E-002     1.0443872710399833
   5.4900000000000004E-002     1.1258040061487395
   5.6000000000000022E-002     1.2085467636099221
   5.7100000000000012E-002     1.2918451804218103
   5.8200000000000002E-002     1.3748143168087457
   5.9300000000000019E-002     1.4564539399726404
   6.0400000000000009E-002     1.5356503258569856
   6.1500000000000027E-002     1.6111804783867321
   6.2600000000000017E-002     1.6817185825928611
   6.3700000000000007E-002     1.7458446606399900
   6.4800000000000024E-002     1.8020556899880404
   6.5900000000000014E-002     1.8487796844515147
   6.7000000000000004E-002     1.8843932571690183
   6.8100000000000022E-002     1.9072429151627401
   6.9200000000000012E-002     1.9156698677895647
   7.0300000000000029E-002     1.9080376711132996
   7.1400000000000019E-002     1.8827617939446655
   7.2500000000000009E-002     1.8383402904030322
   7.3600000000000027E-002     1.7733851361314019
   7.4700000000000016E-002     1.6866542155408228
   7.5800000000000006E-002     1.5770841715401152
   7.6900000000000024E-002     1.4438241715380959
   7.8000000000000014E-002     1.2862701173775823
   7.9100000000000004E-002     1.1040981425462304
   8.0200000000000021E-002    0.89729571085068716
   8.1300000000000011E-002    0.66618852009802676
   8.2400000000000029E-002    0.41146179925163584
   8.3500000000000019E-002    0.13417531015366554
   8.4600000000000009E-002   -0.16422789925409992
   8.5700000000000026E-002   -0.48191852971104399
   8.6800000000000016E-002   -0.81668348066264707
   8.7900000000000006E-002    -1.1659338596376900
   8.9000000000000024E-002    -1.5267193460712551
   9.0100000000000013E-002    -1.8957501131152439
   9.1200000000000003E-002    -2.2694274045186020
   9.2300000000000021E-002    -2.6438832124028280
   9.3400000000000011E-002    -3.0150285381687905
   9.4500000000000028E-002    -3.3786088270418349
   9.5600000000000018E-002    -3.7302646953743994
   9.6700000000000008E-002    -4.0655961607395774
   9.7800000000000026E-002    -4.3802291056074223
   9.8900000000000016E-002    -4.6698833190976181
  0.10000000000000001         -4.9304417995588201
  0.10110000000000002         -5.1580208518737782
  0.10220000000000001         -5.3490399298659277
  0.10330000000000003         -5.5002894439219290
  0.10440000000000002         -5.6089942504598538
  0.10550000000000001         -5.6728705284948262
  0.10660000000000003         -5.6901742494784635
  0.10770000000000002         -5.6597402263830157
  0.10880000000000001         -5.5810114244837017
  0.10990000000000003         -5.4540585316309880
  0.11100000000000002         -5.2795896459760376
  0.11210000000000001         -5.0589495343358859
  0.11320000000000002         -4.7941075970162084
  0.11430000000000001         -4.4876337668068134
  0.11540000000000003         -4.1426621807294035
  0.11650000000000002         -3.7628434180543704
  0.11760000000000001         -3.3522870170598562
  0.11870000000000003         -2.9154964749049199
  0.11980000000000002         -2.4572988069030548
  0.12090000000000001         -1.9827701115936276
  0.12200000000000003         -1.4971578380425943
  0.12310000000000001         -1.0058000371859270
  0.12420000000000003        -0.51404209079946650
  0.12530000000000002         -2.7152213241483508E-002
  0.12640000000000001         0.44976195153139897
  0.12750000000000003         0.91183258296526692
  0.12860000000000002          1.3545037137051819
  0.12970000000000001          1.7735937562851960
  0.13080000000000003          2.1653475660715249
  0.13190000000000002          2.5264783832519537
  0.13300000000000001          2.8542007469113484
  0.13410000000000000          3.1462554023531908
  0.13520000000000004          3.4009264629895446
  0.13630000000000003          3.6170501130566586
  0.13740000000000002          3.7940135245096962
  0.13850000000000001          3.9317428054074686
  0.13960000000000000          4.0306797131439094
  0.14070000000000005          4.0917481827379660
  0.14180000000000004          4.1163128665925113
  0.14290000000000003          4.1061323713950699
  0.14400000000000002          4.0633095489568900
  0.14510000000000001          3.9902402879397600
  0.14620000000000000          3.8895612689817773
  0.14730000000000004          3.7640965984377179
  0.14840000000000003          3.6168033807656754
  0.14950000000000002          3.4507169991805524
  0.15060000000000001          3.2688977136294142
  0.15170000000000000          3.0743806465928465
  0.15280000000000005          2.8701310013001224
  0.15390000000000004          2.6590054985465730
  0.15500000000000003          2.4437199197695416
  0.15610000000000002          2.2268218294390465
  0.15720000000000001          2.0106673977942258
  0.15830000000000000          1.7974017858812155
  0.15940000000000004          1.5889434499698867
  0.16050000000000003          1.3869734380386651
  0.16160000000000002          1.1929308384191599
  0.16270000000000001          1.0080148762194765
  0.16380000000000000         0.83319301173484872
  0.16490000000000005         0.66921331638138115
  0.16600000000000004         0.51661891569068741
  0.16710000000000003         0.37576264159857137
  0.16820000000000002         0.24682105820027711
  0.16930000000000001         0.12980821227760228
  0.17040000000000000          2.4590227216712689E-002
  0.17150000000000004         -6.9098162507705702E-002
  0.17260000000000003        -0.15163481444010901
  0.17370000000000002        -0.22348990626649254
  0.17480000000000001        -0.28520583068915656
  0.17590000000000000        -0.33737904309965450
  0.17700000000000005        -0.38064499466774893
  0.17810000000000004        -0.41566615583087702
  0.17920000000000003        -0.44312209991185786
  0.18030000000000002        -0.46370018996696444
  0.18140000000000001        -0.47808579300465814
  0.18250000000000000        -0.48695191377226149
  0.18360000000000004        -0.49094916997701732
  0.18470000000000003        -0.49069756476635012
  0.18580000000000002        -0.48678125102638670
  0.18690000000000001        -0.47974654074445561
  0.18800000000000000        -0.47010226412859440
  0.18910000000000005        -0.45832081609501218
  0.19020000000000004        -0.44483824463061827
  0.19130000000000003        -0.43005254529813175
  0.19240000000000002        -0.41432053729398527
  0.19350000000000001        -0.39795471384090875
  0.19460000000000005        -0.38122178344658847
  0.19570000000000004        -0.36434409295230807
  0.19680000000000003        -0.34750401011848742
  0.19790000000000002        -0.33085018560553914
  0.19900000000000001        -0.31450396179646845
  0.20010000000000000        -0.29856433618331657
  0.20120000000000005        -0.28311071312593084
  0.20230000000000004        -0.26820375845906602
  0.20340000000000003        -0.25388547957339652
  0.20450000000000002        -0.24017983200152307
  0.20560000000000000        -0.22709468159164209
  0.20670000000000005        -0.21462513229988167
  0.20780000000000004        -0.20275751331765118
  0.20890000000000003        -0.19147305981712978
