 -0.12000000000000000          0.0000000000000000
 -0.11889999999999999          0.0000000000000000
 -0.11780000000000000          0.0000000000000000
 -0.11670000000000000          0.0000000000000000
 -0.11559999999999999          0.0000000000000000
 -0.11449999999999999          0.0000000000000000
 -0.11340000000000000          0.0000000000000000
 -0.11230000000000000          0.0000000000000000
 -0.11119999999999999          0.0000000000000000
 -0.11009999999999999          0.0000000000000000
 -0.10900000000000000          0.0000000000000000
 -0.10790000000000000          2.7543784144005731E-034
 -0.10679999999999999          4.2662202087299977E-033
 -0.10569999999999999          3.2672699326104807E-032
 -0.10460000000000000          1.6306414638292230E-031
 -0.10349999999999999          5.8646367721256441E-031
 -0.10239999999999999          1.5744432018126275E-030
 -0.10130000000000000          3.0902090248659865E-030
 -0.10020000000000000          3.7631518017065147E-030
  -9.9099999999999994E-002    -5.2608196368311152E-031
  -9.7999999999999990E-002    -1.6985870146913132E-029
  -9.6899999999999986E-002    -5.2636319943331718E-029
  -9.5799999999999996E-002    -1.0573509833630224E-028
  -9.4699999999999993E-002    -1.5384928035511746E-028
  -9.3599999999999989E-002    -1.4366511529042642E-028
  -9.2499999999999999E-002     1.6247570315408767E-029
  -9.1399999999999995E-002     4.6898789683708641E-028
  -9.0299999999999991E-002     1.4321221719567749E-027
  -8.9200000000000002E-002     3.1642820230047094E-027
  -8.8099999999999984E-002     5.6643892582919951E-027
  -8.6999999999999994E-002     7.7862993992542843E-027
  -8.5899999999999990E-002     5.7013682764158846E-027
  -8.4799999999999986E-002    -8.3800604224740326E-027
  -8.3699999999999997E-002    -4.4658100190124631E-026
  -8.2599999999999993E-002    -1.0757312739462158E-025
  -8.1499999999999989E-002    -1.7883018630799143E-025
  -8.0399999999999999E-002    -1.9638570217976477E-025
  -7.9299999999999995E-002    -4.6324706265510212E-026
  -7.8199999999999992E-002     4.0417098274568655E-025
  -7.7100000000000002E-002     1.2069677453808234E-024
  -7.5999999999999984E-002     2.1706983426067181E-024
  -7.4899999999999994E-002     2.7020529262987614E-024
  -7.3799999999999991E-002     1.7884014531977241E-024
  -7.2699999999999987E-002    -1.7082412464997688E-024
  -7.1599999999999997E-002    -8.3446031947114002E-024
  -7.0499999999999993E-002    -1.7078936288577160E-023
  -6.9399999999999989E-002    -2.4343991745459621E-023
  -6.8300000000000000E-002    -2.3874804302931649E-023
  -6.7199999999999996E-002    -8.0012081427223066E-024
  -6.6099999999999992E-002     2.9202040055645981E-023
  -6.5000000000000002E-002     8.7197485183271489E-023
  -6.3899999999999985E-002     1.5386704239549335E-022
  -6.2799999999999995E-002     2.0196697625072188E-022
  -6.1699999999999991E-002     1.8964913704655654E-022
  -6.0599999999999994E-002     6.7695809523743905E-023
  -5.9499999999999990E-002    -2.0418428876438306E-022
  -5.8399999999999994E-002    -6.3084498041658056E-022
  -5.7299999999999990E-002    -1.1469571832998461E-021
  -5.6199999999999986E-002    -1.5823865284364876E-021
  -5.5099999999999996E-002    -1.6458929048563699E-021
  -5.3999999999999992E-002    -9.5577609174411849E-022
  -5.2899999999999989E-002     8.5030770182068050E-022
  -5.1799999999999985E-002     3.9081587374529839E-021
  -5.0699999999999995E-002     7.8449560472676469E-021
  -4.9599999999999991E-002     1.1510812858078936E-020
  -4.8499999999999988E-002     1.2884181001303112E-020
  -4.7399999999999998E-002     9.3491109685152549E-021
  -4.6299999999999994E-002    -1.5021956411880956E-021
  -4.5199999999999990E-002    -2.0548572596530177E-020
  -4.4099999999999986E-002    -4.5573855905590786E-020
  -4.2999999999999997E-002    -7.0027097389700267E-020
  -4.1899999999999993E-002    -8.2882861602305779E-020
  -4.0799999999999989E-002    -7.0338737347701035E-020
  -3.9699999999999985E-002    -1.9717606857936327E-020
  -3.8599999999999995E-002     7.4745704557825981E-020
  -3.7499999999999992E-002     2.0541540213698288E-019
  -3.6399999999999988E-002     3.4603985415865606E-019
  -3.5299999999999984E-002     4.5025480261600979E-019
  -3.4199999999999994E-002     4.5618707061195066E-019
  -3.3099999999999991E-002     2.9883774180474367E-019
  -3.1999999999999987E-002    -6.9477915703726876E-020
  -3.0899999999999997E-002    -6.5250521321513946E-019
  -2.9799999999999993E-002    -1.3820205870526075E-018
  -2.8699999999999989E-002    -2.0966449081742742E-018
  -2.7599999999999986E-002    -2.5390265669380197E-018
  -2.6499999999999996E-002    -2.3844659494186243E-018
  -2.5399999999999992E-002    -1.3115929007413932E-018
  -2.4299999999999988E-002     8.8302096691461049E-019
  -2.3199999999999985E-002     4.1403195965870168E-018
  -2.2099999999999995E-002     7.9992502342569389E-018
  -2.0999999999999991E-002     1.1517240105470864E-017
  -1.9899999999999987E-002     1.3315298137909432E-017
  -1.8799999999999983E-002     1.1801744547286763E-017
  -1.7699999999999994E-002     5.5913756919116557E-018
  -1.6599999999999990E-002    -5.9248918026692272E-018
  -1.5499999999999986E-002    -2.1978490922337892E-017
  -1.4399999999999996E-002    -3.9971957436458645E-017
  -1.3299999999999992E-002    -5.5388267171452513E-017
  -1.2199999999999989E-002    -6.2243402194737410E-017
  -1.1099999999999985E-002    -5.4173942106300833E-017
  -9.9999999999999950E-003    -2.6106822232923310E-017
  -8.8999999999999913E-003     2.3715770363988486E-017
  -7.7999999999999875E-003     9.1754216140141213E-017
  -6.6999999999999837E-003     1.6776278010241984E-016
  -5.5999999999999939E-003     2.3454732927459085E-016
  -4.4999999999999901E-003     2.6944091614553517E-016
  -3.3999999999999864E-003     2.4786863970064885E-016
  -2.2999999999999826E-003     1.4902140054874427E-016
  -1.1999999999999927E-003    -3.6878519715495881E-017
  -9.9999999999988987E-005    -3.0092017358210864E-016
   1.0000000000000148E-003    -6.0936084861265197E-016
   2.1000000000000185E-003    -9.0141003923497549E-016
   3.2000000000000084E-003    -1.0933738513917072E-015
   4.3000000000000121E-003    -1.0908597823772972E-015
   5.4000000000000159E-003    -8.0913355157150159E-016
   6.5000000000000058E-003    -1.9938322072998497E-016
   7.6000000000000234E-003     7.2394867066171566E-016
   8.7000000000000133E-003     1.8617231878714099E-015
   9.8000000000000032E-003     3.0223437848571774E-015
   1.0900000000000021E-002     3.9343889795427539E-015
   1.2000000000000011E-002     4.2831820681563515E-015
   1.3100000000000001E-002     3.7699655199449817E-015
   1.4200000000000018E-002     2.1866680996356398E-015
   1.5300000000000008E-002    -5.0604682557819381E-016
   1.6400000000000026E-002    -4.1135272004461846E-015
   1.7500000000000016E-002    -8.1721032166414829E-015
   1.8600000000000005E-002    -1.1960165668446957E-014
   1.9700000000000023E-002    -1.4566594089778574E-014
   2.0800000000000013E-002    -1.5020043537289799E-014
   2.1900000000000003E-002    -1.2471957218152876E-014
   2.3000000000000020E-002    -6.4132394407734294E-015
   2.4100000000000010E-002     3.1092101138251761E-015
   2.5200000000000000E-002     1.5321689510198239E-014
   2.6300000000000018E-002     2.8650112650461301E-014
   2.7400000000000008E-002     4.0790859962496049E-014
   2.8500000000000025E-002     4.8955641325138302E-014
   2.9600000000000015E-002     5.0288887042702736E-014
   3.0700000000000005E-002     4.2415980475057037E-014
   3.1800000000000023E-002     2.4039980849632760E-014
   3.2900000000000013E-002    -4.5254451625962244E-015
   3.4000000000000002E-002    -4.1008036435097867E-014
   3.5100000000000020E-002    -8.1117231369281591E-014
   3.6200000000000010E-002    -1.1883327962418346E-013
   3.7300000000000028E-002    -1.4704707172486345E-013
   3.8400000000000017E-002    -1.5849184737553012E-013
   3.9500000000000007E-002    -1.4685855413694551E-013
   4.0600000000000025E-002    -1.0795692298235620E-013
   4.1700000000000015E-002    -4.0775014748156761E-014
   4.2800000000000005E-002     5.1704632051942460E-014
   4.3900000000000022E-002     1.6206164319998273E-013
   4.5000000000000012E-002     2.7848093629191976E-013
   4.6100000000000002E-002     3.8537382949189076E-013
   4.7200000000000020E-002     4.6463056233800279E-013
   4.8300000000000010E-002     4.9749417279519826E-013
   4.9400000000000027E-002     4.6695505942632068E-013
   5.0500000000000017E-002     3.6045969463204680E-013
   5.1600000000000007E-002     1.7263059721023901E-013
   5.2700000000000025E-002    -9.2363039422798332E-014
   5.3800000000000014E-002    -4.1914351111135629E-013
   5.4900000000000004E-002    -7.8047130316691262E-013
   5.6000000000000022E-002    -1.1378054624385564E-012
   5.7100000000000012E-002    -1.4431903128724033E-012
   5.8200000000000002E-002    -1.6425212021836117E-012
   5.9300000000000019E-002    -1.6802167584540020E-012
   6.0400000000000009E-002    -1.5052985213976674E-012
   6.1500000000000027E-002    -1.0787858073183850E-012
   6.2600000000000017E-002    -3.8209080054181986E-013
   6.3700000000000007E-002     5.7427538680869351E-013
   6.4800000000000024E-002     1.7428482941372126E-012
   6.5900000000000014E-002     3.0338118129090931E-012
   6.7000000000000004E-002     4.3138942031576553E-012
   6.8100000000000022E-002     5.4112611439976527E-012
   6.9200000000000012E-002     6.1275268873298844E-012
   7.0300000000000029E-002     6.2570284827431424E-012
   7.1400000000000019E-002     5.6123150164937391E-012
   7.2500000000000009E-002     4.0536423008502470E-012
   7.3600000000000027E-002     1.5193659179767344E-012
   7.4700000000000016E-002    -1.9463726366753831E-012
   7.5800000000000006E-002    -6.1723686653366963E-012
   7.6900000000000024E-002    -1.0848985232016571E-011
   7.8000000000000014E-002    -1.5529813188123133E-011
   7.9100000000000004E-002    -1.9648974025157694E-011
   8.0200000000000021E-002    -2.2555959159113882E-011
   8.1300000000000011E-002    -2.3568771927816331E-011
   8.2400000000000029E-002    -2.2044405490637035E-011
   8.3500000000000019E-002    -1.7463293016392595E-011
   8.4600000000000009E-002    -9.5215038451300715E-012
   8.5700000000000026E-002     1.7783978365670872E-012
   8.6800000000000016E-002     1.6049129315041863E-011
   8.7900000000000006E-002     3.2465367340788641E-011
   8.9000000000000024E-002     4.9746965940747543E-011
   9.0100000000000013E-002     6.6188147172998456E-011
   9.1200000000000003E-002     7.9738681296630466E-011
   9.2300000000000021E-002     8.8138971211776408E-011
   9.3400000000000011E-002     8.9106606406221169E-011
   9.4500000000000028E-002     8.0567508221497457E-011
   9.5600000000000018E-002     6.0920100921510352E-011
   9.6700000000000008E-002     2.9315744697550341E-011
   9.7800000000000026E-002    -1.4067099749034348E-011
   9.8900000000000016E-002    -6.7783375674503312E-011
  0.10000000000000001         -1.2894987082810850E-010
  0.10110000000000002         -1.9317714793186873E-010
  0.10220000000000001         -2.5463863240440534E-010
  0.10330000000000003         -3.0630341799518045E-010
  0.10440000000000002         -3.4034697274423570E-010
  0.10550000000000001         -3.4873734768215944E-010
  0.10660000000000003         -3.2397563239678020E-010
  0.10770000000000002         -2.5995048404953252E-010
  0.10880000000000001         -1.5284948969767580E-010
  0.10990000000000003         -2.0561297302355863E-012
  0.11100000000000002          1.8904924896789744E-010
  0.11210000000000001          4.1247248213712509E-010
  0.11320000000000002          6.5526265613922561E-010
  0.11430000000000001          8.9952947512884355E-010
  0.11540000000000003          1.1228960126710325E-009
  0.11650000000000002          1.2994414149339927E-009
  0.11760000000000001          1.4011572421724789E-009
  0.11870000000000003          1.3999004499849888E-009
  0.11980000000000002          1.2697780305813031E-009
  0.12090000000000001          9.8984723396170618E-010
  0.12200000000000003          5.4696607866923621E-010
  0.12310000000000001         -6.1413658548513445E-011
  0.12420000000000003         -8.2475082267484713E-010
  0.12530000000000002         -1.7174754717030545E-009
  0.12640000000000001         -2.6978687485657763E-009
  0.12750000000000003         -3.7080129730758179E-009
  0.12860000000000002         -4.6750323947094571E-009
  0.12970000000000001         -5.5137938016429348E-009
  0.13080000000000003         -6.1311622471822995E-009
  0.13190000000000002         -6.4318103372886643E-009
  0.13300000000000001         -6.3254626416613285E-009
  0.13410000000000000         -5.7353262872994701E-009
  0.13520000000000004         -4.6073243078104952E-009
  0.13630000000000003         -2.9196212977607484E-009
  0.13740000000000002         -6.9182272429378301E-010
  0.13850000000000001          2.0068505181625471E-009
  0.13960000000000000          5.0511551444565464E-009
  0.14070000000000005          8.2559338050541877E-009
  0.14180000000000004          1.1375449636223675E-008
  0.14290000000000003          1.4106579107309291E-008
  0.14400000000000002          1.6096375499043911E-008
  0.14510000000000001          1.6954358521253884E-008
  0.14620000000000000          1.6269699394404824E-008
  0.14730000000000004          1.3633267945679171E-008
  0.14840000000000003          8.6643068041117784E-009
  0.14950000000000002          1.0413193462682637E-009
  0.15060000000000001         -9.4633742341004797E-009
  0.15170000000000000         -2.2946022706123173E-008
  0.15280000000000005         -3.9331359436768068E-008
  0.15390000000000004         -5.8330513264993584E-008
  0.15500000000000003         -7.9397145703825169E-008
  0.15610000000000002         -1.0168169047724597E-007
  0.15720000000000001         -1.2398308734527890E-007
  0.15830000000000000         -1.4469678219548148E-007
  0.15940000000000004         -1.6175700550902300E-007
  0.16050000000000003         -1.7257044295080531E-007
  0.16160000000000002         -1.7393738345576404E-007
  0.16270000000000001         -1.6195528696019899E-007
  0.16380000000000000         -1.3189847476320965E-007
  0.16490000000000005         -7.8066328056489121E-008
  0.16600000000000004          6.4090045437697338E-009
  0.16710000000000003          1.2980584103224686E-007
  0.16820000000000002          3.0211912106552556E-007
  0.16930000000000001          5.3544308764805253E-007
  0.17040000000000000          8.4444584904563093E-007
  0.17150000000000004          1.2469530690194606E-006
  0.17260000000000003          1.7646600965814815E-006
  0.17370000000000002          2.4239940970963780E-006
  0.17480000000000001          3.2571502015116630E-006
  0.17590000000000000          4.3033283653421025E-006
  0.17700000000000005          5.6102005366314083E-006
  0.17810000000000004          7.2356408777406030E-006
  0.17920000000000003          9.2497551591550625E-006
  0.18030000000000002          1.1737249009305230E-005
  0.18140000000000001          1.4800178394153381E-005
  0.18250000000000000          1.8561129406853432E-005
  0.18360000000000004          2.3166878023279037E-005
  0.18470000000000003          2.8792583735218421E-005
  0.18580000000000002          3.5646573680895246E-005
  0.18690000000000001          4.3975775782041497E-005
  0.18800000000000000          5.4071860153230866E-005
  0.18910000000000005          6.6278147309651868E-005
  0.19020000000000004          8.0997339051890619E-005
  0.19130000000000003          9.8700122893792108E-005
  0.19240000000000002          1.1993469303189800E-004
  0.19350000000000001          1.4533721962654852E-004
  0.19460000000000005          1.7564328307580692E-004
  0.19570000000000004          2.1170027054269152E-004
  0.19680000000000003          2.5448070782162116E-004
  0.19790000000000002          3.0509647034691000E-004
  0.19900000000000001          3.6481378248575107E-004
  0.20010000000000000          4.3506887405815462E-004
  0.20120000000000005          5.1748411725714911E-004
  0.20230000000000004          6.1388441593893497E-004
  0.20340000000000003          7.2631356294895701E-004
  0.20450000000000002          8.5705022031455429E-004
  0.20560000000000000          1.0086231125998827E-003
  0.20670000000000005          1.1838249565999388E-003
  0.20780000000000004          1.3857245822581005E-003
  0.20890000000000003          1.6176766319327669E-003
