 -0.12000000000000000          0.0000000000000000
 -0.11889999999999999          0.0000000000000000
 -0.11780000000000000          0.0000000000000000
 -0.11670000000000000          0.0000000000000000
 -0.11559999999999999          0.0000000000000000
 -0.11449999999999999          0.0000000000000000
 -0.11340000000000000          0.0000000000000000
 -0.11230000000000000          0.0000000000000000
 -0.11119999999999999          0.0000000000000000
 -0.11009999999999999          0.0000000000000000
 -0.10900000000000000          0.0000000000000000
 -0.10790000000000000         -1.5709525130837681E-163
 -0.10679999999999999          1.9471949837656861E-137
 -0.10569999999999999          3.3836208066743148E-112
 -0.10460000000000000          2.9545199238127886E-086
 -0.10349999999999999         -1.3928301264389650E-060
 -0.10239999999999999         -3.4747369392626941E-036
 -0.10130000000000000         -6.1150844868437909E-035
 -0.10020000000000000         -4.9750837156114371E-034
  -9.9099999999999994E-002    -2.3568720529954635E-033
  -9.7999999999999990E-002    -6.2404814188459349E-033
  -9.6899999999999986E-002    -2.2043813036035712E-033
  -9.5799999999999996E-002     5.6841926926097428E-032
  -9.4699999999999993E-002     2.5910215317575013E-031
  -9.3599999999999989E-002     5.3158750000869544E-031
  -9.2499999999999999E-002    -4.9026618517408731E-032
  -9.1399999999999995E-002    -4.0480694031230736E-030
  -9.0299999999999991E-002    -1.3722528623239606E-029
  -8.9200000000000002E-002    -2.0490473627460010E-029
  -8.8099999999999984E-002     1.4886977491082390E-029
  -8.6999999999999994E-002     1.6310581070841217E-028
  -8.5899999999999990E-002     4.2825972363470324E-028
  -8.4799999999999986E-002     4.7189944157645046E-028
  -8.3699999999999997E-002    -6.8726049292935371E-028
  -8.2599999999999993E-002    -4.2539263020121906E-027
  -8.1499999999999989E-002    -9.2435383743031138E-027
  -8.0399999999999999E-002    -7.8449138667926458E-027
  -7.9299999999999995E-002     1.7013420599408204E-026
  -7.8199999999999992E-002     7.9866424885226547E-026
  -7.7100000000000002E-002     1.5309498656651316E-025
  -7.5999999999999984E-002     1.0927998806211070E-025
  -7.4899999999999994E-002    -2.8235963798418157E-025
  -7.3799999999999991E-002    -1.1623229120393044E-024
  -7.2699999999999987E-002    -2.0836989360120115E-024
  -7.1599999999999997E-002    -1.4251910605756920E-024
  -7.0499999999999993E-002     3.4269087904173989E-024
  -6.9399999999999989E-002     1.3739327846027424E-023
  -6.8300000000000000E-002     2.4277254879535586E-023
  -6.7199999999999996E-002     1.7997152368799332E-023
  -6.6099999999999992E-002    -3.1125473240856032E-023
  -6.5000000000000002E-002    -1.3537535024228407E-022
  -6.3899999999999985E-002    -2.4698005327784733E-022
  -6.2799999999999995E-002    -2.1300590413507605E-022
  -6.1699999999999991E-002     2.0011045102980556E-022
  -6.0599999999999994E-002     1.1214856456374122E-021
  -5.9499999999999990E-002     2.2054144943270885E-021
  -5.8399999999999994E-002     2.2627351789731067E-021
  -5.7299999999999990E-002    -6.0839626474179002E-022
  -5.6199999999999986E-002    -7.7358203518042530E-021
  -5.5099999999999996E-002    -1.7209538545430341E-020
  -5.3999999999999992E-002    -2.1010328035035302E-020
  -5.2899999999999989E-002    -5.1607315818589337E-021
  -5.1799999999999985E-002     4.2659083968623125E-020
  -5.0699999999999995E-002     1.1589761245353381E-019
  -4.9599999999999991E-002     1.6831708065902893E-019
  -4.8499999999999988E-002     1.0828527502369045E-019
  -4.7399999999999998E-002    -1.6392470750781940E-019
  -4.6299999999999994E-002    -6.5720606425457763E-019
  -4.5199999999999990E-002    -1.1524829248874854E-018
  -4.4099999999999986E-002    -1.1229837200089557E-018
  -4.2999999999999997E-002     1.2793812140628274E-019
  -4.1899999999999993E-002     2.9712408865524908E-018
  -4.0799999999999989E-002     6.6470731988294167E-018
  -3.9699999999999985E-002     8.5698928388324935E-018
  -3.8599999999999995E-002     4.5685670369791696E-018
  -3.7499999999999992E-002    -9.0324895813388856E-018
  -3.6399999999999988E-002    -3.1280815238474298E-017
  -3.5299999999999984E-002    -5.1900083801938793E-017
  -3.4199999999999994E-002    -4.9756131568584676E-017
  -3.3099999999999991E-002     4.8298045320568778E-019
  -3.1999999999999987E-002     1.1028625581606929E-016
  -3.0899999999999997E-002     2.5127272813352408E-016
  -2.9799999999999993E-002     3.3552702125189380E-016
  -2.8699999999999989E-002     2.2612618561560914E-016
  -2.7599999999999986E-002    -1.9904990990460460E-016
  -2.6499999999999996E-002    -9.2842513799859073E-016
  -2.5399999999999992E-002    -1.6851741064072162E-015
  -2.4299999999999988E-002    -1.8785221675126794E-015
  -2.3199999999999985E-002    -7.6055222636086483E-016
  -2.2099999999999995E-002     2.1342872334905663E-015
  -2.0999999999999991E-002     6.3398793371721641E-015
  -1.9899999999999987E-002     9.9058782949391097E-015
  -1.8799999999999983E-002     9.4603711747688812E-015
  -1.7699999999999994E-002     1.4142994160996029E-015
  -1.6599999999999990E-002    -1.5548832475471780E-014
  -1.5499999999999986E-002    -3.7384101461583191E-014
  -1.4399999999999996E-002    -5.2731392541447773E-014
  -1.3299999999999992E-002    -4.4517217593838900E-014
  -1.2199999999999989E-002     2.9422001215840244E-015
  -1.1099999999999985E-002     9.1648669974379469E-014
  -9.9999999999999950E-003     1.9665544335648636E-013
  -8.8999999999999913E-003     2.6019154728599462E-013
  -7.7999999999999875E-003     2.0327764099306707E-013
  -6.6999999999999837E-003    -3.8815215120422447E-014
  -5.5999999999999939E-003    -4.6184978441600408E-013
  -4.4999999999999901E-003    -9.3954646192767720E-013
  -3.3999999999999864E-003    -1.2080264958302201E-012
  -2.2999999999999826E-003    -9.2659191473921153E-013
  -1.1999999999999927E-003     1.6609928940495491E-013
  -9.9999999999988987E-005     2.0275817050904516E-012
   1.0000000000000148E-003     4.1082421301967992E-012
   2.1000000000000185E-003     5.3093903062192762E-012
   3.2000000000000084E-003     4.2435710202343270E-012
   4.3000000000000121E-003    -1.4626734084906676E-013
   5.4000000000000159E-003    -7.7269994186430291E-012
   6.5000000000000058E-003    -1.6414489393746106E-011
   7.6000000000000234E-003    -2.2019277562611642E-011
   8.7000000000000133E-003    -1.9189993142666102E-011
   9.8000000000000032E-003    -3.6389377206404509E-012
   1.0900000000000021E-002     2.4768089040563733E-011
   1.2000000000000011E-002     5.9215904214112991E-011
   1.3100000000000001E-002     8.5147456129383239E-011
   1.4200000000000018E-002     8.3134728487585532E-011
   1.5300000000000008E-002     3.6103278465386846E-011
   1.6400000000000026E-002    -6.0293821086575199E-011
   1.7500000000000016E-002    -1.8769330841067366E-010
   1.8600000000000005E-002    -3.0077586912246149E-010
   1.9700000000000023E-002    -3.3416320847797402E-010
   2.0800000000000013E-002    -2.2322998130580665E-010
   2.1900000000000003E-002     6.3801569879553989E-011
   2.3000000000000020E-002     4.9202436847107849E-010
   2.4100000000000010E-002     9.3959610099623331E-010
   2.5200000000000000E-002     1.2077428114350636E-009
   2.6300000000000018E-002     1.0718080269486684E-009
   2.7400000000000008E-002     3.7042985720742510E-010
   2.8500000000000025E-002    -8.8886545017936486E-010
   2.9600000000000015E-002    -2.4469627795576407E-009
   3.0700000000000005E-002    -3.7806470610877862E-009
   3.1800000000000023E-002    -4.1983314481931368E-009
   3.2900000000000013E-002    -3.0524464931395090E-009
   3.4000000000000002E-002    -3.1317782415979935E-011
   3.5100000000000020E-002     4.5553254479726751E-009
   3.6200000000000010E-002     9.6159147686580596E-009
   3.7300000000000028E-002     1.3358171395614457E-008
   3.8400000000000017E-002     1.3679237203993968E-008
   3.9500000000000007E-002     8.8390936683290550E-009
   4.0600000000000025E-002    -1.7250580171944678E-009
   4.1700000000000015E-002    -1.6689997012911239E-008
   4.2800000000000005E-002    -3.2539729170687504E-008
   4.3900000000000022E-002    -4.3918643406883426E-008
   4.5000000000000012E-002    -4.4762756071848415E-008
   4.6100000000000002E-002    -3.0104883703227674E-008
   4.7200000000000020E-002     1.8054998670243878E-009
   4.8300000000000010E-002     4.7643204948310424E-008
   4.9400000000000027E-002     9.8086681878713969E-008
   5.0500000000000017E-002     1.3844375000596680E-007
   5.1600000000000007E-002     1.5116833928087391E-007
   5.2700000000000025E-002     1.2017992689053416E-007
   5.3800000000000014E-002     3.6364373850996562E-008
   5.4900000000000004E-002    -9.6892451672363649E-008
   5.6000000000000022E-002    -2.5968220316225584E-007
   5.7100000000000012E-002    -4.1474103143438174E-007
   5.8200000000000002E-002    -5.1124556650787501E-007
   5.9300000000000019E-002    -4.9399292350233353E-007
   6.0400000000000009E-002    -3.1758408715695178E-007
   6.1500000000000027E-002     3.6261767181267042E-008
   6.2600000000000017E-002     5.4175656891780990E-007
   6.3700000000000007E-002     1.1173339610065634E-006
   6.4800000000000024E-002     1.6247163641967469E-006
   6.5900000000000014E-002     1.8837038923515208E-006
   6.7000000000000004E-002     1.7053811933005754E-006
   6.8100000000000022E-002     9.4241235824625726E-007
   6.9200000000000012E-002    -4.5034732935663693E-007
   7.0300000000000029E-002    -2.3575985103681929E-006
   7.1400000000000019E-002    -4.4652309467997459E-006
   7.2500000000000009E-002    -6.2613070481315957E-006
   7.3600000000000027E-002    -7.0930907331756705E-006
   7.4700000000000016E-002    -6.2881761644580167E-006
   7.5800000000000006E-002    -3.3333034115638191E-006
   7.6900000000000024E-002     1.9141468146488164E-006
   7.8000000000000014E-002     9.0262158466289543E-006
   7.9100000000000004E-002     1.6875103687337352E-005
   8.0200000000000021E-002     2.3638564435279246E-005
   8.1300000000000011E-002     2.6993713253703472E-005
   8.2400000000000029E-002     2.4524671212022223E-005
   8.3500000000000019E-002     1.4323642623877573E-005
   8.4600000000000009E-002    -4.2930647729625565E-006
   8.5700000000000026E-002    -3.0092700612884069E-005
   8.6800000000000016E-002    -5.9443893194417042E-005
   8.7900000000000006E-002    -8.6250322426486276E-005
   8.9000000000000024E-002    -1.0248136065527947E-004
   9.0100000000000013E-002    -9.9402557893343022E-005
   9.1200000000000003E-002    -6.9476459587874333E-005
   9.2300000000000021E-002    -8.7299104916456222E-006
   9.3400000000000011E-002     8.0805960000797426E-005
   9.4500000000000028E-002     1.8914335064596009E-004
   9.5600000000000018E-002     2.9752905013367812E-004
   9.6700000000000008E-002     3.7941313519368019E-004
   9.7800000000000026E-002     4.0365175848355530E-004
   9.8900000000000016E-002     3.4005404431185947E-004
  0.10000000000000001          1.6688518448185167E-004
  0.10110000000000002         -1.2065336161228886E-004
  0.10220000000000001         -5.0253156782460761E-004
  0.10330000000000003         -9.2860073610831007E-004
  0.10440000000000002         -1.3180856053550162E-003
  0.10550000000000001         -1.5657845187763213E-003
  0.10660000000000003         -1.5561363547987076E-003
  0.10770000000000002         -1.1850175322115589E-003
  0.10880000000000001         -3.8740090492149303E-004
  0.10990000000000003          8.3294265319682620E-004
  0.11100000000000002          2.3773522530206974E-003
  0.11210000000000001          4.0367338917596815E-003
  0.11320000000000002          5.4937870442995527E-003
  0.11430000000000001          6.3490921674843603E-003
  0.11540000000000003          6.1743599900869785E-003
  0.11650000000000002          4.5917005585547907E-003
  0.11760000000000001          1.3720221615484967E-003
  0.11870000000000003         -3.4606578657461196E-003
  0.11980000000000002         -9.5380417870547882E-003
  0.12090000000000001         -1.6092588299382208E-002
  0.12200000000000003         -2.1962644098478378E-002
  0.12310000000000001         -2.5677977821880110E-002
  0.12420000000000003         -2.5637323149022062E-002
  0.12530000000000002         -2.0375738992340891E-002
  0.12640000000000001         -8.9016873474981675E-003
  0.12750000000000003          8.9362324166707644E-003
  0.12860000000000002          3.2111918268106165E-002
  0.12970000000000001          5.8186976111550763E-002
  0.13080000000000003          8.3257061684851294E-002
  0.13190000000000002         0.10215075337479178
  0.13300000000000001         0.10893015682815499
  0.13410000000000000          9.7704557549809001E-002
  0.13520000000000004          6.3716763209221705E-002
  0.13630000000000003          4.6011307655733653E-003
  0.13740000000000002         -7.8349618203418459E-002
  0.13850000000000001        -0.17912469809302678
  0.13960000000000000        -0.28639121556147917
  0.14070000000000005        -0.38359528169581791
  0.14180000000000004        -0.44997785554008773
  0.14290000000000003        -0.46262901932006129
  0.14400000000000002        -0.39957352923052225
  0.14510000000000001        -0.24371303419512111
  0.14620000000000000          1.2737355344439363E-002
  0.14730000000000004         0.36386474876437086
  0.14840000000000003         0.78642471373626543
  0.14950000000000002          1.2377440741599328
  0.15060000000000001          1.6559404627586609
  0.15170000000000000          1.9631168369967973
  0.15280000000000005          2.0719400255770184
  0.15390000000000004          1.8956409709084214
  0.15500000000000003          1.3610041118321436
  0.15610000000000002         0.42338679349107927
  0.15720000000000001        -0.91771395575367121
  0.15830000000000000         -2.6044792989786143
  0.15940000000000004         -4.5102029765415859
  0.16050000000000003         -6.4346546060647576
  0.16160000000000002         -8.1074920074849484
  0.16270000000000001         -9.2013505901118293
  0.16380000000000000         -9.3554541231729882
  0.16490000000000005         -8.2095642362775827
  0.16600000000000004         -5.4469049404037575
  0.16710000000000003        -0.84348844317420257
  0.16820000000000002          5.6798198383809968
  0.16930000000000001          14.006965281688901
  0.17040000000000000          23.782937724989868
  0.17150000000000004          34.381232729038366
  0.17260000000000003          44.886388852951455
  0.17370000000000002          54.094007222831898
  0.17480000000000001          60.528654435838028
  0.17590000000000000          62.477627251649970
  0.17700000000000005          58.035930474480672
  0.17810000000000004          45.155248993261743
  0.17920000000000003          21.687462831304288
  0.18030000000000002         -14.588370779887734
  0.18140000000000001         -65.967441013572795
  0.18250000000000000         -134.86071423208293
  0.18360000000000004         -223.88710108969974
  0.18470000000000003         -336.02470356800234
  0.18580000000000002         -474.82679591954593
  0.18690000000000001         -644.70501448476261
  0.18800000000000000         -851.27905277915841
  0.18910000000000005         -1101.7894020973110
  0.19020000000000004         -1405.5677474723013
  0.19130000000000003         -1774.5588560266999
  0.19240000000000002         -2223.8883917196931
  0.19350000000000001         -2772.4731125409166
  0.19460000000000005         -3443.6732312228537
  0.19570000000000004         -4265.9910488829482
  0.19680000000000003         -5273.8248471197476
  0.19790000000000002         -6508.2918786907348
  0.19900000000000001         -8018.1385054847206
  0.20010000000000000         -9860.7584836690785
  0.20120000000000005         -12103.341561221830
  0.20230000000000004         -14824.173549505751
  0.20340000000000003         -18114.105666809533
  0.20450000000000002         -22078.205251808107
  0.20560000000000000         -26837.592144376886
  0.20670000000000005         -32531.455546624700
  0.20780000000000004         -39319.235550566424
  0.20890000000000003         -47382.942346131931
