 -0.12000000000000000          0.0000000000000000
 -0.11889999999999999          0.0000000000000000
 -0.11780000000000000          0.0000000000000000
 -0.11670000000000000          0.0000000000000000
 -0.11559999999999999          0.0000000000000000
 -0.11449999999999999          0.0000000000000000
 -0.11340000000000000          0.0000000000000000
 -0.11230000000000000          0.0000000000000000
 -0.11119999999999999          0.0000000000000000
 -0.11009999999999999          0.0000000000000000
 -0.10900000000000000          0.0000000000000000
 -0.10790000000000000          0.0000000000000000
 -0.10679999999999999          0.0000000000000000
 -0.10569999999999999          0.0000000000000000
 -0.10460000000000000          3.0440468863614715E-201
 -0.10349999999999999          6.2728885868938627E-176
 -0.10239999999999999         -1.0227426569214335E-149
 -0.10130000000000000         -2.4016429802835197E-126
 -0.10020000000000000          4.5473603300065422E-100
  -9.9099999999999994E-002     1.6819044861289690E-075
  -9.7999999999999990E-002     1.7518782293684700E-051
  -9.6899999999999986E-002     3.5201372987742624E-050
  -9.5799999999999996E-002     3.2283747605874996E-049
  -9.4699999999999993E-002     1.6894468883540032E-048
  -9.3599999999999989E-002     4.6777488295218248E-048
  -9.2499999999999999E-002    -8.1201947515078832E-049
  -9.1399999999999995E-002    -6.7766408836582933E-047
  -9.0299999999999991E-002    -3.0007945974135194E-046
  -8.9200000000000002E-002    -5.5195671544654374E-046
  -8.8099999999999984E-002     7.0844327025881346E-046
  -8.6999999999999994E-002     7.6891940220264718E-045
  -8.5899999999999990E-002     2.2516536549523780E-044
  -8.4799999999999986E-002     2.0545064245111095E-044
  -8.3699999999999997E-002    -9.3291868854614391E-044
  -8.2599999999999993E-002    -4.5511069369779506E-043
  -8.1499999999999989E-002    -8.8291142689646787E-043
  -8.0399999999999999E-002    -3.5893214851879034E-046
  -7.9299999999999995E-002     5.2478028916986606E-042
  -7.8199999999999992E-002     1.6202900346273071E-041
  -7.7100000000000002E-002     2.0457977050867274E-041
  -7.5999999999999984E-002    -2.4309553005885983E-041
  -7.4899999999999994E-002    -1.7589331623016208E-040
  -7.3799999999999991E-002    -3.9215102019593206E-040
  -7.2699999999999987E-002    -2.8763855423735029E-040
  -7.1599999999999997E-002     1.0001479412931905E-039
  -7.0499999999999993E-002     4.1107885911622320E-039
  -6.9399999999999989E-002     7.0664346702379656E-039
  -6.8300000000000000E-002     1.9300552255965216E-039
  -6.7199999999999996E-002    -2.4206180238592524E-038
  -6.6099999999999992E-002    -7.3583272400228177E-038
  -6.5000000000000002E-002    -1.0174023482774028E-037
  -6.3899999999999985E-002     1.4980806168121859E-038
  -6.2799999999999995E-002     4.2857475589813730E-037
  -6.1699999999999991E-002     1.0745952923098617E-036
  -6.0599999999999994E-002     1.2422823318244369E-036
  -5.9499999999999990E-002    -6.3959890838937075E-037
  -5.8399999999999994E-002    -6.0605162709152627E-036
  -5.7299999999999990E-002    -1.3390437121116649E-035
  -5.6199999999999986E-002    -1.3561586167295601E-035
  -5.5099999999999996E-002     1.0559530053461226E-035
  -5.3999999999999992E-002     7.1830287375133176E-035
  -5.2899999999999989E-002     1.4697016113926312E-034
  -5.1799999999999985E-002     1.3821836741924454E-034
  -5.0699999999999995E-002    -1.2078023548691210E-034
  -4.9599999999999991E-002    -7.3445470326633206E-034
  -4.8499999999999988E-002    -1.4512725580860173E-033
  -4.7399999999999998E-002    -1.3500406266980126E-033
  -4.6299999999999994E-002     1.0451075041179968E-033
  -4.5199999999999990E-002     6.5865619967238322E-033
  -4.4099999999999986E-002     1.3051444366901087E-032
  -4.2999999999999997E-002     1.2697285144933587E-032
  -4.1899999999999993E-002    -6.6311316883321077E-033
  -4.0799999999999989E-002    -5.2162107951420334E-032
  -3.9699999999999985E-002    -1.0741477877520241E-031
  -3.8599999999999995E-002    -1.1370772829437406E-031
  -3.7499999999999992E-002     2.2531482227929987E-032
  -3.6399999999999988E-002     3.6381751256028594E-031
  -3.5299999999999984E-002     8.0828124021424595E-031
  -3.4199999999999994E-002     9.5349820277973413E-031
  -3.3099999999999991E-002     1.2641309651400177E-031
  -3.1999999999999987E-002    -2.2003281667465458E-030
  -3.0899999999999997E-002    -5.5296407513940317E-030
  -2.9799999999999993E-002    -7.3737521359599065E-030
  -2.8699999999999989E-002    -3.2330480349551175E-030
  -2.7599999999999986E-002     1.1069738076829328E-029
  -2.6499999999999996E-002     3.4029393269834723E-029
  -2.5399999999999992E-002     5.1953196403925499E-029
  -2.4299999999999988E-002     3.7121116182788161E-029
  -2.3199999999999985E-002    -4.0844054466413170E-029
  -2.2099999999999995E-002    -1.8495177658808208E-028
  -2.0999999999999991E-002    -3.2992265150309783E-028
  -1.9899999999999987E-002    -3.2021436185557703E-028
  -1.8799999999999983E-002     4.4517312572279107E-029
  -1.7699999999999994E-002     8.5696887073123826E-028
  -1.6599999999999990E-002     1.8648417903798542E-027
  -1.5499999999999986E-002     2.2862795488529073E-027
  -1.4399999999999996E-002     9.3272950656693639E-028
  -1.3299999999999992E-002    -3.1046005737991983E-027
  -1.2199999999999989E-002    -9.2014134938672076E-027
  -1.1099999999999985E-002    -1.3933103276415201E-026
  -9.9999999999999950E-003    -1.1014230520705383E-026
  -8.8999999999999913E-003     6.0744978164418770E-027
  -7.7999999999999875E-003     3.8149994544975702E-026
  -6.6999999999999837E-003     7.2879710043155238E-026
  -5.5999999999999939E-003     8.1065194259803283E-026
  -4.4999999999999901E-003     2.4290018201010821E-026
  -3.3999999999999864E-003    -1.2042925555315346E-025
  -2.2999999999999826E-003    -3.2262117446828280E-025
  -1.1999999999999927E-003    -4.6651357174147540E-025
  -9.9999999999988987E-005    -3.6025606375729041E-025
   1.0000000000000148E-003     1.7824236523094025E-025
   2.1000000000000185E-003     1.1529727050456538E-024
   3.2000000000000084E-003     2.1981420162901943E-024
   4.3000000000000121E-003     2.5025247585748219E-024
   5.4000000000000159E-003     1.0316533919126100E-024
   6.5000000000000058E-003    -2.8383746698654011E-024
   7.6000000000000234E-003    -8.3906923106739719E-024
   8.7000000000000133E-003    -1.2811999280031063E-023
   9.8000000000000032E-003    -1.1394817531085993E-023
   1.0900000000000021E-002     5.4291925395106812E-025
   1.2000000000000011E-002     2.3914917886913089E-023
   1.3100000000000001E-002     5.1536579726505879E-023
   1.4200000000000018E-002     6.6046462866035521E-023
   1.5300000000000008E-002     4.3764890631088473E-023
   1.6400000000000026E-002    -3.3056640325727253E-023
   1.7500000000000016E-002    -1.5733923855826162E-022
   1.8600000000000005E-002    -2.7993904467433291E-022
   1.9700000000000023E-002    -3.0840489852302880E-022
   2.0800000000000013E-002    -1.3662750172845832E-022
   2.1900000000000003E-002     2.8965626893008591E-022
   2.3000000000000020E-002     8.8844269639493635E-022
   2.4100000000000010E-002     1.3829238988131677E-021
   2.5200000000000000E-002     1.3322917585925149E-021
   2.6300000000000018E-002     3.0408462415630724E-022
   2.7400000000000008E-002    -1.8168113203994842E-021
   2.8500000000000025E-002    -4.4865273356451295E-021
   2.9600000000000015E-002    -6.3371719332195265E-021
   3.0700000000000005E-002    -5.4412056407969893E-021
   3.1800000000000023E-002    -1.6324158368868770E-022
   3.2900000000000013E-002     9.5163630615511627E-021
   3.4000000000000002E-002     2.0724387299875759E-020
   3.5100000000000020E-002     2.7341640172702159E-020
   3.6200000000000010E-002     2.1498893343394807E-020
   3.7300000000000028E-002    -2.6737328288178972E-021
   3.8400000000000017E-002    -4.3796779293004852E-020
   3.9500000000000007E-002    -8.8743940452947635E-020
   4.0600000000000025E-002    -1.1227733008471958E-019
   4.1700000000000015E-002    -8.3980613053441923E-020
   4.2800000000000005E-002     1.6683904345106002E-020
   4.3900000000000022E-002     1.8081146020001916E-019
   4.5000000000000012E-002     3.5481704826612146E-019
   4.6100000000000002E-002     4.4166975285963500E-019
   4.7200000000000020E-002     3.2891309594409633E-019
   4.8300000000000010E-002    -5.5403209112219053E-020
   4.9400000000000027E-002    -6.7350880195160143E-019
   5.0500000000000017E-002    -1.3271947497508415E-018
   5.1600000000000007E-002    -1.6667568402686810E-018
   5.2700000000000025E-002    -1.2921908735577691E-018
   5.3800000000000014E-002     5.3232963794880473E-020
   5.4900000000000004E-002     2.2490088116125929E-018
   5.6000000000000022E-002     4.6289637107146362E-018
   5.7100000000000012E-002     6.0108710645662171E-018
   5.8200000000000002E-002     5.0254658429271407E-018
   5.9300000000000019E-002     7.4175435343453889E-019
   6.0400000000000009E-002    -6.5762434381347977E-018
   6.1500000000000027E-002    -1.4909401057544327E-017
   6.2600000000000017E-002    -2.0526260191305758E-017
   6.3700000000000007E-002    -1.8941025769265240E-017
   6.4800000000000024E-002    -6.7919834526541309E-018
   6.5900000000000014E-002     1.5825688079581542E-017
   6.7000000000000004E-002     4.3514916123047271E-017
   6.8100000000000022E-002     6.5402209534691440E-017
   6.9200000000000012E-002     6.7582803801242364E-017
   7.0300000000000029E-002     3.8313597709876536E-017
   7.1400000000000019E-002    -2.5200620182440713E-017
   7.2500000000000009E-002    -1.1091372534445033E-016
   7.3600000000000027E-002    -1.9017990290134110E-016
   7.4700000000000016E-002    -2.2292940300501269E-016
   7.5800000000000006E-002    -1.7061229743612318E-016
   7.6900000000000024E-002    -1.4518593596114263E-017
   7.8000000000000014E-002     2.2644024814663958E-016
   7.9100000000000004E-002     4.8672834247103207E-016
   8.0200000000000021E-002     6.6178106989815173E-016
   8.1300000000000011E-002     6.3594758270162501E-016
   8.2400000000000029E-002     3.2718709262556859E-016
   8.3500000000000019E-002    -2.6371210366446368E-016
   8.4600000000000009E-002    -1.0183045214792781E-015
   8.5700000000000026E-002    -1.7001409495401884E-015
   8.6800000000000016E-002    -2.0022498818310860E-015
   8.7900000000000006E-002    -1.6412389128919493E-015
   8.9000000000000024E-002    -4.7781390592209779E-016
   9.0100000000000013E-002     1.3737202221720379E-015
   9.1200000000000003E-002     3.4925822926917173E-015
   9.2300000000000021E-002     5.1941890704998241E-015
   9.3400000000000011E-002     5.6841857257838459E-015
   9.4500000000000028E-002     4.3042597561169303E-015
   9.5600000000000018E-002     8.1220318638818258E-016
   9.6700000000000008E-002    -4.3891795421775505E-015
   9.7800000000000026E-002    -1.0165822442488569E-014
   9.8900000000000016E-002    -1.4778223654811734E-014
  0.10000000000000001         -1.6240167913177735E-014
  0.10110000000000002         -1.2866154342601421E-014
  0.10220000000000001         -3.8978695945992630E-015
  0.10330000000000003          9.9484789913196086E-015
  0.10440000000000002          2.6189569515057687E-014
  0.10550000000000001          4.0691219738317649E-014
  0.10660000000000003          4.8286500645936362E-014
  0.10770000000000002          4.3893135939814412E-014
  0.10880000000000001          2.4006860253187619E-014
  0.10990000000000003         -1.1685088236263796E-014
  0.11100000000000002         -5.8950585297714710E-014
  0.11210000000000001         -1.0838630474040030E-013
  0.11320000000000002         -1.4599384134219547E-013
  0.11430000000000001         -1.5531762706419568E-013
  0.11540000000000003         -1.2122662433664141E-013
  0.11650000000000002         -3.4978286196308401E-014
  0.11760000000000001          1.0035446758686042E-013
  0.11870000000000003          2.6556105947352576E-013
  0.11980000000000002          4.2389495331163834E-013
  0.12090000000000001          5.2435667619625675E-013
  0.12200000000000003          5.1076331039864755E-013
  0.12310000000000001          3.3640837944313563E-013
  0.12420000000000003         -1.7700769288191831E-014
  0.12530000000000002         -5.2501424075054670E-013
  0.12640000000000001         -1.1015795553652063E-012
  0.12750000000000003         -1.6062359320070182E-012
  0.12860000000000002         -1.8578520421042304E-012
  0.12970000000000001         -1.6715793201849033E-012
  0.13080000000000003         -9.1131463995470909E-013
  0.13190000000000002          4.5024786365042325E-013
  0.13300000000000001          2.2781702341829855E-012
  0.13410000000000000          4.2463021465270945E-012
  0.13520000000000004          5.8507316697511991E-012
  0.13630000000000003          6.4787212514994167E-012
  0.13740000000000002          5.5359002778249717E-012
  0.13850000000000001          2.6195712710506341E-012
  0.13960000000000000         -2.2912426896770971E-012
  0.14070000000000005         -8.6741901559835914E-012
  0.14180000000000004         -1.5385286562787662E-011
  0.14290000000000003         -2.0717532607127002E-011
  0.14400000000000002         -2.2634216319407846E-011
  0.14510000000000001         -1.9182950785793944E-011
  0.14620000000000000         -9.0513563324735484E-012
  0.14730000000000004          7.8265473957199907E-012
  0.14840000000000003          2.9751860668422721E-011
  0.14950000000000002          5.2998714459875778E-011
  0.15060000000000001          7.1975056986939558E-011
  0.15170000000000000          7.9927931768644081E-011
  0.15280000000000005          7.0222858809542369E-011
  0.15390000000000004          3.8093622555591308E-011
  0.15500000000000003         -1.7397886319444151E-011
  0.15610000000000002         -9.1602219779025925E-011
  0.15720000000000001         -1.7323842017148308E-010
  0.15830000000000000         -2.4459818486542014E-010
  0.15940000000000004         -2.8342533544938626E-010
  0.16050000000000003         -2.6665002429501279E-010
  0.16160000000000002         -1.7577438738165727E-010
  0.16270000000000001         -3.2305815161904221E-012
  0.16380000000000000          2.4145757175782838E-010
  0.16490000000000005          5.2727061384013172E-010
  0.16600000000000004          8.0077501204997038E-010
  0.16710000000000003          9.9023651851638859E-010
  0.16820000000000002          1.0156971304934570E-009
  0.16930000000000001          8.0488665645671230E-010
  0.17040000000000000          3.1341914105654118E-010
  0.17150000000000004         -4.5385475764153126E-010
  0.17260000000000003         -1.4248957862854027E-009
  0.17370000000000002         -2.4513721435670431E-009
  0.17480000000000001         -3.3138107677834083E-009
  0.17590000000000000         -3.7451191395650319E-009
  0.17700000000000005         -3.4739035574879272E-009
  0.17810000000000004         -2.2850420587713252E-009
  0.17920000000000003         -9.0168574728801064E-011
  0.18030000000000002          3.0041314352711894E-009
  0.18140000000000001          6.6464728070635614E-009
  0.18250000000000000          1.0226905555706846E-008
  0.18360000000000004          1.2915355317456010E-008
  0.18470000000000003          1.3762720832798627E-008
  0.18580000000000002          1.1865193612822222E-008
  0.18690000000000001          6.5789461385502635E-009
  0.18800000000000000         -2.2429652771749886E-009
  0.18910000000000005         -1.4034230501379870E-008
  0.19020000000000004         -2.7372791339130617E-008
  0.19130000000000003         -3.9968618083393751E-008
  0.19240000000000002         -4.8830507963858869E-008
  0.19350000000000001         -5.0640324908496649E-008
  0.19460000000000005         -4.2330027547458220E-008
  0.19570000000000004         -2.1813535639331588E-008
  0.19680000000000003          1.1222637501427109E-008
  0.19790000000000002          5.4610894296301519E-008
  0.19900000000000001          1.0324859194353027E-007
  0.20010000000000000          1.4907848513376661E-007
  0.20120000000000005          1.8165764716116177E-007
  0.20230000000000004          1.8940416043502198E-007
  0.20340000000000003          1.6150721436300219E-007
  0.20450000000000002          9.0351423914554323E-008
  0.20560000000000000         -2.5843695114674283E-008
  0.20670000000000005         -1.8060906902020929E-007
  0.20780000000000004         -3.5757840391188828E-007
  0.20890000000000003         -5.3018161767237501E-007
