 -0.12000000000000000          0.0000000000000000
 -0.11889999999999999          0.0000000000000000
 -0.11780000000000000          0.0000000000000000
 -0.11670000000000000          0.0000000000000000
 -0.11559999999999999          0.0000000000000000
 -0.11449999999999999          0.0000000000000000
 -0.11340000000000000          0.0000000000000000
 -0.11230000000000000          0.0000000000000000
 -0.11119999999999999          0.0000000000000000
 -0.11009999999999999          0.0000000000000000
 -0.10900000000000000          0.0000000000000000
 -0.10790000000000000          0.0000000000000000
 -0.10679999999999999         -1.1887665259235201E-134
 -0.10569999999999999         -1.9331924373553398E-109
 -0.10460000000000000          1.6670047587363857E-084
 -0.10349999999999999          1.3618442326854594E-059
 -0.10239999999999999          1.4413723600019761E-035
 -0.10130000000000000          2.5049351977540842E-034
 -0.10020000000000000          2.0011470653347955E-033
  -9.9099999999999994E-002     9.1881436313712801E-033
  -9.7999999999999990E-002     2.2462357213170076E-032
  -9.6899999999999986E-002    -4.0650783958089632E-033
  -9.5799999999999996E-002    -2.6762409294645268E-031
  -9.4699999999999993E-002    -1.0996767036810571E-030
  -9.3599999999999989E-002    -2.0538216004610907E-030
  -9.2499999999999999E-002     9.4534185154432646E-031
  -9.1399999999999995E-002     1.8364451126381193E-029
  -9.0299999999999991E-002     5.7441194122339587E-029
  -8.9200000000000002E-002     7.7151148285333672E-029
  -8.8099999999999984E-002    -8.9153938190266910E-029
  -8.6999999999999994E-002    -7.1620319876432355E-028
  -8.5899999999999990E-002    -1.7479457714434974E-027
  -8.4799999999999986E-002    -1.6702391183946184E-027
  -8.3699999999999997E-002     3.5338837625227634E-027
  -8.2599999999999993E-002     1.8193149469424609E-026
  -8.1499999999999989E-002     3.6661707261664231E-026
  -8.0399999999999999E-002     2.5334150687902074E-026
  -7.9299999999999995E-002    -8.3023110577436765E-026
  -7.8199999999999992E-002    -3.3411762480461863E-025
  -7.7100000000000002E-002    -5.8971755923972567E-025
  -7.5999999999999984E-002    -3.1792186747823068E-025
  -7.4899999999999994E-002     1.3543660469094368E-024
  -7.3799999999999991E-002     4.7784243956857257E-024
  -7.2699999999999987E-002     7.8177613917800587E-024
  -7.1599999999999997E-002     3.8688540194466814E-024
  -7.0499999999999993E-002    -1.6584120070743751E-023
  -6.9399999999999989E-002    -5.5842894942113757E-023
  -6.8300000000000000E-002    -8.9264066981254007E-023
  -6.7199999999999996E-002    -4.8714114389033842E-023
  -6.6099999999999992E-002     1.5761100920807294E-022
  -6.5000000000000002E-002     5.4855580191132473E-022
  -6.3899999999999985E-002     8.9738860824035059E-022
  -6.2799999999999995E-002     5.9946631863857035E-022
  -6.1699999999999991E-002    -1.1524302910154905E-021
  -6.0599999999999994E-002    -4.5858916489738970E-021
  -5.9499999999999990E-002    -7.9933756633679390E-021
  -5.8399999999999994E-002    -6.6783416148290886E-021
  -5.7299999999999990E-002     5.8815680825394058E-021
  -5.6199999999999986E-002     3.2552285742317766E-020
  -5.5099999999999996E-002     6.2866014045481968E-020
  -5.3999999999999992E-002     6.4752502348487908E-020
  -5.2899999999999989E-002    -9.9414446790612895E-021
  -5.1799999999999985E-002    -1.9203651643321492E-019
  -5.0699999999999995E-002    -4.3218282353307696E-019
  -4.9599999999999991E-002    -5.3926465100144403E-019
  -4.8499999999999988E-002    -1.9244505938850445E-019
  -4.7399999999999998E-002     8.8376169629520898E-019
  -4.6299999999999994E-002     2.5513914131029754E-018
  -4.5199999999999990E-002     3.8382214519278075E-018
  -4.4099999999999986E-002     2.8447523172893937E-018
  -4.2999999999999997E-002    -2.4963828242484651E-018
  -4.1899999999999993E-002    -1.2504276728586693E-017
  -4.0799999999999989E-002    -2.3174527444814543E-017
  -3.9699999999999985E-002    -2.4712985919614915E-017
  -3.8599999999999995E-002    -3.9756442415015139E-018
  -3.7499999999999992E-002     4.6884128315410000E-017
  -3.6399999999999988E-002     1.1653683832172319E-016
  -3.5299999999999984E-002     1.6240385975692149E-016
  -3.4199999999999994E-002     1.1367460566909971E-016
  -3.3099999999999991E-002    -9.6419870543670766E-017
  -3.1999999999999987E-002    -4.6591455365880135E-016
  -3.0899999999999997E-002    -8.4935229360272250E-016
  -2.9799999999999993E-002    -9.2781366413499500E-016
  -2.8699999999999989E-002    -2.9689234035920012E-016
  -2.7599999999999986E-002     1.2800579828742521E-015
  -2.6499999999999996E-002     3.4977039003914625E-015
  -2.5399999999999992E-002     5.2026029887281811E-015
  -2.4299999999999988E-002     4.4735978275396978E-015
  -2.3199999999999985E-002    -5.9864518582769865E-016
  -2.2099999999999995E-002    -1.0382122941762997E-014
  -2.0999999999999991E-002    -2.1917425247147587E-014
  -1.9899999999999987E-002    -2.8023652799038579E-014
  -1.8799999999999983E-002    -1.8803107809792526E-014
  -1.7699999999999994E-002     1.3419718100813369E-014
  -1.6599999999999990E-002     6.6348990653575597E-014
  -1.5499999999999986E-002     1.2040356795732597E-013
  -1.4399999999999996E-002     1.3754446911512125E-013
  -1.3299999999999992E-002     7.2334454900630693E-014
  -1.2199999999999989E-002    -1.0232835580531214E-013
  -1.1099999999999985E-002    -3.6067916766942899E-013
  -9.9999999999999950E-003    -5.9747976656884242E-013
  -8.8999999999999913E-003    -6.3390680449465816E-013
  -7.7999999999999875E-003    -2.7772789231303750E-013
  -6.6999999999999837E-003     5.5994211125505041E-013
  -5.5999999999999939E-003     1.7246210987705919E-012
  -4.4999999999999901E-003     2.7285485313770803E-012
  -3.3999999999999864E-003     2.8059857533044809E-012
  -2.2999999999999826E-003     1.1854396152716682E-012
  -1.1999999999999927E-003    -2.4344444874724405E-012
  -9.9999999999988987E-005    -7.3540401065327171E-012
   1.0000000000000148E-003    -1.1572022400867121E-011
   2.1000000000000185E-003    -1.2054767903330091E-011
   3.2000000000000084E-003    -5.8036392207828386E-012
   4.3000000000000121E-003     8.3713611032408321E-012
   5.4000000000000159E-003     2.7932292354033531E-011
   6.5000000000000058E-003     4.5549642774881414E-011
   7.6000000000000234E-003     5.0039540480186348E-011
   8.7000000000000133E-003     3.0037357670961085E-011
   9.8000000000000032E-003    -1.9915356051412082E-011
   1.0900000000000021E-002    -9.2694191544574202E-011
   1.2000000000000011E-002    -1.6453160284486422E-010
   1.3100000000000001E-002    -1.9724542302775056E-010
   1.4200000000000018E-002    -1.4924011409387579E-010
   1.5300000000000008E-002     5.3424674115310242E-012
   1.6400000000000026E-002     2.5439258973151413E-010
   1.7500000000000016E-002     5.3184122815787611E-010
   1.8600000000000005E-002     7.1909395237048443E-010
   1.9700000000000023E-002     6.7249771035572606E-010
   2.0800000000000013E-002     2.7751855193231908E-010
   2.1900000000000003E-002    -4.8178615445709053E-010
   2.3000000000000020E-002    -1.4620560695905492E-009
   2.4100000000000010E-002    -2.3404811753185859E-009
   2.5200000000000000E-002    -2.6643029837987149E-009
   2.6300000000000018E-002    -1.9824748767800095E-009
   2.7400000000000008E-002    -4.2664932335399942E-011
   2.8500000000000025E-002     2.9984970144895253E-009
   2.9600000000000015E-002     6.4333725405524725E-009
   3.0700000000000005E-002     9.0201461728969236E-009
   3.1800000000000023E-002     9.2264457990002737E-009
   3.2900000000000013E-002     5.7085242498542001E-009
   3.4000000000000002E-002    -2.0533019938708218E-009
   3.5100000000000020E-002    -1.3138385890022924E-008
   3.6200000000000010E-002    -2.4836182224139738E-008
   3.7300000000000028E-002    -3.2822456587876587E-008
   3.8400000000000017E-002    -3.2041074568680417E-008
   3.9500000000000007E-002    -1.8289964026034238E-008
   4.0600000000000025E-002     9.7531878700047089E-009
   4.1700000000000015E-002     4.8616470676105141E-008
   4.2800000000000005E-002     8.8997943703417828E-008
   4.3900000000000022E-002     1.1641044024285762E-007
   4.5000000000000012E-002     1.1406359513221445E-007
   4.6100000000000002E-002     6.7973750971832548E-008
   4.7200000000000020E-002    -2.6534359966873332E-008
   4.8300000000000010E-002    -1.5867143353974055E-007
   4.9400000000000027E-002    -2.9878374088063982E-007
   5.0500000000000017E-002    -4.0021079474107403E-007
   5.1600000000000007E-002    -4.0811260089730835E-007
   5.2700000000000025E-002    -2.7521416340094294E-007
   5.3800000000000014E-002     1.8095276102993786E-008
   5.4900000000000004E-002     4.4452155481260893E-007
   5.6000000000000022E-002     9.1858241583651305E-007
   5.7100000000000012E-002     1.3005164017692058E-006
   5.8200000000000002E-002     1.4202753130641031E-006
   5.9300000000000019E-002     1.1215588436706202E-006
   6.0400000000000009E-002     3.1909040215087309E-007
   6.1500000000000027E-002    -9.4459395542581438E-007
   6.2600000000000017E-002    -2.4614039921394406E-006
   6.3700000000000007E-002    -3.8580265091589818E-006
   6.4800000000000024E-002    -4.6479275939560118E-006
   6.5900000000000014E-002    -4.3372324526994063E-006
   6.7000000000000004E-002    -2.5711055237894962E-006
   6.8100000000000022E-002     7.0901511636869533E-007
   6.9200000000000012E-002     5.1393582763308580E-006
   7.0300000000000029E-002     9.8849425330693000E-006
   7.1400000000000019E-002     1.3706273688616060E-005
   7.2500000000000009E-002     1.5160038895741861E-005
   7.3600000000000027E-002     1.2922153736851365E-005
   7.4700000000000016E-002     6.1865447679907061E-006
   7.5800000000000006E-002    -4.9394939492653101E-006
   7.6900000000000024E-002    -1.9144458277661355E-005
   7.8000000000000014E-002    -3.3831228451195964E-005
   7.9100000000000004E-002    -4.5330573352587448E-005
   8.0200000000000021E-002    -4.9450749112683542E-005
   8.1300000000000011E-002    -4.2338345401360610E-005
   8.2400000000000029E-002    -2.1546012602693849E-005
   8.3500000000000019E-002     1.2877069236079788E-005
   8.4600000000000009E-002     5.7519028206950755E-005
   8.5700000000000026E-002     1.0523780065330137E-004
   8.6800000000000016E-002     1.4554142803488638E-004
   8.7900000000000006E-002     1.6587673012420884E-004
   8.9000000000000024E-002     1.5383477968779620E-004
   9.0100000000000013E-002     1.0007954123921365E-004
   9.1200000000000003E-002     1.5829145565611794E-006
   9.2300000000000021E-002    -1.3545271023479363E-004
   9.3400000000000011E-002    -2.9373461744604419E-004
   9.4500000000000028E-002    -4.4484429470813546E-004
   9.5600000000000018E-002    -5.5164123614897989E-004
   9.6700000000000008E-002    -5.7339910662121396E-004
   9.7800000000000026E-002    -4.7348354556369217E-004
   9.8900000000000016E-002    -2.2878383263371513E-004
  0.10000000000000001          1.6051427539206609E-004
  0.10110000000000002          6.6276276417569040E-004
  0.10220000000000001          1.2105498403444258E-003
  0.10330000000000003          1.7024649921199102E-003
  0.10440000000000002          2.0126044657458966E-003
  0.10550000000000001          2.0084397785366482E-003
  0.10660000000000003          1.5761426638998398E-003
  0.10770000000000002          6.5061584063580023E-004
  0.10880000000000001         -7.5439222846470451E-004
  0.10990000000000003         -2.5222195950158422E-003
  0.11100000000000002         -4.4221129750158629E-003
  0.11210000000000001         -6.1173015586879686E-003
  0.11320000000000002         -7.1967561553595060E-003
  0.11430000000000001         -7.2316767342719820E-003
  0.11540000000000003         -5.8531869422125916E-003
  0.11650000000000002         -2.8425802312642633E-003
  0.11760000000000001          1.7793768219941479E-003
  0.11870000000000003          7.6811196928809897E-003
  0.11980000000000002          1.4185246995743778E-002
  0.12090000000000001          2.0286324715231802E-002
  0.12200000000000003          2.4732957854018394E-002
  0.12310000000000001          2.6177192833417091E-002
  0.12420000000000003          2.3383449322761842E-002
  0.12530000000000002          1.5477078528540909E-002
  0.12640000000000001          2.2010086907672650E-003
  0.12750000000000003         -1.5860272709754850E-002
  0.12860000000000002         -3.7134956384120316E-002
  0.12970000000000001         -5.9040602747859827E-002
  0.13080000000000003         -7.8118906819163461E-002
  0.13190000000000002         -9.0347927698952127E-002
  0.13300000000000001         -9.1628095762146741E-002
  0.13410000000000000         -7.8410362973359488E-002
  0.13520000000000004         -4.8405221492926330E-002
  0.13630000000000003         -1.2841400142902684E-003
  0.13740000000000002          6.0735036056523750E-002
  0.13850000000000001         0.13253536658748685
  0.13960000000000000         0.20608998497452716
  0.14070000000000005         0.27087704646049177
  0.14180000000000004         0.31476119728711266
  0.14290000000000003         0.32532403450228115
  0.14400000000000002         0.29155815311299171
  0.14510000000000001         0.20576987667305169
  0.14620000000000000          6.5474297745783519E-002
  0.14730000000000004        -0.12497701047893835
  0.14840000000000003        -0.35331105949644187
  0.14950000000000002        -0.59904827392263083
  0.15060000000000001        -0.83421830748109815
  0.15170000000000000         -1.0251867075370968
  0.15280000000000005         -1.1355820697434140
  0.15390000000000004         -1.1301756258587012
  0.15500000000000003        -0.97942489742840289
  0.15610000000000002        -0.66426676979121357
  0.15720000000000001        -0.18064949610473091
  0.15830000000000000         0.45675811615527634
  0.15940000000000004          1.2122385384576806
  0.16050000000000003          2.0285731272202501
  0.16160000000000002          2.8288374979817488
  0.16270000000000001          3.5206409290831391
  0.16380000000000000          4.0027890228037890
  0.16490000000000005          4.1741068315062053
  0.16600000000000004          3.9439126134363622
  0.16710000000000003          3.2434026485883720
  0.16820000000000002          2.0370181628567807
  0.16930000000000001         0.33273808803979626
  0.17040000000000000         -1.8098058322357620
  0.17150000000000004         -4.2744501722781676
  0.17260000000000003         -6.8877746973523104
  0.17370000000000002         -9.4232163339670567
  0.17480000000000001         -11.610398577591473
  0.17590000000000000         -13.149688954175412
  0.17700000000000005         -13.731606612365299
  0.17810000000000004         -13.060315700340993
  0.17920000000000003         -10.880089183449195
  0.18030000000000002         -7.0033417265061049
  0.18140000000000001         -1.3386355656703144
  0.18250000000000000          6.0830176242956240
  0.18360000000000004          15.085184909923219
  0.18470000000000003          25.327800371605871
  0.18580000000000002          36.294795249580893
  0.18690000000000001          47.288151556590130
  0.18800000000000000          57.428318536137589
  0.18910000000000005          65.660168418233098
  0.19020000000000004          70.762818131089432
  0.19130000000000003          71.360753071163288
  0.19240000000000002          65.932813928087526
  0.19350000000000001          52.814809982245343
  0.19460000000000005          30.190863953330435
  0.19570000000000004         -3.9318719882950646
  0.19680000000000003         -51.770724781523306
  0.19790000000000002         -115.84282135610154
  0.19900000000000001         -199.07357464183337
  0.20010000000000000         -304.94327355520358
  0.20120000000000005         -437.67619980572789
  0.20230000000000004         -602.47617483716942
  0.20340000000000003         -805.81202563972749
  0.20450000000000002         -1055.7562527438567
  0.20560000000000000         -1362.3802729007443
  0.20670000000000005         -1738.2100471264685
  0.20780000000000004         -2198.7467067937650
  0.20890000000000003         -2763.0579281286268
