 -0.12000000000000000          0.0000000000000000
 -0.11889999999999999          0.0000000000000000
 -0.11780000000000000          0.0000000000000000
 -0.11670000000000000          0.0000000000000000
 -0.11559999999999999          0.0000000000000000
 -0.11449999999999999          0.0000000000000000
 -0.11340000000000000          0.0000000000000000
 -0.11230000000000000          0.0000000000000000
 -0.11119999999999999          0.0000000000000000
 -0.11009999999999999          0.0000000000000000
 -0.10900000000000000          0.0000000000000000
 -0.10790000000000000          0.0000000000000000
 -0.10679999999999999          0.0000000000000000
 -0.10569999999999999          0.0000000000000000
 -0.10460000000000000          0.0000000000000000
 -0.10349999999999999          0.0000000000000000
 -0.10239999999999999          0.0000000000000000
 -0.10130000000000000          1.2906066179361921E-051
 -0.10020000000000000          2.9765480397080134E-050
  -9.9099999999999994E-002     3.4024448375356940E-049
  -9.7999999999999990E-002     2.5577753354574436E-048
  -9.6899999999999986E-002     1.4138170180901985E-047
  -9.5799999999999996E-002     6.0780450974310936E-047
  -9.4699999999999993E-002     2.0907944797785796E-046
  -9.3599999999999989E-002     5.7983085510052500E-046
  -9.2499999999999999E-002     1.2703602030186158E-045
  -9.1399999999999995E-002     2.0039111133957794E-045
  -9.0299999999999991E-002     1.2577606580408924E-045
  -8.9200000000000002E-002    -5.2500465168532384E-045
  -8.8099999999999984E-002    -2.6309202710584173E-044
  -8.6999999999999994E-002    -7.5553667337628844E-044
  -8.5899999999999990E-002    -1.6573783007666607E-043
  -8.4799999999999986E-002    -2.8486033210874580E-043
  -8.3699999999999997E-002    -3.2784645652607128E-043
  -8.2599999999999993E-002     5.3179529929826563E-044
  -8.1499999999999989E-002     1.6747073007711523E-042
  -8.0399999999999999E-002     5.9144245562732384E-042
  -7.9299999999999995E-002     1.3985903593397244E-041
  -7.8199999999999992E-002     2.4095645183150795E-041
  -7.7100000000000002E-002     2.5236075184701703E-041
  -7.5999999999999984E-002    -1.1135183352960069E-041
  -7.4899999999999994E-002    -1.3331251554615111E-040
  -7.3799999999999991E-002    -3.8628163591703302E-040
  -7.2699999999999987E-002    -7.3697201474870957E-040
  -7.1599999999999997E-002    -9.3639120022577246E-040
  -7.0499999999999993E-002    -3.6890178853205459E-040
  -6.9399999999999989E-002     1.9433339318716757E-039
  -6.8300000000000000E-002     6.8824041824874628E-039
  -6.7199999999999996E-002     1.4013320853060420E-038
  -6.6099999999999992E-002     1.9604473441856248E-038
  -6.5000000000000002E-002     1.4712420172220204E-038
  -6.3899999999999985E-002    -1.4603058136447042E-038
  -6.2799999999999995E-002    -8.1783748313570768E-038
  -6.1699999999999991E-002    -1.8612419096037234E-037
  -6.0599999999999994E-002    -2.9126486018680305E-037
  -5.9499999999999990E-002    -3.0321928924680298E-037
  -5.8399999999999994E-002    -6.5611909616464545E-038
  -5.7299999999999990E-002     6.0054343297363377E-037
  -5.6199999999999986E-002     1.7837623659665489E-036
  -5.5099999999999996E-002     3.2844185403512674E-036
  -5.3999999999999992E-002     4.3684760944268351E-036
  -5.2899999999999989E-002     3.5906125463587791E-036
  -5.1799999999999985E-002    -1.0905088123559605E-036
  -5.0699999999999995E-002    -1.1598540459154501E-035
  -4.9599999999999991E-002    -2.8149123644797023E-035
  -4.8499999999999988E-002    -4.6778470144713158E-035
  -4.7399999999999998E-002    -5.6637785543684872E-035
  -4.6299999999999994E-002    -3.8744506666639921E-035
  -4.5199999999999990E-002     3.0964417513164810E-035
  -4.4099999999999986E-002     1.7092119342561840E-034
  -4.2999999999999997E-002     3.7356357097347544E-034
  -4.1899999999999993E-002     5.7787901221135599E-034
  -4.0799999999999989E-002     6.4565265280646408E-034
  -3.9699999999999985E-002     3.6245583984482217E-034
  -3.8599999999999995E-002    -5.0835580043696794E-034
  -3.7499999999999992E-002    -2.0944666583448944E-033
  -3.6399999999999988E-002    -4.2067851786181876E-033
  -3.5299999999999984E-002    -6.1058064142820162E-033
  -3.4199999999999994E-002    -6.3622656048138793E-033
  -3.3099999999999991E-002    -2.9960350478941214E-033
  -3.1999999999999987E-002     5.9078061524373823E-033
  -3.0899999999999997E-002     2.0994155417963682E-032
  -2.9799999999999993E-002     3.9964780614075145E-032
  -2.8699999999999989E-002     5.5933964574918436E-032
  -2.7599999999999986E-002     5.6755019979109444E-032
  -2.6499999999999996E-002     2.6599378060550196E-032
  -2.5399999999999992E-002    -4.8961301753803029E-032
  -2.4299999999999988E-002    -1.7382563238757136E-031
  -2.3199999999999985E-002    -3.2925275536467321E-031
  -2.2099999999999995E-002    -4.6234151858189898E-031
  -2.0999999999999991E-002    -4.8159201413789779E-031
  -1.9899999999999987E-002    -2.6829189320553005E-031
  -1.8799999999999983E-002     2.8770446493363926E-031
  -1.7699999999999994E-002     1.2239306385032380E-030
  -1.6599999999999990E-002     2.4200058288070722E-030
  -1.5499999999999986E-002     3.5151081562864553E-030
  -1.4399999999999996E-002     3.8721235657940529E-030
  -1.3299999999999992E-002     2.6473855128781718E-030
  -1.2199999999999989E-002    -9.7677311156487133E-031
  -1.1099999999999985E-002    -7.3711726349719330E-030
  -9.9999999999999950E-003    -1.5896077132476509E-029
  -8.8999999999999913E-003    -2.4347052923288601E-029
  -7.7999999999999875E-003    -2.8682573477042838E-029
  -6.6999999999999837E-003    -2.3390568467001015E-029
  -5.5999999999999939E-003    -2.8346903755471775E-030
  -4.4999999999999901E-003     3.6265376095304026E-029
  -3.3999999999999864E-003     9.1462202343887008E-029
  -2.2999999999999826E-003     1.5114280773067046E-028
  -1.1999999999999927E-003     1.9249518738865101E-028
  -9.9999999999988987E-005     1.8282261056798337E-028
   1.0000000000000148E-003     8.6128423716209677E-029
   2.1000000000000185E-003    -1.2395454035882628E-028
   3.2000000000000084E-003    -4.4571308888177174E-028
   4.3000000000000121E-003    -8.2909473658866201E-028
   5.4000000000000159E-003    -1.1607440043742823E-027
   6.5000000000000058E-003    -1.2642968539764282E-027
   7.6000000000000234E-003    -9.2670375955180964E-028
   8.7000000000000133E-003     4.1635920294361816E-029
   9.8000000000000032E-003     1.7133466254909261E-027
   1.0900000000000021E-002     3.9312823502994743E-027
   1.2000000000000011E-002     6.2080780174353136E-027
   1.3100000000000001E-002     7.6864888700445550E-027
   1.4200000000000018E-002     7.2179537821574589E-027
   1.5300000000000008E-002     3.6091291835553866E-027
   1.6400000000000026E-002    -3.9462598081160222E-027
   1.7500000000000016E-002    -1.5293454462814078E-026
   1.8600000000000005E-002    -2.8727025176289365E-026
   1.9700000000000023E-002    -4.0600141510791252E-026
   2.0800000000000013E-002    -4.5409619809593445E-026
   2.1900000000000003E-002    -3.6630382485134637E-026
   2.3000000000000020E-002    -8.4653609176958261E-027
   2.4100000000000010E-002     4.1558097341950989E-026
   2.5200000000000000E-002     1.0956625029189258E-025
   2.6300000000000018E-002     1.8272260344378187E-025
   2.7400000000000008E-002     2.3820367895853745E-025
   2.8500000000000025E-002     2.4509587570485649E-025
   2.9600000000000015E-002     1.7029970819207665E-025
   3.0700000000000005E-002    -1.1235240811632162E-026
   3.1800000000000023E-002    -3.0293598777512418E-025
   3.2900000000000013E-002    -6.7241026150308679E-025
   3.4000000000000002E-002    -1.0411271620142425E-024
   3.5100000000000020E-002    -1.2837312629085890E-024
   3.6200000000000010E-002    -1.2427665825217206E-024
   3.7300000000000028E-002    -7.6267092650765872E-025
   3.8400000000000017E-002     2.5737742938741854E-025
   3.9500000000000007E-002     1.7986861668801722E-024
   4.0600000000000025E-002     3.6610556729045453E-024
   4.1700000000000015E-002     5.4254336824047413E-024
   4.2800000000000005E-002     6.4669235242518801E-024
   4.3900000000000022E-002     6.0413426683428048E-024
   4.5000000000000012E-002     3.4571622409400266E-024
   4.6100000000000002E-002    -1.6764674621494069E-024
   4.7200000000000020E-002    -9.1639788314504708E-024
   4.8300000000000010E-002    -1.7970074262732999E-023
   4.9400000000000027E-002    -2.6094714881380845E-023
   5.0500000000000017E-002    -3.0680958443260998E-023
   5.1600000000000007E-002    -2.8440804178484064E-023
   5.2700000000000025E-002    -1.6429224541898563E-023
   5.3800000000000014E-002     6.8941686199193670E-024
   5.4900000000000004E-002     4.0492295210122160E-023
   5.6000000000000022E-002     7.9761248843760050E-023
   5.7100000000000012E-002     1.1610542951193044E-022
   5.8200000000000002E-002     1.3747281057839479E-022
   5.9300000000000019E-002     1.3015192387021167E-022
   6.0400000000000009E-002     8.1907586318959335E-023
   6.1500000000000027E-002    -1.3816506745317498E-023
   6.2600000000000017E-002    -1.5332890057226043E-022
   6.3700000000000007E-002    -3.1887752757169893E-022
   6.4800000000000024E-002    -4.7700750167153970E-022
   6.5900000000000014E-002    -5.8052843755685345E-022
   6.7000000000000004E-002    -5.7516402150900400E-022
   6.8100000000000022E-002    -4.1113524512671596E-022
   6.9200000000000012E-002    -5.8687151577972597E-023
   7.0300000000000029E-002     4.7492724598231176E-022
   7.1400000000000019E-002     1.1309400119580134E-021
   7.2500000000000009E-002     1.7919604050027191E-021
   7.3600000000000027E-002     2.2872665135379907E-021
   7.4700000000000016E-002     2.4142843534382274E-021
   7.5800000000000006E-002     1.9773540118777512E-021
   7.6900000000000024E-002     8.4085074200760770E-022
   7.8000000000000014E-002    -1.0111154690194002E-021
   7.9100000000000004E-002    -3.4209214960502870E-021
   8.0200000000000021E-002    -6.0254341996952675E-021
   8.1300000000000011E-002    -8.2623108274137178E-021
   8.2400000000000029E-002    -9.4279168993464875E-021
   8.3500000000000019E-002    -8.7925360103781796E-021
   8.4600000000000009E-002    -5.7667275731313814E-021
   8.5700000000000026E-002    -9.8079762629851651E-023
   8.6800000000000016E-002     7.9372687969632251E-021
   8.7900000000000006E-002     1.7395655487817208E-020
   8.9000000000000024E-002     2.6631431476355969E-020
   9.0100000000000013E-002     3.3413076453483418E-020
   9.1200000000000003E-002     3.5217315730994307E-020
   9.2300000000000021E-002     2.9697320959551760E-020
   9.3400000000000011E-002     1.5280015099655163E-020
   9.4500000000000028E-002    -8.1970941672159836E-021
   9.5600000000000018E-002    -3.8938310377014813E-020
   9.6700000000000008E-002    -7.2883373175199136E-020
   9.7800000000000026E-002    -1.0379142269034411E-019
   9.8900000000000016E-002    -1.2382792381703677E-019
  0.10000000000000001         -1.2469477309699247E-019
  0.10110000000000002         -9.9240325010966389E-020
  0.10220000000000001         -4.3364370518526174E-020
  0.10330000000000003          4.2086469152646541E-020
  0.10440000000000002          1.4982936346396751E-019
  0.10550000000000001          2.6549575360957613E-019
  0.10660000000000003          3.6821555792426923E-019
  0.10770000000000002          4.3269814379253541E-019
  0.10880000000000001          4.3285252648790545E-019
  0.10990000000000003          3.4669794362663078E-019
  0.11100000000000002          1.6199166386691307E-019
  0.11210000000000001         -1.1830253335895087E-019
  0.11320000000000002         -4.7180071095885403E-019
  0.11430000000000001         -8.5490625161877956E-019
  0.11540000000000003         -1.2044756952377712E-018
  0.11650000000000002         -1.4436241750892410E-018
  0.11760000000000001         -1.4917771181044846E-018
  0.11870000000000003         -1.2783321670677995E-018
  0.11980000000000002         -7.5847710334411613E-019
  0.12090000000000001          7.1056905222933240E-020
  0.12200000000000003          1.1590959405402297E-018
  0.12310000000000001          2.3929943094262648E-018
  0.12420000000000003          3.6002628119766275E-018
  0.12530000000000002          4.5608917961229237E-018
  0.12640000000000001          5.0311454406894284E-018
  0.12750000000000003          4.7779217492331875E-018
  0.12860000000000002          3.6208426015967366E-018
  0.12970000000000001          1.4773027043408682E-018
  0.13080000000000003         -1.5959446292865225E-018
  0.13190000000000002         -5.3721479526037405E-018
  0.13300000000000001         -9.4425359111706550E-018
  0.13410000000000000         -1.3229681211753547E-017
  0.13520000000000004         -1.6030906868293236E-017
  0.13630000000000003         -1.7093094107571594E-017
  0.13740000000000002         -1.5715954442690001E-017
  0.13850000000000001         -1.1375892600639688E-017
  0.13960000000000000         -3.8575401146508155E-018
  0.14070000000000005          6.6244532029486615E-018
  0.14180000000000004          1.9333971048147126E-017
  0.14290000000000003          3.2974050924269774E-017
  0.14400000000000002          4.5719680441189902E-017
  0.14510000000000001          5.5338026496078443E-017
  0.14620000000000000          5.9403074839964185E-017
  0.14730000000000004          5.5600151473430310E-017
  0.14840000000000003          4.2101750128604889E-017
  0.14950000000000002          1.7980723129162644E-017
  0.15060000000000001         -1.6388037080735582E-017
  0.15170000000000000         -5.8998574364796461E-017
  0.15280000000000005         -1.0602576587621610E-016
  0.15390000000000004         -1.5184583083997776E-016
  0.15500000000000003         -1.8932272146737180E-016
  0.15610000000000002         -2.1039603450132676E-016
  0.15720000000000001         -2.0697313702059105E-016
  0.15830000000000000         -1.7208548970133522E-016
  0.15940000000000004         -1.0122010739405480E-016
  0.16050000000000003          6.3129631837777525E-018
  0.16160000000000002          1.4616044259383987E-016
  0.16270000000000001          3.0806659676434980E-016
  0.16380000000000000          4.7559737920762172E-016
  0.16490000000000005          6.2665034812536226E-016
  0.16600000000000004          7.3489943665039343E-016
  0.16710000000000003          7.7223565774410028E-016
  0.16820000000000002          7.1214521860058927E-016
  0.16930000000000001          5.3382333114981512E-016
  0.17040000000000000          2.2666835385164191E-016
  0.17150000000000004         -2.0534550773872202E-016
  0.17260000000000003         -7.4003677897773574E-016
  0.17370000000000002         -1.3348135416927569E-015
  0.17480000000000001         -1.9265801237623481E-015
  0.17590000000000000         -2.4343399033532127E-015
  0.17700000000000005         -2.7648847484701715E-015
  0.17810000000000004         -2.8216653171082118E-015
  0.17920000000000003         -2.5165519121146954E-015
  0.18030000000000002         -1.7837490664566719E-015
  0.18140000000000001         -5.9465873736806096E-016
  0.18250000000000000          1.0279504930938152E-015
  0.18360000000000004          2.9984558352009538E-015
  0.18470000000000003          5.1617489424246706E-015
  0.18580000000000002          7.2936016384213029E-015
  0.18690000000000001          9.1098632003547439E-015
  0.18800000000000000          1.0285712662910789E-014
  0.18910000000000005          1.0485270440558551E-014
  0.19020000000000004          9.4006790330104720E-015
  0.19130000000000003          6.7983671007184580E-015
  0.19240000000000002          2.5687324708190244E-015
  0.19350000000000001         -3.2259246748400436E-015
  0.19460000000000005         -1.0311528582035274E-014
  0.19570000000000004         -1.8177399308966855E-014
  0.19680000000000003         -2.6073462303941264E-014
  0.19790000000000002         -3.3035665312737697E-014
  0.19900000000000001         -3.7944004140533543E-014
  0.20010000000000000         -3.9614823152767639E-014
  0.20120000000000005         -3.6925435456999714E-014
  0.20230000000000004         -2.8964807051158951E-014
  0.20340000000000003         -1.5199401854869080E-014
  0.20450000000000002          4.3612579886497279E-015
  0.20560000000000000          2.9018653841680496E-014
  0.20670000000000005          5.7280931941839500E-014
  0.20780000000000004          8.6822930604006920E-014
  0.20890000000000003          1.1453174293617273E-013
