 -0.12000000000000000          0.0000000000000000
 -0.11889999999999999          0.0000000000000000
 -0.11780000000000000          0.0000000000000000
 -0.11670000000000000          0.0000000000000000
 -0.11559999999999999          0.0000000000000000
 -0.11449999999999999          0.0000000000000000
 -0.11340000000000000         -7.0825901503583617E-075
 -0.11230000000000000         -5.3282143985841954E-050
 -0.11119999999999999          8.3137227116035925E-025
 -0.11009999999999999          9.2052453957658181E-024
 -0.10900000000000000          4.6028092117888882E-023
 -0.10790000000000000          1.2381496666924526E-022
 -0.10679999999999999          1.1502411238893325E-022
 -0.10569999999999999         -4.6447760900506587E-022
 -0.10460000000000000         -2.2750644213494058E-021
 -0.10349999999999999         -4.5770473677024737E-021
 -0.10239999999999999         -2.1082761178784838E-021
 -0.10130000000000000          1.5827954667112255E-020
 -0.10020000000000000          5.5047904993140607E-020
  -9.9099999999999994E-002     8.8378746629782084E-020
  -9.7999999999999990E-002     2.6037997612923169E-020
  -9.6899999999999986E-002    -2.5819687508416255E-019
  -9.5799999999999996E-002    -7.7020253633495475E-019
  -9.4699999999999993E-002    -1.1168040432604536E-018
  -9.3599999999999989E-002    -3.4073382758993999E-019
  -9.2499999999999999E-002     2.6450851153327265E-018
  -9.1399999999999995E-002     7.6162169497291953E-018
  -9.0299999999999991E-002     1.0993458274957642E-017
  -8.9200000000000002E-002     5.1123176169205030E-018
  -8.8099999999999984E-002    -1.8121392443356950E-017
  -8.6999999999999994E-002    -5.7328675834915619E-017
  -8.5899999999999990E-002    -8.8900378992360065E-017
  -8.4799999999999986E-002    -6.2914185766280606E-017
  -8.3699999999999997E-002     7.5730826590100171E-017
  -8.2599999999999993E-002     3.3204962555193502E-016
  -8.1499999999999989E-002     5.8932312574439608E-016
  -8.0399999999999999E-002     5.7744290873089955E-016
  -7.9299999999999995E-002    -3.8913299781020863E-017
  -7.8199999999999992E-002    -1.4040267404401606E-015
  -7.7100000000000002E-002    -3.1107613433385535E-015
  -7.5999999999999984E-002    -3.9657850624507615E-015
  -7.4899999999999994E-002    -2.2266360644930994E-015
  -7.3799999999999991E-002     3.4278140598234616E-015
  -7.2699999999999987E-002     1.2325771657854725E-014
  -7.1599999999999997E-002     2.0397477405971750E-014
  -7.0499999999999993E-002     2.0252588575085901E-014
  -6.9399999999999989E-002     3.9938336005260722E-015
  -6.8300000000000000E-002    -3.1092161502662868E-014
  -6.7199999999999996E-002    -7.5935682579353292E-014
  -6.6099999999999992E-002    -1.0638726811622923E-013
  -6.5000000000000002E-002    -8.8226091654729570E-014
  -6.3899999999999985E-002     6.7899729833177758E-015
  -6.2799999999999995E-002     1.7689164860859690E-013
  -6.1699999999999991E-002     3.6894665869070025E-013
  -6.0599999999999994E-002     4.7581479893372169E-013
  -5.9499999999999990E-002     3.6657682602801690E-013
  -5.8399999999999994E-002    -4.8351116763912874E-014
  -5.7299999999999990E-002    -7.3575815635440402E-013
  -5.6199999999999986E-002    -1.4810528846089897E-012
  -5.5099999999999996E-002    -1.8999644220530459E-012
  -5.3999999999999992E-002    -1.5524735210336015E-012
  -5.2899999999999989E-002    -1.4952447837254068E-013
  -5.1799999999999985E-002     2.2123159716523505E-012
  -5.0699999999999995E-002     4.8975099661575267E-012
  -4.9599999999999991E-002     6.7736429151229246E-012
  -4.8499999999999988E-002     6.5111671511720362E-012
  -4.7399999999999998E-002     3.1018327552184921E-012
  -4.6299999999999994E-002    -3.5577301291056990E-012
  -4.5199999999999990E-002    -1.2246389372000010E-011
  -4.4099999999999986E-002    -2.0383831904090037E-011
  -4.2999999999999997E-002    -2.4498624571884988E-011
  -4.1899999999999993E-002    -2.1152469001221393E-011
  -4.0799999999999989E-002    -8.1152908964770305E-012
  -3.9699999999999985E-002     1.4502519916006569E-011
  -3.8599999999999995E-002     4.3447976485336176E-011
  -3.7499999999999992E-002     7.2073754580797848E-011
  -3.6399999999999988E-002     9.0800201927987659E-011
  -3.5299999999999984E-002     8.8456583851804211E-011
  -3.4199999999999994E-002     5.4693887873953174E-011
  -3.3099999999999991E-002    -1.6422289692132789E-011
  -3.1999999999999987E-002    -1.2189835192310306E-010
  -3.0899999999999997E-002    -2.4536652753759840E-010
  -2.9799999999999993E-002    -3.5461331173396944E-010
  -2.8699999999999989E-002    -4.0363341431683654E-010
  -2.7599999999999986E-002    -3.4148478597471821E-010
  -2.6499999999999996E-002    -1.2852192938241271E-010
  -2.5399999999999992E-002     2.4250758732059795E-010
  -2.4299999999999988E-002     7.2667195030331466E-010
  -2.3199999999999985E-002     1.2171880497735422E-009
  -2.2099999999999995E-002     1.5545656189181864E-009
  -2.0999999999999991E-002     1.5591894168780690E-009
  -1.9899999999999987E-002     1.0842956657650876E-009
  -1.8799999999999983E-002     7.7163221789628668E-011
  -1.7699999999999994E-002    -1.3707405255660179E-009
  -1.6599999999999990E-002    -3.0053288732403296E-009
  -1.5499999999999986E-002    -4.4375611877361422E-009
  -1.4399999999999996E-002    -5.2184898158231749E-009
  -1.3299999999999992E-002    -4.9471039858925592E-009
  -1.2199999999999989E-002    -3.3836615331956285E-009
  -1.1099999999999985E-002    -5.3701856515929140E-010
  -9.9999999999999950E-003     3.2988628508528749E-009
  -8.8999999999999913E-003     7.5687728175826009E-009
  -7.7999999999999875E-003     1.1532346406991380E-008
  -6.6999999999999837E-003     1.4371691119273309E-008
  -5.5999999999999939E-003     1.5307520877504064E-008
  -4.4999999999999901E-003     1.3708573683358640E-008
  -3.3999999999999864E-003     9.1912845007019346E-009
  -2.2999999999999826E-003     1.7145815180043460E-009
  -1.1999999999999927E-003    -8.3285710960847079E-009
  -9.9999999999988987E-005    -2.0036122743643584E-008
   1.0000000000000148E-003    -3.1970586763283811E-008
   2.1000000000000185E-003    -4.2223984050457941E-008
   3.2000000000000084E-003    -4.8607091983147071E-008
   4.3000000000000121E-003    -4.8963620877111397E-008
   5.4000000000000159E-003    -4.1564349646602839E-008
   6.5000000000000058E-003    -2.5497158257592845E-008
   7.6000000000000234E-003    -9.5738142944379902E-010
   8.7000000000000133E-003     3.0630053878146152E-008
   9.8000000000000032E-003     6.6667213967823051E-008
   1.0900000000000021E-002     1.0356593248499898E-007
   1.2000000000000011E-002     1.3697012148661818E-007
   1.3100000000000001E-002     1.6195035099979792E-007
   1.4200000000000018E-002     1.7317545725087065E-007
   1.5300000000000008E-002     1.6515863138047274E-007
   1.6400000000000026E-002     1.3273578896163643E-007
   1.7500000000000016E-002     7.1911917023578015E-008
   1.8600000000000005E-002    -1.8912748519456730E-008
   1.9700000000000023E-002    -1.3752092082643999E-007
   2.0800000000000013E-002    -2.7663837595787076E-007
   2.1900000000000003E-002    -4.2335107556312659E-007
   2.3000000000000020E-002    -5.5958680059948840E-007
   2.4100000000000010E-002    -6.6382828713366690E-007
   2.5200000000000000E-002    -7.1387963696328630E-007
   2.6300000000000018E-002    -6.9018214073155217E-007
   2.7400000000000008E-002    -5.7900043925611713E-007
   2.8500000000000025E-002    -3.7485350921931157E-007
   2.9600000000000015E-002    -8.1832074210427646E-008
   3.0700000000000005E-002     2.8618519081491438E-007
   3.1800000000000023E-002     7.0609079996771109E-007
   3.2900000000000013E-002     1.1464411242962784E-006
   3.4000000000000002E-002     1.5683745271974170E-006
   3.5100000000000020E-002     1.9265645185438470E-006
   3.6200000000000010E-002     2.1705601686590034E-006
   3.7300000000000028E-002     2.2470539632206750E-006
   3.8400000000000017E-002     2.1035359120993749E-006
   3.9500000000000007E-002     1.6934517090572112E-006
   4.0600000000000025E-002     9.8251664553296503E-007
   4.1700000000000015E-002    -4.4555595810159835E-008
   4.2800000000000005E-002    -1.3778011760751125E-006
   4.3900000000000022E-002    -2.9769768347069397E-006
   4.5000000000000012E-002    -4.7681368535670368E-006
   4.6100000000000002E-002    -6.6417981075643777E-006
   4.7200000000000020E-002    -8.4524064930065775E-006
   4.8300000000000010E-002    -1.0018759498254549E-005
   4.9400000000000027E-002    -1.1125128552505418E-005
   5.0500000000000017E-002    -1.1522895740442769E-005
   5.1600000000000007E-002    -1.0932405063802934E-005
   5.2700000000000025E-002    -9.0443703168473011E-006
   5.3800000000000014E-002    -5.5196878707451096E-006
   5.4900000000000004E-002     1.3889485977391594E-008
   5.6000000000000022E-002     7.9698079926475962E-006
   5.7100000000000012E-002     1.8816686213667572E-005
   5.8200000000000002E-002     3.3098674883088257E-005
   5.9300000000000019E-002     5.1461969753454914E-005
   6.0400000000000009E-002     7.4686951487107768E-005
   6.1500000000000027E-002     1.0372578652997612E-004
   6.2600000000000017E-002     1.3974627089324509E-004
   6.3700000000000007E-002     1.8418385009487723E-004
   6.4800000000000024E-002     2.3880455611558917E-004
   6.5900000000000014E-002     3.0578162544379558E-004
   6.7000000000000004E-002     3.8778771623479072E-004
   6.8100000000000022E-002     4.8810329137701435E-004
   6.9200000000000012E-002     6.1074055735763002E-004
   7.0300000000000029E-002     7.6058202293972292E-004
   7.1400000000000019E-002     9.4353358370946215E-004
   7.2500000000000009E-002     1.1666937944223191E-003
   7.3600000000000027E-002     1.4385428991189675E-003
   7.4700000000000016E-002     1.7691563163463239E-003
   7.5800000000000006E-002     2.1704469821266590E-003
   7.6900000000000024E-002     2.6564392455983984E-003
   7.8000000000000014E-002     3.2435746053826324E-003
   7.9100000000000004E-002     3.9510475753479803E-003
   8.0200000000000021E-002     4.8011693220749883E-003
   8.1300000000000011E-002     5.8197576774662958E-003
   8.2400000000000029E-002     7.0365540379737253E-003
   8.3500000000000019E-002     8.4856691738836188E-003
   8.4600000000000009E-002     1.0206059680168730E-002
   8.5700000000000026E-002     1.2242033952582228E-002
   8.6800000000000016E-002     1.4643781532866997E-002
   8.7900000000000006E-002     1.7467913849045169E-002
   8.9000000000000024E-002     2.0777999633509375E-002
   9.0100000000000013E-002     2.4645076029602652E-002
   9.1200000000000003E-002     2.9148116789709126E-002
   9.2300000000000021E-002     3.4374440811209259E-002
   9.3400000000000011E-002     4.0420045425181766E-002
   9.4500000000000028E-002     4.7389847310903704E-002
   9.5600000000000018E-002     5.5397808760833570E-002
   9.6700000000000008E-002     6.4566919083320559E-002
   9.7800000000000026E-002     7.5028992514075979E-002
   9.8900000000000016E-002     8.6924237956947398E-002
  0.10000000000000001         0.10040055430152130
  0.10110000000000002         0.11561250838072699
  0.10220000000000001         0.13271995936517497
  0.10330000000000003         0.15188630091056798
  0.10440000000000002         0.17327629817886875
  0.10550000000000001         0.19705349980717771
  0.10660000000000003         0.22337720579386805
  0.10770000000000002         0.25239897343849460
  0.10880000000000001         0.28425864762307740
  0.10990000000000003         0.31907991063599422
  0.11100000000000002         0.35696536045976102
  0.11210000000000001         0.39799114341057423
  0.11320000000000002         0.44220118504227945
  0.11430000000000001         0.48960108075858094
  0.11540000000000003         0.54015172452286619
  0.11650000000000002         0.59376277166028646
  0.11760000000000001         0.65028605154945263
  0.11870000000000003         0.70950906843949402
  0.11980000000000002         0.77114875213906642
  0.12090000000000001         0.83484564156649510
  0.12200000000000003         0.90015869939654469
  0.12310000000000001         0.96656096307980721
  0.12420000000000003          1.0334362370238148
  0.12530000000000002          1.1000770262058488
  0.12640000000000001          1.1656839075163954
  0.12750000000000003          1.2293665346699274
  0.12860000000000002          1.2901464745698767
  0.12970000000000001          1.3469620720083892
  0.13080000000000003          1.3986755271173297
  0.13190000000000002          1.4440823384048656
  0.13300000000000001          1.4819232104448214
  0.13410000000000000          1.5108984530836067
  0.13520000000000004          1.5296848182358020
  0.13630000000000003          1.5369546432351626
  0.13740000000000002          1.5313971058908489
  0.13850000000000001          1.5117413485417490
  0.13960000000000000          1.4767811910045265
  0.14070000000000005          1.4254011142795484
  0.14180000000000004          1.3566031469683113
  0.14290000000000003          1.2695342190680816
  0.14400000000000002          1.1635134669757343
  0.14510000000000001          1.0380588917798692
  0.14620000000000000         0.89291270709990123
  0.14730000000000004         0.72806467731577873
  0.14840000000000003         0.54377274849413459
  0.14950000000000002         0.34058030908144660
  0.15060000000000001         0.11932947432277027
  0.15170000000000000        -0.11883014571359879
  0.15280000000000005        -0.37243766850470250
  0.15390000000000004        -0.63972256042241327
  0.15500000000000003        -0.91861199441775132
  0.15610000000000002         -1.2067441945787141
  0.15720000000000001         -1.5014879083571162
  0.15830000000000000         -1.7999680137898988
  0.15940000000000004         -2.0990971181850799
  0.16050000000000003         -2.3956128469576496
  0.16160000000000002         -2.6861203664058655
  0.16270000000000001         -2.9671395377221916
  0.16380000000000000         -3.2351559621585309
  0.16490000000000005         -3.4866750478892610
  0.16600000000000004         -3.7182781092338861
  0.16710000000000003         -3.9266794056528465
  0.16820000000000002         -4.1087829533427067
  0.16930000000000001         -4.2617379084891747
  0.17040000000000000         -4.3829913340819759
  0.17150000000000004         -4.4703372165630988
  0.17260000000000003         -4.5219606791115723
  0.17370000000000002         -4.5364764258833610
  0.17480000000000001         -4.5129605327348612
  0.17590000000000000         -4.4509747756173130
  0.17700000000000005         -4.3505827745671883
  0.17810000000000004         -4.2123573549744462
  0.17920000000000003         -4.0373787109684356
  0.18030000000000002         -3.8272232036790257
  0.18140000000000001         -3.5839429208742994
  0.18250000000000000         -3.3100364242473983
  0.18360000000000004         -3.0084113695508194
  0.18470000000000003         -2.6823398675502945
  0.18580000000000002         -2.3354075517162989
  0.18690000000000001         -1.9714573536908460
  0.18800000000000000         -1.5945290028506303
  0.18910000000000005         -1.2087953059512435
  0.19020000000000004        -0.81849635116598396
  0.19130000000000003        -0.42787290941981482
  0.19240000000000002         -4.1100435570893434E-002
  0.19350000000000001         0.33777485109827665
  0.19460000000000005         0.70489634851417104
  0.19570000000000004          1.0566525920545584
  0.19680000000000003          1.3897268192314627
  0.19790000000000002          1.7011397605093370
  0.19900000000000001          1.9882851046214216
  0.20010000000000000          2.2489573028632073
  0.20120000000000005          2.4813715297866374
  0.20230000000000004          2.6841757240705220
  0.20340000000000003          2.8564547263026512
  0.20450000000000002          2.9977266412947943
  0.20560000000000000          3.1079316958324208
  0.20670000000000005          3.1874140315681583
  0.20780000000000004          3.2368970458287660
  0.20890000000000003          3.2574530478944235
