 -0.12000000000000000          0.0000000000000000
 -0.11889999999999999          0.0000000000000000
 -0.11780000000000000          0.0000000000000000
 -0.11670000000000000          0.0000000000000000
 -0.11559999999999999          0.0000000000000000
 -0.11449999999999999          0.0000000000000000
 -0.11340000000000000          0.0000000000000000
 -0.11230000000000000          0.0000000000000000
 -0.11119999999999999          0.0000000000000000
 -0.11009999999999999          0.0000000000000000
 -0.10900000000000000          0.0000000000000000
 -0.10790000000000000          0.0000000000000000
 -0.10679999999999999          0.0000000000000000
 -0.10569999999999999          0.0000000000000000
 -0.10460000000000000          4.3660516446059466E-195
 -0.10349999999999999          9.2986153074401084E-171
 -0.10239999999999999         -1.0004207541400352E-145
 -0.10130000000000000          9.8433931171428205E-120
 -0.10020000000000000          7.9222432187108488E-095
  -9.9099999999999994E-002     2.7706040603502627E-070
  -9.7999999999999990E-002     1.9708622197527067E-046
  -9.6899999999999986E-002     4.0998034750270059E-045
  -9.5799999999999996E-002     3.9432024236852677E-044
  -9.4699999999999993E-002     2.2248970708918987E-043
  -9.3599999999999989E-002     7.2889277500258679E-043
  -9.2499999999999999E-002     6.9255188020378708E-043
  -9.1399999999999995E-002    -6.1814837588545312E-042
  -9.0299999999999991E-002    -3.6837239878567213E-041
  -8.9200000000000002E-002    -9.4413787391433043E-041
  -8.8099999999999984E-002    -3.2501136099554292E-041
  -8.6999999999999994E-002     7.0814132529014436E-040
  -8.5899999999999990E-002     2.9201980801525507E-039
  -8.4799999999999986E-002     5.1344755183915980E-039
  -8.3699999999999997E-002    -3.0148833170109821E-039
  -8.2599999999999993E-002    -4.5091405994723262E-038
  -8.1499999999999989E-002    -1.3013311511914877E-037
  -8.0399999999999999E-002    -1.4544919687186983E-037
  -7.9299999999999995E-002     3.0049184983499062E-037
  -7.8199999999999992E-002     1.7536866231194501E-036
  -7.7100000000000002E-002     3.7523179716047186E-036
  -7.5999999999999984E-002     2.1989964692611174E-036
  -7.4899999999999994E-002    -1.2307906958331207E-035
  -7.3799999999999991E-002    -4.6803676353131608E-035
  -7.2699999999999987E-002    -7.7679443668180915E-035
  -7.1599999999999997E-002    -8.5378569016651686E-036
  -7.0499999999999993E-002     3.2114622337825529E-034
  -6.9399999999999989E-002     9.3806192696140259E-034
  -6.8300000000000000E-002     1.2523832286991550E-033
  -6.7199999999999996E-002    -4.1219530257196352E-034
  -6.6099999999999992E-002    -6.1633214986018089E-033
  -6.5000000000000002E-002    -1.5081695959113017E-032
  -6.3899999999999985E-002    -1.6838696907244637E-032
  -6.2799999999999995E-002     1.1906328183190353E-032
  -6.1699999999999991E-002     9.3836253493961155E-032
  -6.0599999999999994E-002     2.0410904811047201E-031
  -5.9499999999999990E-002     2.0044000662727952E-031
  -5.8399999999999994E-002    -1.9216262537435955E-031
  -5.7299999999999990E-002    -1.1868718262130914E-030
  -5.6199999999999986E-002    -2.4065340241612757E-030
  -5.5099999999999996E-002    -2.2147272588141049E-030
  -5.3999999999999992E-002     2.2414103088117716E-030
  -5.2899999999999989E-002     1.2837392244736211E-029
  -5.1799999999999985E-002     2.5290032616379489E-029
  -5.0699999999999995E-002     2.3317590365704484E-029
  -4.9599999999999991E-002    -1.9873980258060496E-029
  -4.8499999999999988E-002    -1.2075001194318375E-028
  -4.7399999999999998E-002    -2.3999718320478000E-028
  -4.6299999999999994E-002    -2.3442230100344605E-028
  -4.5199999999999990E-002     1.2765793513375141E-028
  -4.4099999999999986E-002     9.9441190333780101E-028
  -4.2999999999999997E-002     2.0673369075346118E-027
  -4.1899999999999993E-002     2.2203811256089943E-027
  -4.0799999999999989E-002    -4.0423167381942979E-028
  -3.9699999999999985E-002    -7.1442390151950063E-027
  -3.8599999999999995E-002    -1.6149694873187126E-026
  -3.7499999999999992E-002    -1.9476547357220215E-026
  -3.6399999999999988E-002    -3.3130818611198312E-027
  -3.5299999999999984E-002     4.3962697303812382E-026
  -3.4199999999999994E-002     1.1372776557249742E-025
  -3.3099999999999991E-002     1.5594148933306426E-025
  -3.1999999999999987E-002     7.5902228568331640E-026
  -3.0899999999999997E-002    -2.2031287035077109E-025
  -2.9799999999999993E-002    -7.1363864947120306E-025
  -2.8699999999999989E-002    -1.1268697215478573E-024
  -2.7599999999999986E-002    -8.6644647876257214E-025
  -2.6499999999999996E-002     7.5970212118035040E-025
  -2.5399999999999992E-002     3.9073437072608271E-024
  -2.4299999999999988E-002     7.2727438445301893E-024
  -2.3199999999999985E-002     7.4978966854386867E-024
  -2.2099999999999995E-002    -1.4579684608667827E-026
  -2.0999999999999991E-002    -1.7881412698661482E-023
  -1.9899999999999987E-002    -4.1362366940078874E-023
  -1.8799999999999983E-002    -5.3635943364531069E-023
  -1.7699999999999994E-002    -2.7403902287443618E-023
  -1.6599999999999990E-002     6.0860045894985692E-023
  -1.5499999999999986E-002     2.0262631649619591E-022
  -1.4399999999999996E-002     3.2582468636527642E-022
  -1.3299999999999992E-002     2.8710943881941299E-022
  -1.2199999999999989E-002    -7.6289331640361934E-023
  -1.1099999999999985E-002    -8.1447177818693007E-022
  -9.9999999999999950E-003    -1.6840182242887712E-021
  -8.8999999999999913E-003    -2.0314630033193079E-021
  -7.7999999999999875E-003    -9.2207218683540716E-022
  -6.6999999999999837E-003     2.3282538683890254E-021
  -5.5999999999999939E-003     7.2518163909682855E-021
  -4.4999999999999901E-003     1.1360592108114657E-020
  -3.3999999999999864E-003     1.0115527889489280E-020
  -2.2999999999999826E-003    -1.3409262952537521E-021
  -1.1999999999999927E-003    -2.4323502387986925E-020
  -9.9999999999988987E-005    -5.1699763109578464E-020
   1.0000000000000148E-003    -6.5031562238850378E-020
   2.1000000000000185E-003    -3.8263465228979303E-020
   3.2000000000000084E-003     4.8483877910662087E-020
   4.3000000000000121E-003     1.8627192390203959E-019
   5.4000000000000159E-003     3.1557996387328498E-019
   6.5000000000000058E-003     3.2387349677208754E-019
   7.6000000000000234E-003     8.3171262783647011E-020
   8.7000000000000133E-003    -4.6386984621236290E-019
   9.8000000000000032E-003    -1.1909907160172076E-018
   1.0900000000000021E-002    -1.7111456812284127E-018
   1.2000000000000011E-002    -1.4276749947131416E-018
   1.3100000000000001E-002     2.0761916892058063E-019
   1.4200000000000018E-002     3.2370246899890715E-018
   1.5300000000000008E-002     6.7038050258908852E-018
   1.6400000000000026E-002     8.4573915541187436E-018
   1.7500000000000016E-002     5.6614364116626044E-018
   1.8600000000000005E-002    -3.7555958542186471E-018
   1.9700000000000023E-002    -1.8944793950471551E-017
   2.0800000000000013E-002    -3.4217780082663604E-017
   2.1900000000000003E-002    -3.8920771977612403E-017
   2.3000000000000020E-002    -2.0677607351740850E-017
   2.4100000000000010E-002     2.7487041433552171E-017
   2.5200000000000000E-002     9.7899147573586835E-017
   2.6300000000000018E-002     1.6146464618651414E-016
   2.7400000000000008E-002     1.6992006487581229E-016
   2.8500000000000025E-002     7.2678454617620704E-017
   2.9600000000000015E-002    -1.5158118191350437E-016
   3.0700000000000005E-002    -4.5804179925625377E-016
   3.1800000000000023E-002    -7.1361827608049515E-016
   3.2900000000000013E-002    -7.1493039952616221E-016
   3.4000000000000002E-002    -2.6463787375078742E-016
   3.5100000000000020E-002     6.9945986024113925E-016
   3.6200000000000010E-002     1.9654364991780559E-015
   3.7300000000000028E-002     2.9778596995257000E-015
   3.8400000000000017E-002     2.9302078422159859E-015
   3.9500000000000007E-002     1.0759460419871952E-015
   4.0600000000000025E-002    -2.7788433617227056E-015
   4.1700000000000015E-002    -7.7729095356348362E-015
   4.2800000000000005E-002    -1.1769810221977981E-014
   4.3900000000000022E-002    -1.1739124704384590E-014
   4.5000000000000012E-002    -4.9133527490200316E-015
   4.6100000000000002E-002     9.4430936239881529E-015
   4.7200000000000020E-002     2.8273057500551831E-014
   4.8300000000000010E-002     4.3980130652363748E-014
   4.9400000000000027E-002     4.5755102096908909E-014
   5.0500000000000017E-002     2.3523399937036269E-014
   5.1600000000000007E-002    -2.6059934000106696E-014
   5.2700000000000025E-002    -9.3609255032903861E-014
   5.3800000000000014E-002    -1.5425158576406292E-013
   5.4900000000000004E-002    -1.7150948188877960E-013
   5.6000000000000022E-002    -1.0962607436159512E-013
   5.7100000000000012E-002     4.7306210193776358E-014
   5.8200000000000002E-002     2.7552983211216826E-013
   5.9300000000000019E-002     5.0096469475623402E-013
   6.0400000000000009E-002     6.0820669093120748E-013
   6.1500000000000027E-002     4.7531927737753248E-013
   6.2600000000000017E-002     3.0826961995074874E-014
   6.3700000000000007E-002    -6.8359422917694446E-013
   6.4800000000000024E-002    -1.4724911438228967E-012
   6.5900000000000014E-002    -1.9990851649544094E-012
   6.7000000000000004E-002    -1.8716332240941876E-012
   6.8100000000000022E-002    -7.9949000403202269E-013
   6.9200000000000012E-002     1.2201903785383112E-012
   7.0300000000000029E-002     3.7568869533692896E-012
   7.1400000000000019E-002     5.9284366657312052E-012
   7.2500000000000009E-002     6.5776277137958503E-012
   7.3600000000000027E-002     4.6539995585424031E-012
   7.4700000000000016E-002    -2.7525005271937736E-013
   7.5800000000000006E-002    -7.5506866351724415E-012
   7.6900000000000024E-002    -1.5202156756590561E-011
   7.8000000000000014E-002    -2.0188308519706027E-011
   7.9100000000000004E-002    -1.9185864315490567E-011
   8.0200000000000021E-002    -9.8295525187972998E-012
   8.1300000000000011E-002     7.9186245362391116E-012
   8.2400000000000029E-002     3.0766667640966633E-011
   8.3500000000000019E-002     5.1993057613996084E-011
   8.4600000000000009E-002     6.2633229383151964E-011
   8.5700000000000026E-002     5.3982202218505254E-011
   8.6800000000000016E-002     2.0962353582064698E-011
   8.7900000000000006E-002    -3.4566086491429461E-011
   8.9000000000000024E-002    -1.0176302754926450E-010
   9.0100000000000013E-002    -1.6119864637727455E-010
   9.1200000000000003E-002    -1.8837893702315615E-010
   9.2300000000000021E-002    -1.6028002289883279E-010
   9.3400000000000011E-002    -6.3737605631018425E-011
   9.4500000000000028E-002     9.6414559318960942E-011
   9.5600000000000018E-002     2.9213545902620160E-010
   9.6700000000000008E-002     4.7250832007463187E-010
   9.7800000000000026E-002     5.7138208450631269E-010
   9.8900000000000016E-002     5.2251118094084316E-010
  0.10000000000000001          2.8028627247919203E-010
  0.10110000000000002         -1.5806889463946133E-010
  0.10220000000000001         -7.3478316983180035E-010
  0.10330000000000003         -1.3251123065953173E-009
  0.10440000000000002         -1.7483583707677631E-009
  0.10550000000000001         -1.7999433870838162E-009
  0.10660000000000003         -1.3036141988096326E-009
  0.10770000000000002         -1.7672761889760408E-010
  0.10880000000000001          1.5051489850307666E-009
  0.10990000000000003          3.4637212400315076E-009
  0.11100000000000002          5.2153376488558131E-009
  0.11210000000000001          6.1290149997966464E-009
  0.11320000000000002          5.5538612468751599E-009
  0.11430000000000001          3.0075338228726849E-009
  0.11540000000000003         -1.6046879686062799E-009
  0.11650000000000002         -7.7930138834355297E-009
  0.11760000000000001         -1.4377164650300917E-008
  0.11870000000000003         -1.9541889850836921E-008
  0.11980000000000002         -2.1105907765843794E-008
  0.12090000000000001         -1.7014231002199801E-008
  0.12200000000000003         -6.0017194419395886E-009
  0.12310000000000001          1.1696196576252008E-008
  0.12420000000000003          3.3774098015689313E-008
  0.12530000000000002          5.5652240534834468E-008
  0.12640000000000001          7.0845854751477504E-008
  0.12750000000000003          7.2035849786827558E-008
  0.12860000000000002          5.2820130937464005E-008
  0.12970000000000001          9.9242764334532061E-009
  0.13080000000000003         -5.4566010118477837E-008
  0.13190000000000002         -1.3156674197432412E-007
  0.13300000000000001         -2.0464527925317198E-007
  0.13410000000000000         -2.5156840386113012E-007
  0.13520000000000004         -2.4807853764715628E-007
  0.13630000000000003         -1.7375002117325416E-007
  0.13740000000000002         -1.9157093269931378E-008
  0.13850000000000001          2.0706539531739493E-007
  0.13960000000000000          4.7320712945198922E-007
  0.14070000000000005          7.2365481042988460E-007
  0.14180000000000004          8.8410907413724541E-007
  0.14290000000000003          8.7382577344653682E-007
  0.14400000000000002          6.2440102893856219E-007
  0.14510000000000001          1.0273797702106596E-007
  0.14620000000000000         -6.6614184376731722E-007
  0.14730000000000004         -1.5823806502243420E-006
  0.14840000000000003         -2.4672864224271847E-006
  0.14950000000000002         -3.0779538664996052E-006
  0.15060000000000001         -3.1439312094929064E-006
  0.15170000000000000         -2.4251249923904059E-006
  0.15280000000000005         -7.8454433548275834E-007
  0.15390000000000004          1.7365814731717078E-006
  0.15500000000000003          4.8590179450510132E-006
  0.15610000000000002          8.0416232005833894E-006
  0.15720000000000001          1.0512779060016827E-005
  0.15830000000000000          1.1370405275749403E-005
  0.15940000000000004          9.7521530061093854E-006
  0.16050000000000003          5.0610840877689002E-006
  0.16160000000000002         -2.7865773472770643E-006
  0.16270000000000001         -1.3142624277054156E-005
  0.16380000000000000         -2.4499887544091532E-005
  0.16490000000000005         -3.4521409035057788E-005
  0.16600000000000004         -4.0276913059842684E-005
  0.16710000000000003         -3.8707902697685699E-005
  0.16820000000000002         -2.7297279373982020E-005
  0.16930000000000001         -4.8633466120218278E-006
  0.17040000000000000          2.7659440607161254E-005
  0.17150000000000004          6.6636982914799876E-005
  0.17260000000000003          1.0555418235242813E-004
  0.17370000000000002          1.3542255650160674E-004
  0.17480000000000001          1.4589740800386396E-004
  0.17590000000000000          1.2710905832092752E-004
  0.17700000000000005          7.2055537021419603E-005
  0.17810000000000004         -2.0773350922462475E-005
  0.17920000000000003         -1.4503656321542072E-004
  0.18030000000000002         -2.8505743384100811E-004
  0.18140000000000001         -4.1584610455522086E-004
  0.18250000000000000         -5.0515312215522218E-004
  0.18360000000000004         -5.1782289670762951E-004
  0.18470000000000003         -4.2231721424548698E-004
  0.18580000000000002         -1.9877480433146163E-004
  0.18690000000000001          1.5256578312894764E-004
  0.18800000000000000          6.0422502467197086E-004
  0.18910000000000005          1.0975544859251980E-003
  0.19020000000000004          1.5439352900201311E-003
  0.19130000000000003          1.8325990347720820E-003
  0.19240000000000002          1.8457087399326706E-003
  0.19350000000000001          1.4800711694415048E-003
  0.19460000000000005          6.7330385093368006E-004
  0.19570000000000004         -5.6932839496570567E-004
  0.19680000000000003         -2.1525602219870754E-003
  0.19790000000000002         -3.8791894503637050E-003
  0.19900000000000001         -5.4543496206679691E-003
  0.20010000000000000         -6.5104622820447754E-003
  0.20120000000000005         -6.6547346602914836E-003
  0.20230000000000004         -5.5372911159821030E-003
  0.20340000000000003         -2.9334483614532930E-003
  0.20450000000000002          1.1711017256356593E-003
  0.20560000000000000          6.5075002266411072E-003
  0.20670000000000005          1.2481026615017756E-002
  0.20780000000000004          1.8176019621680296E-002
  0.20890000000000003          2.2422419218181413E-002
