 -0.12000000000000000          0.0000000000000000
 -0.11889999999999999          0.0000000000000000
 -0.11780000000000000          0.0000000000000000
 -0.11670000000000000          0.0000000000000000
 -0.11559999999999999          1.5920454327634496E-069
 -0.11449999999999999         -2.2411956105497150E-043
 -0.11340000000000000          2.5349919431751516E-018
 -0.11230000000000000          2.4967373798709545E-017
 -0.11119999999999999          1.1525758760642270E-016
 -0.11009999999999999          3.0993929021520647E-016
 -0.10900000000000000          4.3326047083660886E-016
 -0.10790000000000000         -2.0522149664143548E-016
 -0.10679999999999999         -2.6842159553258666E-015
 -0.10569999999999999         -6.9752158898998310E-015
 -0.10460000000000000         -8.8328370281878878E-015
 -0.10349999999999999          2.4947838587581822E-015
 -0.10239999999999999          3.9765923533800464E-014
 -0.10130000000000000          1.0050839183016357E-013
 -0.10020000000000000          1.4040981571307133E-013
  -9.9099999999999994E-002     5.9916803488048552E-014
  -9.7999999999999990E-002    -2.5624579303199323E-013
  -9.6899999999999986E-002    -8.1672194070268691E-013
  -9.5799999999999996E-002    -1.3477551825025913E-012
  -9.4699999999999993E-002    -1.1940168457200784E-012
  -9.3599999999999989E-002     4.9514947128593286E-013
  -9.2499999999999999E-002     4.1355706138992155E-012
  -9.1399999999999995E-002     8.7414256218080927E-012
  -9.0299999999999991E-002     1.1171581093035902E-011
  -8.9200000000000002E-002     6.5179333493823495E-012
  -8.8099999999999984E-002    -9.5201045185833205E-012
  -8.6999999999999994E-002    -3.6323760276405539E-011
  -8.5899999999999990E-002    -6.3808518924933400E-011
  -8.4799999999999986E-002    -7.1056985982340628E-011
  -8.3699999999999997E-002    -3.2017870305034090E-011
  -8.2599999999999993E-002     6.9923271640613642E-011
  -8.1499999999999989E-002     2.2170251300359598E-010
  -8.0399999999999999E-002     3.6432225933242164E-010
  -7.9299999999999995E-002     3.9467031567627547E-010
  -7.8199999999999992E-002     1.9757579168195782E-010
  -7.7100000000000002E-002    -2.9082891174701121E-010
  -7.5999999999999984E-002    -1.0062174589938648E-009
  -7.4899999999999994E-002    -1.7029457305371252E-009
  -7.3799999999999991E-002    -1.9707915498828390E-009
  -7.2699999999999987E-002    -1.3547145930685801E-009
  -7.1599999999999997E-002     4.2788031180861181E-010
  -7.0499999999999993E-002     3.2336616827760349E-009
  -6.9399999999999989E-002     6.3157354787128223E-009
  -6.8300000000000000E-002     8.3505415411682588E-009
  -6.7199999999999996E-002     7.7569615012894494E-009
  -6.6099999999999992E-002     3.2934395338831786E-009
  -6.5000000000000002E-002    -5.2177188841364598E-009
  -6.3899999999999985E-002    -1.6308575144308365E-008
  -6.2799999999999995E-002    -2.6735449507209968E-008
  -6.1699999999999991E-002    -3.2025817291369040E-008
  -6.0599999999999994E-002    -2.7720529072159050E-008
  -5.9499999999999990E-002    -1.1054865173357476E-008
  -5.8399999999999994E-002     1.7421646866745060E-008
  -5.7299999999999990E-002     5.2891424822595064E-008
  -5.6199999999999986E-002     8.6481494902863070E-008
  -5.5099999999999996E-002     1.0683471334547458E-007
  -5.3999999999999992E-002     1.0280891362310015E-007
  -5.2899999999999989E-002     6.6683386924839898E-008
  -5.1799999999999985E-002    -2.9576554793790757E-009
  -5.0699999999999995E-002    -9.9440735424456192E-008
  -4.9599999999999991E-002    -2.0779698594820438E-007
  -4.8499999999999988E-002    -3.0619661310191026E-007
  -4.7399999999999998E-002    -3.6872283706114710E-007
  -4.6299999999999994E-002    -3.6901713579961079E-007
  -4.5199999999999990E-002    -2.8439772314223248E-007
  -4.4099999999999986E-002    -1.0027071060574285E-007
  -4.2999999999999997E-002     1.8516722866431215E-007
  -4.1899999999999993E-002     5.5598812225146233E-007
  -4.0799999999999989E-002     9.7378856323883133E-007
  -3.9699999999999985E-002     1.3742171014244973E-006
  -3.8599999999999995E-002     1.6665094931673437E-006
  -3.7499999999999992E-002     1.7381237742137161E-006
  -3.6399999999999988E-002     1.4663311457816641E-006
  -3.5299999999999984E-002     7.3767480504183308E-007
  -3.4199999999999994E-002    -5.2531837877837832E-007
  -3.3099999999999991E-002    -2.3325521896874829E-006
  -3.1999999999999987E-002    -4.5938140169879267E-006
  -3.0899999999999997E-002    -7.0900429559353734E-006
  -2.9799999999999993E-002    -9.4531030348278917E-006
  -2.8699999999999989E-002    -1.1157665564265712E-005
  -2.7599999999999986E-002    -1.1526895996640073E-005
  -2.6499999999999996E-002    -9.7512448229533670E-006
  -2.5399999999999992E-002    -4.9171614257548574E-006
  -2.4299999999999988E-002     3.9596254035737836E-006
  -2.3199999999999985E-002     1.7903159584571050E-005
  -2.2099999999999995E-002     3.7956218645007570E-005
  -2.0999999999999991E-002     6.5176455673632793E-005
  -1.9899999999999987E-002     1.0065574889530111E-004
  -1.8799999999999983E-002     1.4556681913864002E-004
  -1.7699999999999994E-002     2.0123888442620495E-004
  -1.6599999999999990E-002     2.6926200008880108E-004
  -1.5499999999999986E-002     3.5161823122420856E-004
  -1.4399999999999996E-002     4.5083715402596304E-004
  -1.3299999999999992E-002     5.7017328124098817E-004
  -1.2199999999999989E-002     7.1380343444049036E-004
  -1.1099999999999985E-002     8.8704228482121023E-004
  -9.9999999999999950E-003     1.0965738572009031E-003
  -8.8999999999999913E-003     1.3506957836992403E-003
  -7.7999999999999875E-003     1.6595721066151544E-003
  -6.6999999999999837E-003     2.0354904633079619E-003
  -5.5999999999999939E-003     2.4931215102830650E-003
  -4.4999999999999901E-003     3.0497828617273150E-003
  -3.3999999999999864E-003     3.7257160504430612E-003
  -2.2999999999999826E-003     4.5443914507463440E-003
  -1.1999999999999927E-003     5.5328604888623357E-003
  -9.9999999999988987E-005     6.7221747101607852E-003
   1.0000000000000148E-003     8.1478862904746617E-003
   2.1000000000000185E-003     9.8506348880718717E-003
   3.2000000000000084E-003     1.1876813473054065E-002
   4.3000000000000121E-003     1.4279294080207873E-002
   5.4000000000000159E-003     1.7118186371942106E-002
   6.5000000000000058E-003     2.0461599332811865E-002
   7.6000000000000234E-003     2.4386379288178273E-002
   8.7000000000000133E-003     2.8978803755725608E-002
   9.8000000000000032E-003     3.4335217199619850E-002
   1.0900000000000021E-002     4.0562598338658454E-002
   1.2000000000000011E-002     4.7779047195744898E-002
   1.3100000000000001E-002     5.6114173379795698E-002
   1.4200000000000018E-002     6.5709356852662978E-002
   1.5300000000000008E-002     7.6717841527725691E-002
   1.6400000000000026E-002     8.9304613457675805E-002
   1.7500000000000016E-002    0.10364601116173892
   1.8600000000000005E-002    0.11992901635420725
   1.9700000000000023E-002    0.13835017795763596
   2.0800000000000013E-002    0.15911412876129993
   2.1900000000000003E-002    0.18243166009552819
   2.3000000000000020E-002    0.20851732360645570
   2.4100000000000010E-002    0.23758652983796208
   2.5200000000000000E-002    0.26985211132972814
   2.6300000000000018E-002    0.30552031501130955
   2.7400000000000008E-002    0.34478618743732237
   2.8500000000000025E-002    0.38782831994806888
   2.9600000000000015E-002    0.43480293201285430
   3.0700000000000005E-002    0.48583729164244110
   3.1800000000000023E-002    0.54102250183073997
   3.2900000000000013E-002    0.60040571916617802
   3.4000000000000002E-002    0.66398191051401878
   3.5100000000000020E-002    0.73168529025526807
   3.6200000000000010E-002    0.80338060865446426
   3.7300000000000028E-002    0.87885447852865795
   3.8400000000000017E-002    0.95780693324033583
   3.9500000000000007E-002     1.0398434087862949
   4.0600000000000025E-002     1.1244673436020649
   4.1700000000000015E-002     1.2110735987651635
   4.2800000000000005E-002     1.2989429225687199
   4.3900000000000022E-002     1.3872377156212410
   4.5000000000000012E-002     1.4749993886417470
   4.6100000000000002E-002     1.5611476339673012
   4.7200000000000020E-002     1.6444819420692285
   4.8300000000000010E-002     1.7236856782439816
   4.9400000000000027E-002     1.7973329907003468
   5.0500000000000017E-002     1.8638987551260493
   5.1600000000000007E-002     1.9217716831090343
   5.2700000000000025E-002     1.9692706442465060
   5.3800000000000014E-002     2.0046641829688125
   5.4900000000000004E-002     2.0261931534554347
   5.6000000000000022E-002     2.0320963452413126
   5.7100000000000012E-002     2.0206389192553407
   5.8200000000000002E-002     1.9901434092718413
   5.9300000000000019E-002     1.9390229604209435
   6.0400000000000009E-002     1.8658163737820037
   6.1500000000000027E-002     1.7692244100724295
   6.2600000000000017E-002     1.6481466870322850
   6.3700000000000007E-002     1.5017183974423818
   6.4800000000000024E-002     1.3293459898895514
   6.5900000000000014E-002     1.1307409009395404
   6.7000000000000004E-002    0.90595040903858193
   6.8100000000000022E-002    0.65538469623628315
   6.9200000000000012E-002    0.37983924893366428
   7.0300000000000029E-002     8.0511796274855746E-002
   7.1400000000000019E-002   -0.24098693303649529
   7.2500000000000009E-002   -0.58262926405238025
   7.3600000000000027E-002   -0.94197397164025432
   7.4700000000000016E-002    -1.3161774496303855
   7.5800000000000006E-002    -1.7020129692846202
   7.6900000000000024E-002    -2.0958982087439972
   7.8000000000000014E-002    -2.4939310713045701
   7.9100000000000004E-002    -2.8919336124266666
   8.0200000000000021E-002    -3.2855036659513681
   8.1300000000000011E-002    -3.6700735110784328
   8.2400000000000029E-002    -4.0409746733186864
   8.3500000000000019E-002    -4.3935077285288502
   8.4600000000000009E-002    -4.7230158000885085
   8.5700000000000026E-002    -5.0249603171652533
   8.6800000000000016E-002    -5.2949975364385198
   8.7900000000000006E-002    -5.5290543089536959
   8.9000000000000024E-002    -5.7234015802756844
   9.0100000000000013E-002    -5.8747241297098638
   9.1200000000000003E-002    -5.9801850755306649
   9.2300000000000021E-002    -6.0374837024496077
   9.3400000000000011E-002    -6.0449052201050426
   9.4500000000000028E-002    -6.0013611569544576
   9.5600000000000018E-002    -5.9064192489920968
   9.6700000000000008E-002    -5.7603219032606541
   9.7800000000000026E-002    -5.5639925947539890
   9.8900000000000016E-002    -5.3190298728092227
  0.10000000000000001         -5.0276889840554961
  0.10110000000000002         -4.6928514388743245
  0.10220000000000001         -4.3179831391857393
  0.10330000000000003         -3.9070819383884481
  0.10440000000000002         -3.4646157187485094
  0.10550000000000001         -2.9954522514757413
  0.10660000000000003         -2.5047822550674921
  0.10770000000000002         -1.9980371913996304
  0.10880000000000001         -1.4808034371070036
  0.10990000000000003        -0.95873453861847246
  0.11100000000000002        -0.43746330025184293
  0.11210000000000001          7.7484537344766180E-002
  0.11320000000000002         0.58077330092226620
  0.11430000000000001          1.0673354164073232
  0.11540000000000003          1.5324429377993991
  0.11650000000000002          1.9717712194469139
  0.11760000000000001          2.3814536076362209
  0.11870000000000003          2.7581262995477021
  0.11980000000000002          3.0989628132400187
  0.12090000000000001          3.4016978067530204
  0.12200000000000003          3.6646402535639280
  0.12310000000000001          3.8866762090486131
  0.12420000000000003          4.0672615844748377
  0.12530000000000002          4.2064054905766923
  0.12640000000000001          4.3046448393297183
  0.12750000000000003          4.3630110175291410
  0.12860000000000002          4.3829895782080923
  0.12970000000000001          4.3664740318046622
  0.13080000000000003          4.3157149422005396
  0.13190000000000002          4.2332656214216700
  0.13300000000000001          4.1219257520701440
  0.13410000000000000          3.9846842401455538
  0.13520000000000004          3.8246625180064151
  0.13630000000000003          3.6450593938811497
  0.13740000000000002          3.4490984008549987
  0.13850000000000001          3.2399784518023171
  0.13960000000000000          3.0208284666680791
  0.14070000000000005          2.7946665061760361
  0.14180000000000004          2.5643638184377657
  0.14290000000000003          2.3326140796561434
  0.14400000000000002          2.1019079886476177
  0.14510000000000001          1.8745132623564855
  0.14620000000000000          1.6524599811596892
  0.14730000000000004          1.4375311496523739
  0.14840000000000003          1.2312582654942827
  0.14950000000000002          1.0349216159935555
  0.15060000000000001         0.84955494054701353
  0.15170000000000000         0.67595400531126770
  0.15280000000000005         0.51468854404399056
  0.15390000000000004         0.36611694482102114
  0.15500000000000003         0.23040302753423128
  0.15610000000000002         0.10753427561044349
  0.15720000000000001         -2.6590439392074894E-003
  0.15830000000000000        -0.10048433338049956
  0.15940000000000004        -0.18636704216315900
  0.16050000000000003        -0.26083123831315896
  0.16160000000000002        -0.32448060187998040
  0.16270000000000001        -0.37798007263561839
  0.16380000000000000        -0.42203841281885041
  0.16490000000000005        -0.45739197075425392
  0.16600000000000004        -0.48478992628783607
  0.16710000000000003        -0.50498125070716060
  0.16820000000000002        -0.51870352628885985
  0.16930000000000001        -0.52667366258530934
  0.17040000000000000        -0.52958044264866200
  0.17150000000000004        -0.52807875304909768
  0.17260000000000003        -0.52278530632231612
  0.17370000000000002        -0.51427565115072305
  0.17480000000000001        -0.50308227453806176
  0.17590000000000000        -0.48969362098034919
  0.17700000000000005        -0.47455387949670080
  0.17810000000000004        -0.45806341812363466
  0.17920000000000003        -0.44057977616199939
  0.18030000000000002        -0.42241915337867675
  0.18140000000000001        -0.40385835436285250
  0.18250000000000000        -0.38513714546021477
  0.18360000000000004        -0.36646095570386439
  0.18470000000000003        -0.34800380693658667
  0.18580000000000002        -0.32991130918297046
  0.18690000000000001        -0.31230353010564776
  0.18800000000000000        -0.29527756406402761
  0.18910000000000005        -0.27890969457848358
  0.19020000000000004        -0.26325715049425252
  0.19130000000000003        -0.24835956853876218
  0.19240000000000002        -0.23424035348498293
  0.19350000000000001        -0.22090814082971341
  0.19460000000000005        -0.20835850776199583
  0.19570000000000004        -0.19657596627301963
  0.19680000000000003        -0.18553614880406072
  0.19790000000000002        -0.17520800800034164
  0.19900000000000001        -0.16555583012887026
  0.20010000000000000        -0.15654091167931081
  0.20120000000000005        -0.14812284724010055
  0.20230000000000004        -0.14026048275047931
  0.20340000000000003        -0.13291266055505555
  0.20450000000000002        -0.12603889719365088
  0.20560000000000000        -0.11960009291249288
  0.20670000000000005        -0.11355929720671032
  0.20780000000000004        -0.10788248083737445
  0.20890000000000003        -0.10253921962784264
