 -0.12000000000000000          0.0000000000000000
 -0.11889999999999999          0.0000000000000000
 -0.11780000000000000          0.0000000000000000
 -0.11670000000000000          0.0000000000000000
 -0.11559999999999999          0.0000000000000000
 -0.11449999999999999          0.0000000000000000
 -0.11340000000000000          0.0000000000000000
 -0.11230000000000000          1.0826660572383561E-101
 -0.11119999999999999         -8.0091211548685250E-076
 -0.11009999999999999          9.0321884589488443E-051
 -0.10900000000000000          2.8681957042478516E-026
 -0.10790000000000000          3.0775931524332854E-025
 -0.10679999999999999          1.4192648511643279E-024
 -0.10569999999999999          2.9644998290386030E-024
 -0.10460000000000000         -1.8917652390608955E-024
 -0.10349999999999999         -3.1291787021646828E-023
 -0.10239999999999999         -9.1311681634409067E-023
 -0.10130000000000000         -8.6551555228707243E-023
 -0.10020000000000000          2.7928820743916998E-022
  -9.9099999999999994E-002     1.3039089510847209E-021
  -9.7999999999999990E-002     2.3360303776101392E-021
  -9.6899999999999986E-002     3.5019788941723688E-022
  -9.5799999999999996E-002    -9.5360437943951984E-021
  -9.4699999999999993E-002    -2.7241159408636341E-020
  -9.3599999999999989E-002    -3.3632403782880267E-020
  -9.2499999999999999E-002     1.7798943225461073E-020
  -9.1399999999999995E-002     1.7146870120034965E-019
  -9.0299999999999991E-002     3.7401176953820018E-019
  -8.9200000000000002E-002     3.5032876740418407E-019
  -8.8099999999999984E-002    -3.7900676175063395E-019
  -8.6999999999999994E-002    -2.0807649670268682E-018
  -8.5899999999999990E-002    -3.9189653222733778E-018
  -8.4799999999999986E-002    -3.1581597382218432E-018
  -8.3699999999999997E-002     4.1099835935440129E-018
  -8.2599999999999993E-002     1.9147754058831253E-017
  -8.1499999999999989E-002     3.4039715912897693E-017
  -8.0399999999999999E-002     2.7314357230989943E-017
  -7.9299999999999995E-002    -2.8792262239224692E-017
  -7.8199999999999992E-002    -1.4119821100592884E-016
  -7.7100000000000002E-002    -2.5454653421333715E-016
  -7.5999999999999984E-002    -2.2718451745412631E-016
  -7.4899999999999994E-002     1.2115542448563130E-016
  -7.3799999999999991E-002     8.4841751982833069E-016
  -7.2699999999999987E-002     1.6524607587570052E-015
  -7.1599999999999997E-002     1.7275655430195308E-015
  -7.0499999999999993E-002    -4.6280489364406482E-018
  -6.9399999999999989E-002    -4.0755399586095664E-015
  -6.8300000000000000E-002    -9.2191200661157134E-015
  -6.7199999999999996E-002    -1.1480904595330955E-014
  -6.6099999999999992E-002    -5.0098364275384582E-015
  -6.5000000000000002E-002     1.4353022202961348E-014
  -6.3899999999999985E-002     4.3098940872500055E-014
  -6.2799999999999995E-002     6.4822086611182076E-014
  -6.1699999999999991E-002     5.1425375489948856E-014
  -6.0599999999999994E-002    -2.3690074992184995E-014
  -5.9499999999999990E-002    -1.6020942919294321E-013
  -5.8399999999999994E-002    -3.0362605922985231E-013
  -5.7299999999999990E-002    -3.3797271941225918E-013
  -5.6199999999999986E-002    -1.2375964034931635E-013
  -5.5099999999999996E-002     4.0859332130871059E-013
  -5.3999999999999992E-002     1.1361147669435989E-012
  -5.2899999999999989E-002     1.6644745474416609E-012
  -5.1799999999999985E-002     1.3939232923777210E-012
  -5.0699999999999995E-002    -1.9756069394666001E-013
  -4.9599999999999991E-002    -3.0891114239697243E-012
  -4.8499999999999988E-002    -6.2715091908095502E-012
  -4.7399999999999998E-002    -7.6682535512499032E-012
  -4.6299999999999994E-002    -4.7701160628995610E-012
  -4.5199999999999990E-002     3.9217330729312753E-012
  -4.4099999999999986E-002     1.7053457562714961E-011
  -4.2999999999999997E-002     2.9165110861600143E-011
  -4.1899999999999993E-002     3.1314116085475381E-011
  -4.0799999999999989E-002     1.4490375623798597E-011
  -3.9699999999999985E-002    -2.4503534395526278E-011
  -3.8599999999999995E-002    -7.6878171375920108E-011
  -3.7499999999999992E-002    -1.1917777900942426E-010
  -3.6399999999999988E-002    -1.1808401233687898E-010
  -3.5299999999999984E-002    -4.4481069181468596E-011
  -3.4199999999999994E-002     1.0610150586002091E-010
  -3.3099999999999991E-002     2.9519380039201900E-010
  -3.1999999999999987E-002     4.3748075705518480E-010
  -3.0899999999999997E-002     4.2200076869048764E-010
  -2.9799999999999993E-002     1.6044664791326404E-010
  -2.8699999999999989E-002    -3.5000862366598508E-010
  -2.7599999999999986E-002    -9.7693814113615276E-010
  -2.6499999999999996E-002    -1.4505459106605894E-009
  -2.5399999999999992E-002    -1.4349771592929489E-009
  -2.4299999999999988E-002    -6.7145022098375953E-010
  -2.3199999999999985E-002     8.4783553496779921E-010
  -2.2099999999999995E-002     2.7515681456997805E-009
  -2.0999999999999991E-002     4.2942751880185191E-009
  -1.9899999999999987E-002     4.5513936600144650E-009
  -1.8799999999999983E-002     2.7890783735701633E-009
  -1.7699999999999994E-002    -1.1005821713990247E-009
  -1.6599999999999990E-002    -6.2840701451880301E-009
  -1.5499999999999986E-002    -1.0988367937005078E-008
  -1.4399999999999996E-002    -1.2938347929724591E-008
  -1.3299999999999992E-002    -1.0183122361804686E-008
  -1.2199999999999989E-002    -2.0675248716943139E-009
  -1.1099999999999985E-002     1.0040465850167060E-008
  -9.9999999999999950E-003     2.2663821490833477E-008
  -8.8999999999999913E-003     3.0997287441850917E-008
  -7.7999999999999875E-003     3.0458647457711834E-008
  -6.6999999999999837E-003     1.8554075960819452E-008
  -5.5999999999999939E-003    -3.6409544465780317E-009
  -4.4999999999999901E-003    -3.1070478842698282E-008
  -3.3999999999999864E-003    -5.5725294451198694E-008
  -2.2999999999999826E-003    -6.8942229636471932E-008
  -1.1999999999999927E-003    -6.4258985310110798E-008
  -9.9999999999988987E-005    -3.9791203020926628E-008
   1.0000000000000148E-003     8.0542021970705651E-010
   2.1000000000000185E-003     4.9204223456793774E-008
   3.2000000000000084E-003     9.4770296616878554E-008
   4.3000000000000121E-003     1.2742734216116405E-007
   5.4000000000000159E-003     1.3982299647115925E-007
   6.5000000000000058E-003     1.2796904829480448E-007
   7.6000000000000234E-003     9.0391499797412476E-008
   8.7000000000000133E-003     2.6765787813439063E-008
   9.8000000000000032E-003    -6.2477279522175791E-008
   1.0900000000000021E-002    -1.7439342678396251E-007
   1.2000000000000011E-002    -2.9958164947723005E-007
   1.3100000000000001E-002    -4.1760272272470875E-007
   1.4200000000000018E-002    -4.9458140892001087E-007
   1.5300000000000008E-002    -4.8602767233851448E-007
   1.6400000000000026E-002    -3.4665477889790148E-007
   1.7500000000000016E-002    -4.6443368456827202E-008
   1.8600000000000005E-002     4.1077949992831758E-007
   1.9700000000000023E-002     9.7224429635541518E-007
   2.0800000000000013E-002     1.5311360399871407E-006
   2.1900000000000003E-002     1.9362894260115798E-006
   2.3000000000000020E-002     2.0179139078427270E-006
   2.4100000000000010E-002     1.6261853080597218E-006
   2.5200000000000000E-002     6.7564750062713343E-007
   2.6300000000000018E-002    -8.1394847157540549E-007
   2.7400000000000008E-002    -2.6900347853164629E-006
   2.8500000000000025E-002    -4.6610163678440028E-006
   2.9600000000000015E-002    -6.3169490063689732E-006
   3.0700000000000005E-002    -7.1792665575786045E-006
   3.1800000000000023E-002    -6.7778792403800501E-006
   3.2900000000000013E-002    -4.7494008915885708E-006
   3.4000000000000002E-002    -9.4482295142758697E-007
   3.5100000000000020E-002     4.4708796775775703E-006
   3.6200000000000010E-002     1.0949500360694511E-005
   3.7300000000000028E-002     1.7544523455365940E-005
   3.8400000000000017E-002     2.2970200543986221E-005
   3.9500000000000007E-002     2.5744679903923915E-005
   4.0600000000000025E-002     2.4411898594721724E-005
   4.1700000000000015E-002     1.7819842009798626E-005
   4.2800000000000005E-002     5.4179940939262027E-006
   4.3900000000000022E-002    -1.2472041729008566E-005
   4.5000000000000012E-002    -3.4460207360951556E-005
   4.6100000000000002E-002    -5.8008620828473493E-005
   4.7200000000000020E-002    -7.9503771672630581E-005
   4.8300000000000010E-002    -9.4506019360138336E-005
   4.9400000000000027E-002    -9.8192475727021373E-005
   5.0500000000000017E-002    -8.5995463936628039E-005
   5.1600000000000007E-002    -5.4415141564525273E-005
   5.2700000000000025E-002    -1.9474756479758174E-006
   5.3800000000000014E-002     6.9980955726567091E-005
   5.4900000000000004E-002     1.5623218334673365E-004
   5.6000000000000022E-002     2.4752873504178265E-004
   5.7100000000000012E-002     3.3058044310947931E-004
   5.8200000000000002E-002     3.8892330379387195E-004
   5.9300000000000019E-002     4.0453176320120966E-004
   6.0400000000000009E-002     3.6013384867036093E-004
   6.1500000000000027E-002     2.4201887882805635E-004
   6.2600000000000017E-002     4.3014237152692651E-005
   6.3700000000000007E-002    -2.3475066942015222E-004
   6.4800000000000024E-002    -5.7766577291099215E-004
   6.5900000000000014E-002    -9.5934912145668669E-004
   6.7000000000000004E-002    -1.3404359762360892E-003
   6.8100000000000022E-002    -1.6695206568101198E-003
   6.9200000000000012E-002    -1.8852124760113228E-003
   7.0300000000000029E-002    -1.9191712786881387E-003
   7.1400000000000019E-002    -1.6998987171404096E-003
   7.2500000000000009E-002    -1.1569634349812255E-003
   7.3600000000000027E-002    -2.2522342286530411E-004
   7.4700000000000016E-002     1.1515140094576406E-003
   7.5800000000000006E-002     3.0180558302758944E-003
   7.6900000000000024E-002     5.4073107382286894E-003
   7.8000000000000014E-002     8.3423394328830530E-003
   7.9100000000000004E-002     1.1841427386472841E-002
   8.0200000000000021E-002     1.5926355921697718E-002
   8.1300000000000011E-002     2.0633702427406933E-002
   8.2400000000000029E-002     2.6028656319005680E-002
   8.3500000000000019E-002     3.2220556451492292E-002
   8.4600000000000009E-002     3.9379185610717932E-002
   8.5700000000000026E-002     4.7750822828636942E-002
   8.6800000000000016E-002     5.7673157078828384E-002
   8.7900000000000006E-002     6.9588393781448654E-002
   8.9000000000000024E-002     8.4054216845126942E-002
   9.0100000000000013E-002    0.10175267372362168
   9.1200000000000003E-002    0.12349748618501633
   9.2300000000000021E-002    0.15024069459131212
   9.3400000000000011E-002    0.18307984342700609
   9.4500000000000028E-002    0.22326703677824072
   9.5600000000000018E-002    0.27222108747435414
   9.6700000000000008E-002    0.33154365754287662
   9.7800000000000026E-002    0.40303980731314148
   9.8900000000000016E-002    0.48874284937331752
  0.10000000000000001         0.59094296165488802
  0.10110000000000002         0.71221872726228497
  0.10220000000000001         0.85547063174564242
  0.10330000000000003          1.0239554710592271
  0.10440000000000002          1.2213204700704852
  0.10550000000000001          1.4516355716798646
  0.10660000000000003          1.7194218147433364
  0.10770000000000002          2.0296730883080838
  0.10880000000000001          2.3878680462586930
  0.10990000000000003          2.7999688251041155
  0.11100000000000002          3.2724035708467070
  0.11210000000000001          3.8120306107052855
  0.11320000000000002          4.4260831639784541
  0.11430000000000001          5.1220944046596193
  0.11540000000000003          5.9078031050033921
  0.11650000000000002          6.7910398035845478
  0.11760000000000001          7.7795925166480639
  0.11870000000000003          8.8810497765371412
  0.11980000000000002          10.102617723114955
  0.12090000000000001          11.450907562591627
  0.12200000000000003          12.931690219428289
  0.12310000000000001          14.549616424952751
  0.12420000000000003          16.307902519396219
  0.12530000000000002          18.207984449150054
  0.12640000000000001          20.249144399311284
  0.12750000000000003          22.428115969822173
  0.12860000000000002          24.738674780103857
  0.12970000000000001          27.171222073388424
  0.13080000000000003          29.712369578004299
  0.13190000000000002          32.344534817078397
  0.13300000000000001          35.045557358765848
  0.13410000000000000          37.788348136148208
  0.13520000000000004          40.540585799882372
  0.13630000000000003          43.264475904698067
  0.13740000000000002          45.916590359476999
  0.13850000000000001          48.447805753618866
  0.13960000000000000          50.803359636288633
  0.14070000000000005          52.923043277114289
  0.14180000000000004          54.741547643691923
  0.14290000000000003          56.188976246523957
  0.14400000000000002          57.191534379372378
  0.14510000000000001          57.672399689400628
  0.14620000000000000          57.552774682799381
  0.14730000000000004          56.753118325377628
  0.14840000000000003          55.194551506635506
  0.14950000000000002          52.800429321039260
  0.15060000000000001          49.498070805569370
  0.15170000000000000          45.220632644309923
  0.15280000000000005          39.909106423936116
  0.15390000000000004          33.514409191652902
  0.15500000000000003          25.999525375722840
  0.15610000000000002          17.341646601698407
  0.15720000000000001          7.5342469556838809
  0.15830000000000000         -3.4109733055215186
  0.15940000000000004         -15.462342070031053
  0.16050000000000003         -28.566729462157294
  0.16160000000000002         -42.648376640279636
  0.16270000000000001         -57.608087789964387
  0.16380000000000000         -73.322829545371832
  0.16490000000000005         -89.645780348736693
  0.16600000000000004         -106.40687173631630
  0.16710000000000003         -123.41386169785360
  0.16820000000000002         -140.45397437960551
  0.16930000000000001         -157.29612867404356
  0.17040000000000000         -173.69376050070508
  0.17150000000000004         -189.38822142623951
  0.17260000000000003         -204.11271249553317
  0.17370000000000002         -217.59668980249862
  0.17480000000000001         -229.57065978654722
  0.17590000000000000         -239.77126861271751
  0.17700000000000005         -247.94658109950291
  0.17810000000000004         -253.86143942662235
  0.17920000000000003         -257.30278890542269
  0.18030000000000002         -258.08485623313294
  0.18140000000000001         -256.05406412061507
  0.18250000000000000         -251.09356470288094
  0.18360000000000004         -243.12727289369201
  0.18470000000000003         -232.12328052495295
  0.18580000000000002         -218.09653404712969
  0.18690000000000001         -201.11066474312850
  0.18800000000000000         -181.27887316420063
  0.18910000000000005         -158.76379079129825
  0.19020000000000004         -133.77627231903537
  0.19130000000000003         -106.57310973303879
  0.19240000000000002         -77.453700292003916
  0.19350000000000001         -46.755738738728439
  0.19460000000000005         -14.850033745061465
  0.19570000000000004          17.865433811407172
  0.19680000000000003          50.972087303766926
  0.19790000000000002          84.037843543232128
  0.19900000000000001          116.62459423977720
  0.20010000000000000          148.29595394068048
  0.20120000000000005          178.62513274154514
  0.20230000000000004          207.20276727168755
  0.20340000000000003          233.64451684289503
  0.20450000000000002          257.59821333667776
  0.20560000000000000          278.75035273883094
  0.20670000000000005          296.83173796696434
  0.20780000000000004          311.62212473489967
  0.20890000000000003          322.95377623731963
