 -0.12000000000000000          0.0000000000000000
 -0.11889999999999999          0.0000000000000000
 -0.11780000000000000          0.0000000000000000
 -0.11670000000000000          0.0000000000000000
 -0.11559999999999999          0.0000000000000000
 -0.11449999999999999          0.0000000000000000
 -0.11340000000000000          0.0000000000000000
 -0.11230000000000000          0.0000000000000000
 -0.11119999999999999          0.0000000000000000
 -0.11009999999999999          0.0000000000000000
 -0.10900000000000000          1.2519901883638968E-031
 -0.10790000000000000          1.9391910039681808E-030
 -0.10679999999999999          1.4726027947574885E-029
 -0.10569999999999999          7.2180875533723775E-029
 -0.10460000000000000          2.5172317176657254E-028
 -0.10349999999999999          6.4153593428622959E-028
 -0.10239999999999999          1.1380660671151918E-027
 -0.10130000000000000          9.9486754540631240E-028
 -0.10020000000000000         -1.6437686311586809E-027
  -9.9099999999999994E-002    -9.4313736130089300E-027
  -9.7999999999999990E-002    -2.3686471808931182E-026
  -9.6899999999999986E-002    -4.0340558267904142E-026
  -9.5799999999999996E-002    -4.6005891096266251E-026
  -9.4699999999999993E-002    -1.7240916797329172E-026
  -9.3599999999999989E-002     7.7316750304784654E-026
  -9.2499999999999999E-002     2.7847864187614218E-025
  -9.1399999999999995E-002     6.4357936438243920E-025
  -9.0299999999999991E-002     1.2251336937125560E-024
  -8.9200000000000002E-002     1.9237577665160093E-024
  -8.8099999999999984E-002     2.1009169892043527E-024
  -8.6999999999999994E-002     1.6808644601768455E-026
  -8.5899999999999990E-002    -7.3483453735128714E-024
  -8.4799999999999986E-002    -2.2890667484791145E-023
  -8.3699999999999997E-002    -4.5087757714612516E-023
  -8.2599999999999993E-002    -6.0987311871757629E-023
  -8.1499999999999989E-002    -4.0369352175065078E-023
  -8.0399999999999999E-002     6.0229763655673295E-023
  -7.9299999999999995E-002     2.7298031132975060E-022
  -7.8199999999999992E-002     5.6967838711196975E-022
  -7.7100000000000002E-002     8.0296698175501438E-022
  -7.5999999999999984E-002     6.7958417314451731E-022
  -7.4899999999999994E-002    -1.7377131336772450E-022
  -7.3799999999999991E-002    -2.0046791694538772E-021
  -7.2699999999999987E-002    -4.6059112035950561E-021
  -7.1599999999999997E-002    -6.9866795645806319E-021
  -7.0499999999999993E-002    -7.2724493412491926E-021
  -6.9399999999999989E-002    -3.0890309156156793E-021
  -6.8300000000000000E-002     7.4285380012442325E-021
  -6.7199999999999996E-002     2.4125838344808014E-020
  -6.6099999999999992E-002     4.3272133329997179E-020
  -6.5000000000000002E-002     5.6665910154476080E-020
  -6.3899999999999985E-002     5.2167950485204714E-020
  -6.2799999999999995E-002     1.6264588477755979E-020
  -6.1699999999999991E-002    -6.1032348512262724E-020
  -6.0599999999999994E-002    -1.7901519355042710E-019
  -5.9499999999999990E-002    -3.1751854088196565E-019
  -5.8399999999999994E-002    -4.2853313387975594E-019
  -5.7299999999999990E-002    -4.3251888546359423E-019
  -5.6199999999999986E-002    -2.2678896434387448E-019
  -5.5099999999999996E-002     2.8482292576925873E-019
  -5.3999999999999992E-002     1.1346366393986592E-018
  -5.2899999999999989E-002     2.2108794678168647E-018
  -5.1799999999999985E-002     3.1793856115668028E-018
  -5.0699999999999995E-002     3.4557518730117966E-018
  -4.9599999999999991E-002     2.2905567972888470E-018
  -4.8499999999999988E-002    -9.8259176798349224E-019
  -4.7399999999999998E-002    -6.5392621102232761E-018
  -4.6299999999999994E-002    -1.3589856165929741E-017
  -4.5199999999999990E-002    -2.0032572847455768E-017
  -4.4099999999999986E-002    -2.2490238542350039E-017
  -4.2999999999999997E-002    -1.6958638953052268E-017
  -4.1899999999999993E-002    -1.4165452636398688E-019
  -4.0799999999999989E-002     2.8711479429258840E-017
  -3.9699999999999985E-002     6.5947473593421368E-017
  -3.8599999999999995E-002     1.0233318590678144E-016
  -3.7499999999999992E-002     1.2331552254583185E-016
  -3.6399999999999988E-002     1.1129063658137588E-016
  -3.5299999999999984E-002     5.0066916569679386E-017
  -3.4199999999999994E-002    -6.8825936732393688E-017
  -3.3099999999999991E-002    -2.3893863014348980E-016
  -3.1999999999999987E-002    -4.3242861591812869E-016
  -3.0899999999999997E-002    -5.9661030515858213E-016
  -2.9799999999999993E-002    -6.5642713407233411E-016
  -2.8699999999999989E-002    -5.2591180903882394E-016
  -2.7599999999999986E-002    -1.3082774602015922E-016
  -2.6499999999999996E-002     5.5792439372573937E-016
  -2.5399999999999992E-002     1.4852213256060156E-015
  -2.4299999999999988E-002     2.4781420442401862E-015
  -2.3199999999999985E-002     3.2346496669737851E-015
  -2.2099999999999995E-002     3.3531456858562936E-015
  -2.0999999999999991E-002     2.4163854107511335E-015
  -1.9899999999999987E-002     1.2932020082540870E-016
  -1.8799999999999983E-002    -3.5108738390898986E-015
  -1.7699999999999994E-002    -8.0575619772527220E-015
  -1.6599999999999990E-002    -1.2531757551931613E-014
  -1.5499999999999986E-002    -1.5475938924449734E-014
  -1.4399999999999996E-002    -1.5186261931415739E-014
  -1.3299999999999992E-002    -1.0123383981035804E-014
  -1.2199999999999989E-002     5.5196593870530819E-016
  -1.1099999999999985E-002     1.6425718164460952E-014
  -9.9999999999999950E-003     3.5404414759222416E-014
  -8.8999999999999913E-003     5.3573199260483869E-014
  -7.7999999999999875E-003     6.5475913517468785E-014
  -6.6999999999999837E-003     6.4905960515658917E-014
  -5.5999999999999939E-003     4.6217334565052425E-014
  -4.4999999999999901E-003     6.0551411027536474E-015
  -3.3999999999999864E-003    -5.4736143453086782E-014
  -2.2999999999999826E-003    -1.2943052700733852E-013
  -1.1999999999999927E-003    -2.0451889733220585E-013
  -9.9999999999988987E-005    -2.6021924040779824E-013
   1.0000000000000148E-003    -2.7294993893312134E-013
   2.1000000000000185E-003    -2.2000591035411606E-013
   3.2000000000000084E-003    -8.6113519610146300E-014
   4.3000000000000121E-003     1.2920013628191159E-013
   5.4000000000000159E-003     4.0521661893059647E-013
   6.5000000000000058E-003     6.9685555556055332E-013
   7.6000000000000234E-003     9.3686654936427035E-013
   8.7000000000000133E-003     1.0447250519070278E-012
   9.8000000000000032E-003     9.4212081439606507E-013
   1.0900000000000021E-002     5.7310831059053353E-013
   1.2000000000000011E-002    -7.4737936180805315E-014
   1.3100000000000001E-002    -9.5296089478214139E-013
   1.4200000000000018E-002    -1.9436419752378071E-012
   1.5300000000000008E-002    -2.8637251364008292E-012
   1.6400000000000026E-002    -3.4845710868469492E-012
   1.7500000000000016E-002    -3.5666538490912599E-012
   1.8600000000000005E-002    -2.9065867605168597E-012
   1.9700000000000023E-002    -1.3908535767467467E-012
   2.0800000000000013E-002     9.5210766892077153E-013
   2.1900000000000003E-002     3.9121836802347137E-012
   2.3000000000000020E-002     7.0823487872627507E-012
   2.4100000000000010E-002     9.8795131595325756E-012
   2.5200000000000000E-002     1.1609501153016420E-011
   2.6300000000000018E-002     1.1576895660135368E-011
   2.7400000000000008E-002     9.2297857612168187E-012
   2.8500000000000025E-002     4.3172850364575832E-012
   2.9600000000000015E-002    -2.9725731136733055E-012
   3.0700000000000005E-002    -1.1931320996849991E-011
   3.1800000000000023E-002    -2.1337011653478753E-011
   3.2900000000000013E-002    -2.9567280583968466E-011
   3.4000000000000002E-002    -3.4814448275766083E-011
   3.5100000000000020E-002    -3.5375110540493467E-011
   3.6200000000000010E-002    -2.9968109252537228E-011
   3.7300000000000028E-002    -1.8026621705157581E-011
   3.8400000000000017E-002     8.5689812689979420E-014
   3.9500000000000007E-002     2.2970420178715418E-011
   4.0600000000000025E-002     4.8219790631267613E-011
   4.1700000000000015E-002     7.2573434106499394E-011
   4.2800000000000005E-002     9.2198480885517942E-011
   4.3900000000000022E-002     1.0308013829089876E-010
   4.5000000000000012E-002     1.0150553922359456E-010
   4.6100000000000002E-002     8.4613466384583192E-011
   4.7200000000000020E-002     5.0963792410594299E-011
   4.8300000000000010E-002     1.0565895855990018E-012
   4.9400000000000027E-002    -6.2288399165068866E-011
   5.0500000000000017E-002    -1.3378384646185530E-010
   5.1600000000000007E-002    -2.0582851547947504E-010
   5.2700000000000025E-002    -2.6898823105527059E-010
   5.3800000000000014E-002    -3.1277648352005191E-010
   5.4900000000000004E-002    -3.2666452333054545E-010
   5.6000000000000022E-002    -3.0123591350249573E-010
   5.7100000000000012E-002    -2.2941624533866146E-010
   5.8200000000000002E-002    -1.0773929344618120E-010
   5.9300000000000019E-002     6.2373945811792904E-011
   6.0400000000000009E-002     2.7337770506164409E-010
   6.1500000000000027E-002     5.1054896402538520E-010
   6.2600000000000017E-002     7.5139145187594479E-010
   6.3700000000000007E-002     9.6588140667228740E-010
   6.4800000000000024E-002     1.1179711027729089E-009
   6.5900000000000014E-002     1.1686572313729284E-009
   6.7000000000000004E-002     1.0806587868584357E-009
   6.8100000000000022E-002     8.2437849280555840E-010
   6.9200000000000012E-002     3.8443969942976803E-010
   7.0300000000000029E-002    -2.3418721401642977E-010
   7.1400000000000019E-002    -1.0015391735876799E-009
   7.2500000000000009E-002    -1.8604314084168204E-009
   7.3600000000000027E-002    -2.7272795170571044E-009
   7.4700000000000016E-002    -3.4962429924151955E-009
   7.5800000000000006E-002    -4.0466420887914486E-009
   7.6900000000000024E-002    -4.2533838739938353E-009
   7.8000000000000014E-002    -3.9999949059732386E-009
   7.9100000000000004E-002    -3.1937027140867046E-009
   8.0200000000000021E-002    -1.7817263193902888E-009
   8.1300000000000011E-002     2.3252439476220416E-010
   8.2400000000000029E-002     2.7752176870107886E-009
   8.3500000000000019E-002     5.6922280206849826E-009
   8.4600000000000009E-002     8.7462231149816729E-009
   8.5700000000000026E-002     1.1623015072805424E-008
   8.6800000000000016E-002     1.3948622501918887E-008
   8.7900000000000006E-002     1.5317198466229855E-008
   8.9000000000000024E-002     1.5328536287368096E-008
   9.0100000000000013E-002     1.3632597889037686E-008
   9.1200000000000003E-002     9.9776472903536117E-009
   9.2300000000000021E-002     4.2581477770866817E-009
   9.3400000000000011E-002    -3.4415740864904314E-009
   9.4500000000000028E-002    -1.2812047947595823E-008
   9.5600000000000018E-002    -2.3296256147248688E-008
   9.6700000000000008E-002    -3.4085091213883955E-008
   9.7800000000000026E-002    -4.4135963805478931E-008
   9.8900000000000016E-002    -5.2219441399579141E-008
  0.10000000000000001         -5.6997169207893360E-008
  0.10110000000000002         -5.7131255261953101E-008
  0.10220000000000001         -5.1421031846959859E-008
  0.10330000000000003         -3.8958336518104707E-008
  0.10440000000000002         -1.9288149857717724E-008
  0.10550000000000001          7.4415183397525036E-009
  0.10660000000000003          4.0357665287557692E-008
  0.10770000000000002          7.7784610317774726E-008
  0.10880000000000001          1.1722470650877133E-007
  0.10990000000000003          1.5540851757526055E-007
  0.11100000000000002          1.8842209630334576E-007
  0.11210000000000001          2.1191518507787646E-007
  0.11320000000000002          2.2138954226896296E-007
  0.11430000000000001          2.1256061660536680E-007
  0.11540000000000003          1.8177815445688598E-007
  0.11650000000000002          1.2648237704611192E-007
  0.11760000000000001          4.5663197750452699E-008
  0.11870000000000003         -5.9717823450534428E-008
  0.11980000000000002         -1.8638782546512846E-007
  0.12090000000000001         -3.2855088723275767E-007
  0.12200000000000003         -4.7784586023191796E-007
  0.12310000000000001         -6.2350768242912877E-007
  0.12420000000000003         -7.5275536961570042E-007
  0.12530000000000002         -8.5141723904133126E-007
  0.12640000000000001         -9.0478977335125595E-007
  0.12750000000000003         -8.9871074824712800E-007
  0.12860000000000002         -8.2080946753050804E-007
  0.12970000000000001         -6.6187720566947384E-007
  0.13080000000000003         -4.1728024347533162E-007
  0.13190000000000002         -8.8318361126831481E-008
  0.13300000000000001          3.1658365908599733E-007
  0.13410000000000000          7.8097196993219711E-007
  0.13520000000000004          1.2798659043357827E-006
  0.13630000000000003          1.7797734470530510E-006
  0.13740000000000002          2.2393053708742249E-006
  0.13850000000000001          2.6104444857956040E-006
  0.13960000000000000          2.8404924031325634E-006
  0.14070000000000005          2.8746793144396028E-006
  0.14180000000000004          2.6593842282977734E-006
  0.14290000000000003          2.1458753921910175E-006
  0.14400000000000002          1.2944451881566340E-006
  0.14510000000000001          7.8783588800414650E-008
  0.14620000000000000         -1.5095866252612336E-006
  0.14730000000000004         -3.4569966319513847E-006
  0.14840000000000003         -5.7236129997322303E-006
  0.14950000000000002         -8.2398550173692075E-006
  0.15060000000000001         -1.0903337296541560E-005
  0.15170000000000000         -1.3576356910303444E-005
  0.15280000000000005         -1.6083859344941091E-005
  0.15390000000000004         -1.8211721030480499E-005
  0.15500000000000003         -1.9705080551023807E-005
  0.15610000000000002         -2.0266337109751696E-005
  0.15720000000000001         -1.9552314417379782E-005
  0.15830000000000000         -1.7169962801701851E-005
  0.15940000000000004         -1.2669845797874457E-005
  0.16050000000000003         -5.5365354303368322E-006
  0.16160000000000002          4.8250709048210588E-006
  0.16270000000000001          1.9108594860251990E-005
  0.16380000000000000          3.8131344956231756E-005
  0.16490000000000005          6.2867036048626994E-005
  0.16600000000000004          9.4487349585789087E-005
  0.16710000000000003          1.3441368932807081E-004
  0.16820000000000002          1.8438056664354799E-004
  0.16930000000000001          2.4651214908186605E-004
  0.17040000000000000          3.2341362789609454E-004
  0.17150000000000004          4.1827920342538659E-004
  0.17260000000000003          5.3501864912587150E-004
  0.17370000000000002          6.7840459315008229E-004
  0.17480000000000001          8.5424284920260153E-004
  0.17590000000000000          1.0695683341453385E-003
  0.17700000000000005          1.3328693238174999E-003
  0.17810000000000004          1.6543430102380246E-003
  0.17920000000000003          2.0461855143475579E-003
  0.18030000000000002          2.5229196522719628E-003
  0.18140000000000001          3.1017638170673647E-003
  0.18250000000000000          3.8030452859662087E-003
  0.18360000000000004          4.6506610583477237E-003
  0.18470000000000003          5.6725889352800931E-003
  0.18580000000000002          6.9014509303741249E-003
  0.18690000000000001          8.3751302146980126E-003
  0.18800000000000000          1.0137441603459264E-002
  0.18910000000000005          1.2238854044845350E-002
  0.19020000000000004          1.4737261629154653E-002
  0.19130000000000003          1.7698797263639713E-002
  0.19240000000000002          2.1198680333071103E-002
  0.19350000000000001          2.5322086383594965E-002
  0.19460000000000005          3.0165023143701352E-002
  0.19570000000000004          3.5835193066279171E-002
  0.19680000000000003          4.2452818092826569E-002
  0.19790000000000002          5.0151397574604496E-002
  0.19900000000000001          5.9078365323292983E-002
  0.20010000000000000          6.9395606714271835E-002
  0.20120000000000005          8.1279791763991097E-002
  0.20230000000000004          9.4922475314458146E-002
  0.20340000000000003         0.11052991107982699
  0.20450000000000002         0.12832252256860252
  0.20560000000000000         0.14853397103881097
  0.20670000000000005         0.17140975893555346
  0.20780000000000004         0.19720530696946725
  0.20890000000000003         0.22618344438878341
