 -0.12000000000000000          0.0000000000000000
 -0.11889999999999999          0.0000000000000000
 -0.11780000000000000          0.0000000000000000
 -0.11670000000000000          0.0000000000000000
 -0.11559999999999999          0.0000000000000000
 -0.11449999999999999          0.0000000000000000
 -0.11340000000000000          0.0000000000000000
 -0.11230000000000000          0.0000000000000000
 -0.11119999999999999          0.0000000000000000
 -0.11009999999999999          0.0000000000000000
 -0.10900000000000000          0.0000000000000000
 -0.10790000000000000          0.0000000000000000
 -0.10679999999999999          0.0000000000000000
 -0.10569999999999999          0.0000000000000000
 -0.10460000000000000          0.0000000000000000
 -0.10349999999999999         -3.3383250123384835E-199
 -0.10239999999999999          6.6453607842248789E-173
 -0.10130000000000000         -1.6784250342558210E-147
 -0.10020000000000000         -1.0574349331260032E-122
  -9.9099999999999994E-002     2.3103197576925790E-097
  -9.7999999999999990E-002    -4.6722367901212613E-073
  -9.6899999999999986E-002    -2.8616925789501099E-048
  -9.5799999999999996E-002    -6.2900373815419731E-047
  -9.4699999999999993E-002    -6.4320238179979776E-046
  -9.3599999999999989E-002    -3.9112697985008600E-045
  -9.2499999999999999E-002    -1.4388464852712559E-044
  -9.1399999999999995E-002    -2.1991662352591402E-044
  -9.0299999999999991E-002     8.3182843758184621E-044
  -8.9200000000000002E-002     6.6777171323545133E-043
  -8.8099999999999984E-002     2.0761663748550850E-042
  -8.6999999999999994E-002     2.0963783875929576E-042
  -8.5899999999999990E-002    -1.0640111394077202E-041
  -8.4799999999999986E-002    -5.8817247766028513E-041
  -8.3699999999999997E-002    -1.3370492907407647E-040
  -8.2599999999999993E-002    -4.1432381106803482E-041
  -8.1499999999999989E-002     7.9609139505385385E-040
  -8.0399999999999999E-002     2.9779876480760360E-039
  -7.9299999999999995E-002     4.8157043276896834E-039
  -7.8199999999999992E-002    -2.4396585080682169E-039
  -7.7100000000000002E-002    -3.5756842806392650E-038
  -7.5999999999999984E-002    -9.8165154457140869E-038
  -7.4899999999999994E-002    -1.0959571334924783E-037
  -7.3799999999999991E-002     1.7765130513880471E-037
  -7.2699999999999987E-002     1.0812723646379944E-036
  -7.1599999999999997E-002     2.3252285527157520E-036
  -7.0499999999999993E-002     1.6711526438513102E-036
  -6.9399999999999989E-002    -5.8558238620792634E-036
  -6.8300000000000000E-002    -2.4165975596359956E-035
  -6.7199999999999996E-002    -4.2754093408663779E-035
  -6.6099999999999992E-002    -1.6992813155048558E-035
  -6.5000000000000002E-002     1.3019738398505919E-034
  -6.3899999999999985E-002     4.2701886210972789E-034
  -6.2799999999999995E-002     6.4880227842091458E-034
  -6.1699999999999991E-002     9.8269590164596895E-035
  -6.0599999999999994E-002    -2.2065874928584752E-033
  -5.9499999999999990E-002    -6.2624378750384903E-033
  -5.8399999999999994E-002    -8.5336705726770483E-033
  -5.7299999999999990E-002     3.7712924222918066E-035
  -5.6199999999999986E-002     3.0302433682836424E-032
  -5.5099999999999996E-002     7.8906748563508242E-032
  -5.3999999999999992E-002     1.0094075943416977E-031
  -5.2899999999999989E-002    -5.4728435074616205E-033
  -5.1799999999999985E-002    -3.4918813465397510E-031
  -5.0699999999999995E-002    -8.7461608169889136E-031
  -4.9599999999999991E-002    -1.0991793235518783E-030
  -4.8499999999999988E-002    -2.7319204668600245E-033
  -4.7399999999999998E-002     3.4418548082810153E-030
  -4.6299999999999994E-002     8.6539710468214060E-030
  -4.5199999999999990E-002     1.1128915834306466E-029
  -4.4099999999999986E-002     1.6072234986899977E-030
  -4.2999999999999997E-002    -2.9205273003618621E-029
  -4.1899999999999993E-002    -7.6992064691103556E-029
  -4.0799999999999989E-002    -1.0471138353235913E-028
  -3.9699999999999985E-002    -3.5439686921293649E-029
  -3.8599999999999995E-002     2.1161288132403975E-028
  -3.7499999999999992E-002     6.1646828075339824E-028
  -3.6399999999999988E-002     9.0976566994937894E-028
  -3.5299999999999984E-002     5.0486475304466788E-028
  -3.4199999999999994E-002    -1.2658344536467554E-027
  -3.3099999999999991E-002    -4.4197400033739906E-027
  -3.1999999999999987E-002    -7.2363978431813554E-027
  -3.0899999999999997E-002    -5.6187492714912574E-027
  -2.9799999999999993E-002     5.6011885100260775E-027
  -2.8699999999999989E-002     2.8016099948604905E-026
  -2.7599999999999986E-002     5.2196901635162619E-026
  -2.6499999999999996E-002     5.2127764270621779E-026
  -2.5399999999999992E-002    -9.1552854343483340E-027
  -2.4299999999999988E-002    -1.5294712100883260E-025
  -2.3199999999999985E-002    -3.3761886485421402E-025
  -2.2099999999999995E-002    -4.1489303523289799E-025
  -2.0999999999999991E-002    -1.4339098585706594E-025
  -1.9899999999999987E-002     6.7641309386397724E-025
  -1.8799999999999983E-002     1.9273047524051222E-024
  -1.7699999999999994E-002     2.8678588772068076E-024
  -1.6599999999999990E-002     2.0757603386702221E-024
  -1.5499999999999986E-002    -1.9696593742810832E-024
  -1.4399999999999996E-002    -9.4420357116613505E-024
  -1.3299999999999992E-002    -1.7237873809589534E-023
  -1.2199999999999989E-002    -1.7905450184571922E-023
  -1.1099999999999985E-002    -1.5784057871375616E-024
  -9.9999999999999950E-003     3.7295445101661148E-023
  -8.8999999999999913E-003     8.9178029442300465E-023
  -7.7999999999999875E-003     1.2018439417087784E-022
  -6.6999999999999837E-003     7.5025690169949248E-023
  -5.5999999999999939E-003    -9.6285138143956037E-023
  -4.4999999999999901E-003    -3.8537746147256762E-022
  -3.3999999999999864E-003    -6.6505842460593947E-022
  -2.2999999999999826E-003    -6.6854042342027149E-022
  -1.1999999999999927E-003    -7.1838288177179635E-023
  -9.9999999999988987E-005     1.2801370529967089E-021
   1.0000000000000148E-003     3.0471694018750078E-021
   2.1000000000000185E-003     4.1456281873549222E-021
   3.2000000000000084E-003     2.8792015373778680E-021
   4.3000000000000121E-003    -2.2618585659263299E-021
   5.4000000000000159E-003    -1.1113738440982622E-020
   6.5000000000000058E-003    -2.0208264878474041E-020
   7.6000000000000234E-003    -2.2217615626023216E-020
   8.7000000000000133E-003    -8.0295076959277087E-021
   9.8000000000000032E-003     2.7606643340795930E-020
   1.0900000000000021E-002     7.7906135922762606E-020
   1.2000000000000011E-002     1.1745224296572053E-019
   1.3100000000000001E-002     1.0398364165103845E-019
   1.4200000000000018E-002    -4.7671217943741032E-021
   1.5300000000000008E-002    -2.1803391580352014E-019
   1.6400000000000026E-002    -4.7315633728869464E-019
   1.7500000000000016E-002    -6.1537505812427268E-019
   1.8600000000000005E-002    -4.2892729119439074E-019
   1.9700000000000023E-002     2.5716226739394376E-019
   2.0800000000000013E-002     1.4002508683078681E-018
   2.1900000000000003E-002     2.5810657278596656E-018
   2.3000000000000020E-002     2.9715357034272463E-018
   2.4100000000000010E-002     1.5715741787639176E-018
   2.5200000000000000E-002    -2.2229756483935459E-018
   2.6300000000000018E-002    -7.8436081449653289E-018
   2.7400000000000008E-002    -1.2937410776389643E-017
   2.8500000000000025E-002    -1.3489090564602301E-017
   2.9600000000000015E-002    -5.2017575588012307E-018
   3.0700000000000005E-002     1.3781926549961727E-017
   3.1800000000000023E-002     3.9590553293307602E-017
   3.2900000000000013E-002     6.0541815035445332E-017
   3.4000000000000002E-002     5.8630228658796881E-017
   3.5100000000000020E-002     1.6407233561917799E-017
   3.6200000000000010E-002    -7.1088424752776650E-017
   3.7300000000000028E-002    -1.8327115980958447E-016
   3.8400000000000017E-002    -2.6744223322356063E-016
   3.9500000000000007E-002    -2.4785061002628481E-016
   4.0600000000000025E-002    -5.6274189888050873E-017
   4.1700000000000015E-002     3.1932462829614548E-016
   4.2800000000000005E-002     7.8537854500968802E-016
   4.3900000000000022E-002     1.1227128515511882E-015
   4.5000000000000012E-002     1.0293366632769486E-015
   4.6100000000000002E-002     2.4430203085182283E-016
   4.7200000000000020E-002    -1.2656833252297548E-015
   4.8300000000000010E-002    -3.1255335177314655E-015
   4.9400000000000027E-002    -4.4885550338477990E-015
   5.0500000000000017E-002    -4.2074909038804651E-015
   5.1600000000000007E-002    -1.2964798343432792E-015
   5.2700000000000025E-002     4.3915136368438136E-015
   5.3800000000000014E-002     1.1520167363139320E-014
   5.4900000000000004E-002     1.7046391459939233E-014
   5.6000000000000022E-002     1.6812913139553983E-014
   5.7100000000000012E-002     7.1401984026085822E-015
   5.8200000000000002E-002    -1.2841582247624944E-014
   5.9300000000000019E-002    -3.8945309622766563E-014
   6.0400000000000009E-002    -6.1038532940766445E-014
   6.1500000000000027E-002    -6.4809153334725482E-014
   6.2600000000000017E-002    -3.6816883233617529E-014
   6.3700000000000007E-002     2.7916915659149531E-014
   6.4800000000000024E-002     1.1829003000489500E-013
   6.5900000000000014E-002     2.0340843100666071E-013
   6.7000000000000004E-002     2.3689303369549819E-013
   6.8100000000000022E-002     1.7146984709959225E-013
   6.9200000000000012E-002    -1.7868712096000010E-014
   7.0300000000000029E-002    -3.0904982625013954E-013
   7.1400000000000019E-002    -6.1782717510836519E-013
   7.2500000000000009E-002    -8.0490097254338434E-013
   7.3600000000000027E-002    -7.1332719143930574E-013
   7.4700000000000016E-002    -2.3379233491645296E-013
   7.5800000000000006E-002     6.1911975899983588E-013
   7.6900000000000024E-002     1.6499330238893741E-012
   7.8000000000000014E-002     2.4803661848492776E-012
   7.9100000000000004E-002     2.6298727500085121E-012
   8.0200000000000021E-002     1.6812245462105549E-012
   8.1300000000000011E-002    -5.0328531530790658E-013
   8.2400000000000029E-002    -3.5873293505211689E-012
   8.3500000000000019E-002    -6.6823598768850301E-012
   8.4600000000000009E-002    -8.4709807123105994E-012
   8.5700000000000026E-002    -7.5672379491413037E-012
   8.6800000000000016E-002    -3.0641615330252480E-012
   8.7900000000000006E-002     4.8791245468824626E-012
   8.9000000000000024E-002     1.4633716626289514E-011
   9.0100000000000013E-002     2.3117250630491509E-011
   9.1200000000000003E-002     2.6391164015120851E-011
   9.2300000000000021E-002     2.0833753979932598E-011
   9.3400000000000011E-002     4.6610970774402797E-012
   9.4500000000000028E-002    -2.0645549883240411E-011
   9.5600000000000018E-002    -4.9568848296549617E-011
   9.6700000000000008E-002    -7.2960960269908954E-011
   9.7800000000000026E-002    -7.9904007056742066E-011
   9.8900000000000016E-002    -6.0889996714521683E-011
  0.10000000000000001         -1.1690600505511797E-011
  0.10110000000000002          6.3146577988491254E-011
  0.10220000000000001          1.4845715884529496E-010
  0.10330000000000003          2.1943652894884480E-010
  0.10440000000000002          2.4608711061498327E-010
  0.10550000000000001          2.0094135971103757E-010
  0.10660000000000003          6.8827856158848792E-011
  0.10770000000000002         -1.4354889010786405E-010
  0.10880000000000001         -4.0112984107370106E-010
  0.10990000000000003         -6.4015221093340066E-010
  0.11100000000000002         -7.7629884880511945E-010
  0.11210000000000001         -7.2219765522538102E-010
  0.11320000000000002         -4.1282402809889244E-010
  0.11430000000000001          1.6542913468290167E-010
  0.11540000000000003          9.4899477270799928E-010
  0.11650000000000002          1.7836095568487092E-009
  0.11760000000000001          2.4321821806438476E-009
  0.11870000000000003          2.6108911060099947E-009
  0.11980000000000002          2.0549857664652890E-009
  0.12090000000000001          6.0754902546831134E-010
  0.12200000000000003         -1.6854035056782486E-009
  0.12310000000000001         -4.4993825229496097E-009
  0.12420000000000003         -7.2068492297014720E-009
  0.12530000000000002         -8.9333693647529324E-009
  0.12640000000000001         -8.7128156062214710E-009
  0.12750000000000003         -5.7379549861308392E-009
  0.12860000000000002          3.2752993233596886E-010
  0.12970000000000001          9.0424194667097876E-009
  0.13080000000000003          1.8980213865805795E-008
  0.13190000000000002          2.7723662469174010E-008
  0.13300000000000001          3.2148474343504699E-008
  0.13410000000000000          2.9034549480231735E-008
  0.13520000000000004          1.5963832528517605E-008
  0.13630000000000003         -7.6352739731132104E-009
  0.13740000000000002         -3.9535653149160837E-008
  0.13850000000000001         -7.4160253859459306E-008
  0.13960000000000000         -1.0275191764655222E-007
  0.14070000000000005         -1.1451065974923023E-007
  0.14180000000000004         -9.8774329463026442E-008
  0.14290000000000003         -4.8060810439139720E-008
  0.14400000000000002          3.8518452130825257E-008
  0.14510000000000001          1.5225893392544579E-007
  0.14620000000000000          2.7326067051320487E-007
  0.14730000000000004          3.7121718302316520E-007
  0.14840000000000003          4.0934044523620875E-007
  0.14950000000000002          3.5162430218089337E-007
  0.15060000000000001          1.7284499922892310E-007
  0.15170000000000000         -1.3025689096020650E-007
  0.15280000000000005         -5.2908364833896164E-007
  0.15390000000000004         -9.5767260508971032E-007
  0.15500000000000003         -1.3147375806452680E-006
  0.15610000000000002         -1.4757100025478910E-006
  0.15720000000000001         -1.3156233472099302E-006
  0.15830000000000000         -7.4125569947383555E-007
  0.15940000000000004          2.7200518205171121E-007
  0.16050000000000003          1.6460436200874869E-006
  0.16160000000000002          3.1783006664270488E-006
  0.16270000000000001          4.5427431352193053E-006
  0.16380000000000000          5.3221301725342237E-006
  0.16490000000000005          5.0757832029693348E-006
  0.16600000000000004          3.4399709464983763E-006
  0.16710000000000003          2.4895676802151157E-007
  0.16820000000000002         -4.3448287617343750E-006
  0.16930000000000001         -9.7810270911283451E-006
  0.17040000000000000         -1.5065459473631713E-005
  0.17150000000000004         -1.8838962538142528E-005
  0.17260000000000003         -1.9560912989555057E-005
  0.17370000000000002         -1.5807729090631394E-005
  0.17480000000000001         -6.6595960556263660E-006
  0.17590000000000000          7.8821123614560177E-006
  0.17700000000000005          2.6532956595943584E-005
  0.17810000000000004          4.6524609074881537E-005
  0.17920000000000003          6.3672602102013819E-005
  0.18030000000000002          7.2798261434330473E-005
  0.18140000000000001          6.8541094433515200E-005
  0.18250000000000000          4.6522509045938661E-005
  0.18360000000000004          4.7280123295706737E-006
  0.18470000000000003         -5.5122583145666113E-005
  0.18580000000000002         -1.2652867126828558E-004
  0.18690000000000001         -1.9783909959682187E-004
  0.18800000000000000         -2.5289056159784107E-004
  0.18910000000000005         -2.7288393022965900E-004
  0.19020000000000004         -2.3954101746557569E-004
  0.19130000000000003         -1.3932194252588482E-004
  0.19240000000000002          3.1823751185244206E-005
  0.19350000000000001          2.6400102002527873E-004
  0.19460000000000005          5.3026842824452965E-004
  0.19570000000000004          7.8604080224186615E-004
  0.19680000000000003          9.7202192085464253E-004
  0.19790000000000002          1.0213160230140806E-003
  0.19900000000000001          8.7072507694933247E-004
  0.20010000000000000          4.7537574005499845E-004
  0.20120000000000005         -1.7516227200237145E-004
  0.20230000000000004         -1.0420467089447283E-003
  0.20340000000000003         -2.0271011643584720E-003
  0.20450000000000002         -2.9712351833988855E-003
  0.20560000000000000         -3.6646317444794783E-003
  0.20670000000000005         -3.8707638509654454E-003
  0.20780000000000004         -3.3642635655098097E-003
  0.20890000000000003         -1.9799478933079889E-003
