 -0.12000000000000000          0.0000000000000000
 -0.11889999999999999          0.0000000000000000
 -0.11780000000000000          0.0000000000000000
 -0.11670000000000000          0.0000000000000000
 -0.11559999999999999          0.0000000000000000
 -0.11449999999999999          0.0000000000000000
 -0.11340000000000000          0.0000000000000000
 -0.11230000000000000         -2.1638698790346404E-076
 -0.11119999999999999         -1.9252106889616880E-051
 -0.11009999999999999         -1.0864375253587154E-026
 -0.10900000000000000         -1.3311676666442393E-025
 -0.10790000000000000         -7.4469501987649233E-025
 -0.10679999999999999         -2.3200677648519465E-024
 -0.10569999999999999         -3.1987719288598377E-024
 -0.10460000000000000          5.8469644300085442E-024
 -0.10349999999999999          4.3004057714244520E-023
 -0.10239999999999999          1.0840525527865210E-022
 -0.10130000000000000          1.0448433956219632E-022
 -0.10020000000000000         -2.4445249908096737E-022
  -9.9099999999999994E-002    -1.2474979078219919E-021
  -9.7999999999999990E-002    -2.5497480679756897E-021
  -9.6899999999999986E-002    -1.9642496330899586E-021
  -9.5799999999999996E-002     4.8080255698903554E-021
  -9.4699999999999993E-002     2.0723655433144953E-020
  -9.3599999999999989E-002     3.8147898610617816E-020
  -9.2499999999999999E-002     2.8101891683098711E-020
  -9.1399999999999995E-002    -5.6030275512265806E-020
  -9.0299999999999991E-002    -2.3708514103063391E-019
  -8.9200000000000002E-002    -4.2861018906658407E-019
  -8.8099999999999984E-002    -3.5566300517489236E-019
  -8.6999999999999994E-002     3.8897896166669941E-019
  -8.5899999999999990E-002     2.0009861463013245E-018
  -8.4799999999999986E-002     3.8308595130586446E-018
  -8.3699999999999997E-002     3.8396410417814986E-018
  -8.2599999999999993E-002    -1.0219614231445114E-018
  -8.1499999999999989E-002    -1.2610989679751038E-017
  -8.0399999999999999E-002    -2.7590826624261795E-017
  -7.9299999999999995E-002    -3.3780866756917206E-017
  -7.8199999999999992E-002    -1.1441060496854490E-017
  -7.7100000000000002E-002     5.5481032957967007E-017
  -7.5999999999999984E-002     1.5749583677215798E-016
  -7.4899999999999994E-002     2.3667931379239379E-016
  -7.3799999999999991E-002     1.8454162817408247E-016
  -7.2699999999999987E-002    -1.1317993656411372E-016
  -7.1599999999999997E-002    -6.7468298368808162E-016
  -7.0499999999999993E-002    -1.2955182447917069E-015
  -6.9399999999999989E-002    -1.4859315768771393E-015
  -6.8300000000000000E-002    -5.9421536317948748E-016
  -6.7199999999999996E-002     1.8025171684330825E-015
  -6.6099999999999992E-002     5.3074072473793367E-015
  -6.5000000000000002E-002     8.2098298073112240E-015
  -6.3899999999999985E-002     7.5792290758008864E-015
  -6.2799999999999995E-002     4.0925643662551073E-016
  -6.1699999999999991E-002    -1.4140090789881162E-014
  -6.0599999999999994E-002    -3.2151415929361619E-014
  -5.9499999999999990E-002    -4.3640390221503928E-014
  -5.8399999999999994E-002    -3.4537612577992621E-014
  -5.7299999999999990E-002     6.8051953476761486E-015
  -5.6199999999999986E-002     7.9583714493969048E-014
  -5.5099999999999996E-002     1.6115683663409137E-013
  -5.3999999999999992E-002     2.0508322156616054E-013
  -5.2899999999999989E-002     1.5324504346993690E-013
  -5.1799999999999985E-002    -3.5810236647553851E-014
  -5.0699999999999995E-002    -3.4906043816837489E-013
  -4.9599999999999991E-002    -6.8879181564021487E-013
  -4.8499999999999988E-002    -8.7322182407045592E-013
  -4.7399999999999998E-002    -6.8705952496491958E-013
  -4.6299999999999994E-002     1.6806123818046036E-014
  -4.5199999999999990E-002     1.1920480744506330E-012
  -4.4099999999999986E-002     2.5064214086958094E-012
  -4.2999999999999997E-002     3.3509352083149971E-012
  -4.1899999999999993E-002     3.0006951455710867E-012
  -4.0799999999999989E-002     9.2236307141763857E-013
  -3.9699999999999985E-002    -2.8554058673729778E-012
  -3.8599999999999995E-002    -7.4634529916472552E-012
  -3.7499999999999992E-002    -1.1184538068578575E-011
  -3.6399999999999988E-002    -1.1841304507345318E-011
  -3.5299999999999984E-002    -7.5681524088823615E-012
  -3.4199999999999994E-002     2.2265029336072197E-012
  -3.3099999999999991E-002     1.6057942019804925E-011
  -3.1999999999999987E-002     3.0124127055041483E-011
  -3.0899999999999997E-002     3.8917995512422782E-011
  -2.9799999999999993E-002     3.6721030108839136E-011
  -2.8699999999999989E-002     1.9664286837848353E-011
  -2.7599999999999986E-002    -1.2248650800117399E-011
  -2.6499999999999996E-002    -5.3875723820866360E-011
  -2.5399999999999992E-002    -9.5012503059723727E-011
  -2.4299999999999988E-002    -1.2204419090540073E-010
  -2.3199999999999985E-002    -1.2096270015767468E-010
  -2.2099999999999995E-002    -8.1163049066964358E-011
  -2.0999999999999991E-002     7.5103628855669726E-013
  -1.9899999999999987E-002     1.1790326594700935E-010
  -1.8799999999999983E-002     2.5145276195609638E-010
  -1.7699999999999994E-002     3.7082882694797761E-010
  -1.6599999999999990E-002     4.3649306026304544E-010
  -1.5499999999999986E-002     4.0589703198513811E-010
  -1.4399999999999996E-002     2.4311330523026955E-010
  -1.3299999999999992E-002    -6.8164785078287905E-011
  -1.2199999999999989E-002    -5.1008700353249706E-010
  -1.1099999999999985E-002    -1.0184186784499045E-009
  -9.9999999999999950E-003    -1.4782024860715305E-009
  -8.8999999999999913E-003    -1.7332614691716876E-009
  -7.7999999999999875E-003    -1.6135271086467464E-009
  -6.6999999999999837E-003    -9.7956876281392991E-010
  -5.5999999999999939E-003     2.2274590404682627E-010
  -4.4999999999999901E-003     1.9108912144906937E-009
  -3.3999999999999864E-003     3.8347964471865235E-009
  -2.2999999999999826E-003     5.5825238615613014E-009
  -1.1999999999999927E-003     6.6318783638450666E-009
  -9.9999999999988987E-005     6.4461368599118390E-009
   1.0000000000000148E-003     4.5995373511341486E-009
   2.1000000000000185E-003     9.0822726858906140E-010
   3.2000000000000084E-003    -4.4616350909042517E-009
   4.3000000000000121E-003    -1.0933767214710978E-008
   5.4000000000000159E-003    -1.7525930887844092E-008
   6.5000000000000058E-003    -2.2923755241814267E-008
   7.6000000000000234E-003    -2.5620612497796509E-008
   8.7000000000000133E-003    -2.4115249394113549E-008
   9.8000000000000032E-003    -1.7157658584997678E-008
   1.0900000000000021E-002    -4.0320850440938187E-009
   1.2000000000000011E-002     1.5140906726419300E-008
   1.3100000000000001E-002     3.9116862235370281E-008
   1.4200000000000018E-002     6.5310343347082848E-008
   1.5300000000000008E-002     8.9726270477482722E-008
   1.6400000000000026E-002     1.0712760982322333E-007
   1.7500000000000016E-002     1.1151358534605398E-007
   1.8600000000000005E-002     9.6938721368466690E-008
   1.9700000000000023E-002     5.8631907481308485E-008
   2.0800000000000013E-002    -5.7103177583626213E-009
   2.1900000000000003E-002    -9.4660053081476982E-008
   2.3000000000000020E-002    -2.0207641503069077E-007
   2.4100000000000010E-002    -3.1666164482969642E-007
   2.5200000000000000E-002    -4.2226294510894470E-007
   2.6300000000000018E-002    -4.9903726432830857E-007
   2.7400000000000008E-002    -5.2547946879237173E-007
   2.8500000000000025E-002    -4.8119212393964558E-007
   2.9600000000000015E-002    -3.5016485691802134E-007
   3.0700000000000005E-002    -1.2424322615664602E-007
   3.1800000000000023E-002     1.9359573345245318E-007
   3.2900000000000013E-002     5.8658204315757915E-007
   3.4000000000000002E-002     1.0225382992503678E-006
   3.5100000000000020E-002     1.4537258427416681E-006
   3.6200000000000010E-002     1.8185046646645956E-006
   3.7300000000000028E-002     2.0450482601786198E-006
   3.8400000000000017E-002     2.0571878041382347E-006
   3.9500000000000007E-002     1.7822461364319236E-006
   4.0600000000000025E-002     1.1604823853259780E-006
   4.1700000000000015E-002     1.5553448290359502E-007
   4.2800000000000005E-002    -1.2349442748621098E-006
   4.3900000000000022E-002    -2.9693730581084704E-006
   4.5000000000000012E-002    -4.9539857935034187E-006
   4.6100000000000002E-002    -7.0370505001812857E-006
   4.7200000000000020E-002    -9.0061566456155596E-006
   4.8300000000000010E-002    -1.0588812862520344E-005
   4.9400000000000027E-002    -1.1456153114729486E-005
   5.0500000000000017E-002    -1.1229047915353433E-005
   5.1600000000000007E-002    -9.4854141927482923E-006
   5.2700000000000025E-002    -5.7670804182069980E-006
   5.3800000000000014E-002     4.1574088138428790E-007
   5.4900000000000004E-002     9.5844458349056418E-006
   5.6000000000000022E-002     2.2298503605041192E-005
   5.7100000000000012E-002     3.9170174335658180E-005
   5.8200000000000002E-002     6.0888948012113659E-005
   5.9300000000000019E-002     8.8256848164945304E-005
   6.0400000000000009E-002     1.2223547572994147E-004
   6.1500000000000027E-002     1.6400547630141863E-004
   6.2600000000000017E-002     2.1503897273139944E-004
   6.3700000000000007E-002     2.7718536019436690E-004
   6.4800000000000024E-002     3.5277066705723630E-004
   6.5900000000000014E-002     4.4471044524516318E-004
   6.7000000000000004E-002     5.5663594048830896E-004
   6.8100000000000022E-002     6.9303323379212782E-004
   6.9200000000000012E-002     8.5939527602253295E-004
   7.0300000000000029E-002     1.0623873338069852E-003
   7.1400000000000019E-002     1.3100272879112578E-003
   7.2500000000000009E-002     1.6118833035105647E-003
   7.3600000000000027E-002     1.9792923587680596E-003
   7.4700000000000016E-002     2.4256036948631346E-003
   7.5800000000000006E-002     2.9664512437169764E-003
   7.6900000000000024E-002     3.6200584635929806E-003
   7.8000000000000014E-002     4.4075779020067412E-003
   7.9100000000000004E-002     5.3534664564581233E-003
   8.0200000000000021E-002     6.4858959667813496E-003
   8.1300000000000011E-002     7.8371975888261568E-003
   8.2400000000000029E-002     9.4443373286721595E-003
   8.3500000000000019E-002     1.1349418949465468E-002
   8.4600000000000009E-002     1.3600208905238269E-002
   8.5700000000000026E-002     1.6250675762210454E-002
   8.6800000000000016E-002     1.9361533663214726E-002
   8.7900000000000006E-002     2.3000775929747697E-002
   8.9000000000000024E-002     2.7244181231077105E-002
   9.0100000000000013E-002     3.2175771318253478E-002
   9.1200000000000003E-002     3.7888196496141224E-002
   9.2300000000000021E-002     4.4483022971282954E-002
   9.3400000000000011E-002     5.2070894904275744E-002
   9.4500000000000028E-002     6.0771543139463688E-002
   9.5600000000000018E-002     7.0713611811099295E-002
   9.6700000000000008E-002     8.2034273008860278E-002
   9.7800000000000026E-002     9.4878598275389789E-002
   9.8900000000000016E-002    0.10939865399889291
  0.10000000000000001         0.12575228609781955
  0.10110000000000002         0.14410155830442378
  0.10220000000000001         0.16461080846016254
  0.10330000000000003         0.18744428912949576
  0.10440000000000002         0.21276336296574222
  0.10550000000000001         0.24072322983047598
  0.10660000000000003         0.27146917159325884
  0.10770000000000002         0.30513231146110548
  0.10880000000000001         0.34182489706539387
  0.10990000000000003         0.38163512981733333
  0.11100000000000002         0.42462157688058366
  0.11210000000000001         0.47080721651954233
  0.11320000000000002         0.52017318299420767
  0.11430000000000001         0.57265229428153130
  0.11540000000000003         0.62812246533410498
  0.11650000000000002         0.68640013147013201
  0.11760000000000001         0.74723383010172828
  0.11870000000000003         0.81029811266376828
  0.11980000000000002         0.87518797988937669
  0.12090000000000001         0.94141404992403332
  0.12200000000000003          1.0083986781901124
  0.12310000000000001          1.0754732496167203
  0.12420000000000003          1.1418768584747321
  0.12530000000000002          1.2067565803681390
  0.12640000000000001          1.2691695270349401
  0.12750000000000003          1.3280868589508679
  0.12860000000000002          1.3823999132762685
  0.12970000000000001          1.4309285836519829
  0.13080000000000003          1.4724320606278822
  0.13190000000000002          1.5056220037342438
  0.13300000000000001          1.5291781660826582
  0.13410000000000000          1.5417664297680354
  0.13520000000000004          1.5420591376810182
  0.13630000000000003          1.5287575292279199
  0.13740000000000002          1.5006160094722463
  0.13850000000000001          1.4564679084194976
  0.13960000000000000          1.3952523228222948
  0.14070000000000005          1.3160415778309096
  0.14180000000000004          1.2180687987765393
  0.14290000000000003          1.1007550420244407
  0.14400000000000002         0.96373539626745430
  0.14510000000000001         0.80688343171076449
  0.14620000000000000         0.63033334670412255
  0.14730000000000004         0.43449914429001230
  0.14840000000000003         0.22009017108597079
  0.14950000000000002         -1.1877625941293754E-002
  0.15060000000000001        -0.26007531851797994
  0.15170000000000000        -0.52286000598752436
  0.15280000000000005        -0.79827962205520098
  0.15390000000000004         -1.0840838205604089
  0.15500000000000003         -1.3777410823230161
  0.15610000000000002         -1.6764620421508234
  0.15720000000000001         -1.9772288954000905
  0.15830000000000000         -2.2768306108907099
  0.15940000000000004         -2.5719035514030453
  0.16050000000000003         -2.8589769810127197
  0.16160000000000002         -3.1345228153400648
  0.16270000000000001         -3.3950088429622012
  0.16380000000000000         -3.6369545144425115
  0.16490000000000005         -3.8569882661757253
  0.16600000000000004         -4.0519052316289574
  0.16710000000000003         -4.2187241078855768
  0.16820000000000002         -4.3547419051154881
  0.16930000000000001         -4.4575853198035835
  0.17040000000000000         -4.5252575397196297
  0.17150000000000004         -4.5561794007602820
  0.17260000000000003         -4.5492239569658484
  0.17370000000000002         -4.5037436771506068
  0.17480000000000001         -4.4195896304228945
  0.17590000000000000         -4.2971221626518012
  0.17700000000000005         -4.1372127010763435
  0.17810000000000004         -3.9412364671277453
  0.17920000000000003         -3.7110560429797914
  0.18030000000000002         -3.4489959357279973
  0.18140000000000001         -3.1578085145313799
  0.18250000000000000         -2.8406319479220183
  0.18360000000000004         -2.5009410174750815
  0.18470000000000003         -2.1424919020525364
  0.18580000000000002         -1.7692621890025935
  0.18690000000000001         -1.3853874605913890
  0.18800000000000000        -0.99509582568069710
  0.18910000000000005        -0.60264173239470920
  0.19020000000000004        -0.21224033048939014
  0.19130000000000003         0.17199642301908930
  0.19240000000000002         0.54612078666469421
  0.19350000000000001         0.90640630709313830
  0.19460000000000005          1.2493999048368500
  0.19570000000000004          1.5719679905890169
  0.19680000000000003          1.8713357182386601
  0.19790000000000002          2.1451186245376390
  0.19900000000000001          2.3913461114126968
  0.20010000000000000          2.6084764874108175
  0.20120000000000005          2.7954035753386330
  0.20230000000000004          2.9514551785224401
  0.20340000000000003          3.0763839407059570
  0.20450000000000002          3.1703513049333214
  0.20560000000000000          3.2339053623112513
  0.20670000000000005          3.2679533912101575
  0.20780000000000004          3.2737298497017986
  0.20890000000000003          3.2527605384981388
