 -0.12000000000000000          0.0000000000000000
 -0.11889999999999999          0.0000000000000000
 -0.11780000000000000          0.0000000000000000
 -0.11670000000000000          0.0000000000000000
 -0.11559999999999999          0.0000000000000000
 -0.11449999999999999          0.0000000000000000
 -0.11340000000000000          0.0000000000000000
 -0.11230000000000000          0.0000000000000000
 -0.11119999999999999          0.0000000000000000
 -0.11009999999999999          6.5322107019530262E-029
 -0.10900000000000000          8.4684231118821368E-028
 -0.10790000000000000          5.4289317078508660E-027
 -0.10679999999999999          2.2579018523462771E-026
 -0.10569999999999999          6.6789573921816356E-026
 -0.10460000000000000          1.4259819356208303E-025
 -0.10349999999999999          2.0037125466106816E-025
 -0.10239999999999999          7.6771028065125762E-026
 -0.10130000000000000         -5.1161194206939261E-025
 -0.10020000000000000         -1.8142760798260323E-024
  -9.9099999999999994E-002    -3.6896690519086665E-024
  -9.7999999999999990E-002    -5.2028405819773702E-024
  -9.6899999999999986E-002    -4.5238631038339281E-024
  -9.5799999999999996E-002     6.6134970586576471E-025
  -9.4699999999999993E-002     1.2595710252217213E-023
  -9.3599999999999989E-002     3.3562147430074586E-023
  -9.2499999999999999E-002     6.6471042103347173E-023
  -9.1399999999999995E-002     1.1249558831873446E-022
  -9.0299999999999991E-002     1.5889077810099821E-022
  -8.9200000000000002E-002     1.5267069435098219E-022
  -8.8099999999999984E-002    -2.8396700477309383E-023
  -8.6999999999999994E-002    -5.6750555705287452E-022
  -8.5899999999999990E-002    -1.6007262826950624E-021
  -8.4799999999999986E-002    -2.9676418424229835E-021
  -8.3699999999999997E-002    -3.8795524048057653E-021
  -8.2599999999999993E-002    -2.7354696967563984E-021
  -8.1499999999999989E-002     2.5332834733488709E-021
  -8.0399999999999999E-002     1.3248853156523521E-020
  -7.9299999999999995E-002     2.7952788958132032E-020
  -7.8199999999999992E-002     4.0340695566967017E-020
  -7.7100000000000002E-002     3.8738972693908028E-020
  -7.5999999999999984E-002     8.9450186937443466E-021
  -7.4899999999999994E-002    -5.8635267872609300E-020
  -7.3799999999999991E-002    -1.5880219670869227E-019
  -7.2699999999999987E-002    -2.6238879919664519E-019
  -7.1599999999999997E-002    -3.1411911603628686E-019
  -7.0499999999999993E-002    -2.4298402764517917E-019
  -6.9399999999999989E-002     1.3157772406886835E-020
  -6.8300000000000000E-002     4.7306992640065402E-019
  -6.7199999999999996E-002     1.0776895452834505E-018
  -6.6099999999999992E-002     1.6681825374153291E-018
  -6.5000000000000002E-002     1.9872964635235725E-018
  -6.3899999999999985E-002     1.7110979218566005E-018
  -6.2799999999999995E-002     5.1617278824334961E-019
  -6.1699999999999991E-002    -1.8114093837711450E-018
  -6.0599999999999994E-002    -5.2195062234224374E-018
  -5.9499999999999990E-002    -9.1936604382973883E-018
  -5.8399999999999994E-002    -1.2568162514733516E-017
  -5.7299999999999990E-002    -1.3454108193868970E-017
  -5.6199999999999986E-002    -9.4534734429276742E-018
  -5.5099999999999996E-002     1.6692597830262073E-018
  -5.3999999999999992E-002     2.0799697525731169E-017
  -5.2899999999999989E-002     4.5965396505373418E-017
  -5.1799999999999985E-002     7.1041958833420571E-017
  -5.0699999999999995E-002     8.5488340214054412E-017
  -4.9599999999999991E-002     7.5944215564348294E-017
  -4.8499999999999988E-002     3.0113692765661641E-017
  -4.7399999999999998E-002    -5.7484808883680415E-017
  -4.6299999999999994E-002    -1.7938156982197434E-016
  -4.5199999999999990E-002    -3.1095972132928035E-016
  -4.4099999999999986E-002    -4.1069766363642959E-016
  -4.2999999999999997E-002    -4.2655184730402951E-016
  -4.1899999999999993E-002    -3.0852151324168047E-016
  -4.0799999999999989E-002    -2.5418340416400850E-017
  -3.9699999999999985E-002     4.1779877574282291E-016
  -3.8599999999999995E-002     9.6650900013690955E-016
  -3.7499999999999992E-002     1.5108563000048443E-015
  -3.6399999999999988E-002     1.8913858942486724E-015
  -3.5299999999999984E-002     1.9183044028702913E-015
  -3.4199999999999994E-002     1.4060879395915559E-015
  -3.3099999999999991E-002     2.2392380200586197E-016
  -3.1999999999999987E-002    -1.6407790736422252E-015
  -3.0899999999999997E-002    -4.0151200702096820E-015
  -2.9799999999999993E-002    -6.4884738947301721E-015
  -2.8699999999999989E-002    -8.4033713669426083E-015
  -2.7599999999999986E-002    -8.9208186536092886E-015
  -2.6499999999999996E-002    -7.1821299003768190E-015
  -2.5399999999999992E-002    -2.5640816876019048E-015
  -2.4299999999999988E-002     5.0140234718384935E-015
  -2.3199999999999985E-002     1.4812814838971105E-014
  -2.2099999999999995E-002     2.5131172086143958E-014
  -2.0999999999999991E-002     3.3400221848856724E-014
  -1.9899999999999987E-002     3.6567277133879938E-014
  -1.8799999999999983E-002     3.1746621167546761E-014
  -1.7699999999999994E-002     1.7027062394831251E-014
  -1.6599999999999990E-002    -7.7405525465775651E-015
  -1.5499999999999986E-002    -4.0374271865977988E-014
  -1.4399999999999996E-002    -7.6177309746870554E-014
  -1.3299999999999992E-002    -1.0823559643927775E-013
  -1.2199999999999989E-002    -1.2821069628439876E-013
  -1.1099999999999985E-002    -1.2757662472642851E-013
  -9.9999999999999950E-003    -9.9208226640800099E-014
  -8.8999999999999913E-003    -3.9194628879444094E-014
  -7.7999999999999875E-003     5.1310345205311469E-014
  -6.6999999999999837E-003     1.6450201103275959E-013
  -5.5999999999999939E-003     2.8505237348180721E-013
  -4.4999999999999901E-003     3.9051309027467723E-013
  -3.3999999999999864E-003     4.5352279831477300E-013
  -2.2999999999999826E-003     4.4607373705013479E-013
  -1.1999999999999927E-003     3.4555928636248215E-013
  -9.9999999999988987E-005     1.4163877568640132E-013
   1.0000000000000148E-003    -1.5765377029593217E-013
   2.1000000000000185E-003    -5.2238881250474607E-013
   3.2000000000000084E-003    -9.0134397747419480E-013
   4.3000000000000121E-003    -1.2274000027733694E-012
   5.4000000000000159E-003    -1.4271897375535181E-012
   6.5000000000000058E-003    -1.4333134269220465E-012
   7.6000000000000234E-003    -1.1967793011785929E-012
   8.7000000000000133E-003    -6.9741587772328407E-013
   9.8000000000000032E-003     4.9241887396807229E-014
   1.0900000000000021E-002     9.8905924568692418E-013
   1.2000000000000011E-002     2.0300992986175429E-012
   1.3100000000000001E-002     3.0467059748007344E-012
   1.4200000000000018E-002     3.8870398933956360E-012
   1.5300000000000008E-002     4.3850325676606403E-012
   1.6400000000000026E-002     4.3780111461306568E-012
   1.7500000000000016E-002     3.7303915922939244E-012
   1.8600000000000005E-002     2.3617389024114558E-012
   1.9700000000000023E-002     2.7478707371428487E-013
   2.0800000000000013E-002    -2.4230782047211063E-012
   2.1900000000000003E-002    -5.5115684928255342E-012
   2.3000000000000020E-002    -8.6668345818320772E-012
   2.4100000000000010E-002    -1.1488404299341582E-011
   2.5200000000000000E-002    -1.3538975369847290E-011
   2.6300000000000018E-002    -1.4389342939553328E-011
   2.7400000000000008E-002    -1.3661138727018676E-011
   2.8500000000000025E-002    -1.1063928723013904E-011
   2.9600000000000015E-002    -6.4287640514498526E-012
   3.0700000000000005E-002     2.5561274845020092E-013
   3.1800000000000023E-002     8.7980732475742918E-012
   3.2900000000000013E-002     1.8752224289118036E-011
   3.4000000000000002E-002     2.9365993095562081E-011
   3.5100000000000020E-002     3.9554622070558753E-011
   3.6200000000000010E-002     4.7922892914225975E-011
   3.7300000000000028E-002     5.2857802676375838E-011
   3.8400000000000017E-002     5.2698362787486555E-011
   3.9500000000000007E-002     4.5968615467289113E-011
   4.0600000000000025E-002     3.1640518768432787E-011
   4.1700000000000015E-002     9.3824995174453500E-012
   4.2800000000000005E-002    -2.0248483971454157E-011
   4.3900000000000022E-002    -5.5699751759342281E-011
   4.5000000000000012E-002    -9.4409938096491449E-011
   4.6100000000000002E-002    -1.3288428547240817E-010
   4.7200000000000020E-002    -1.6684764911736654E-010
   4.8300000000000010E-002    -1.9147202912195324E-010
   4.9400000000000027E-002    -2.0168883114387502E-010
   5.0500000000000017E-002    -1.9260472175913693E-010
   5.1600000000000007E-002    -1.6003355283466424E-010
   5.2700000000000025E-002    -1.0113121439219910E-010
   5.3800000000000014E-002    -1.5080839821553762E-011
   5.4900000000000004E-002     9.6263569693428387E-011
   5.6000000000000022E-002     2.2788951406208933E-010
   5.7100000000000012E-002     3.7140251569824835E-010
   5.8200000000000002E-002     5.1513941267048044E-010
   5.9300000000000019E-002     6.4463839330230438E-010
   6.0400000000000009E-002     7.4343605989352644E-010
   6.1500000000000027E-002     7.9413370208085076E-010
   6.2600000000000017E-002     7.7967592794174200E-010
   6.3700000000000007E-002     6.8480625769002568E-010
   6.4800000000000024E-002     4.9768437886604286E-010
   6.5900000000000014E-002     2.1164351633004134E-010
   6.7000000000000004E-002    -1.7298112124748706E-010
   6.8100000000000022E-002    -6.4710550398012827E-010
   6.9200000000000012E-002    -1.1914777035621698E-009
   7.0300000000000029E-002    -1.7758975136200454E-009
   7.1400000000000019E-002    -2.3593872699656771E-009
   7.2500000000000009E-002    -2.8915501587622887E-009
   7.3600000000000027E-002    -3.3152119386599125E-009
   7.4700000000000016E-002    -3.5702751377882221E-009
   7.5800000000000006E-002    -3.5985676573768492E-009
   7.6900000000000024E-002    -3.3493752196786350E-009
   7.8000000000000014E-002    -2.7853177171448528E-009
   7.9100000000000004E-002    -1.8882426229456061E-009
   8.0200000000000021E-002    -6.6482600067488491E-010
   8.1300000000000011E-002     8.4844190466496117E-010
   8.2400000000000029E-002     2.5812665452910658E-009
   8.3500000000000019E-002     4.4270161408299724E-009
   8.4600000000000009E-002     6.2421709812134864E-009
   8.5700000000000026E-002     7.8482781721681215E-009
   8.6800000000000016E-002     9.0368412270836096E-009
   8.7900000000000006E-002     9.5773965858646639E-009
   8.9000000000000024E-002     9.2288107158494426E-009
   9.0100000000000013E-002     7.7536303399940543E-009
   9.1200000000000003E-002     4.9351829715711263E-009
   9.2300000000000021E-002     5.9707286727606659E-010
   9.3400000000000011E-002    -5.3752692878956146E-009
   9.4500000000000028E-002    -1.3011285289262401E-008
   9.5600000000000018E-002    -2.2230507225632283E-008
   9.6700000000000008E-002    -3.2816542862967306E-008
   9.7800000000000026E-002    -4.4390029309366087E-008
   9.8900000000000016E-002    -5.6380617800117454E-008
  0.10000000000000001         -6.7997763728172015E-008
  0.10110000000000002         -7.8199630015075790E-008
  0.10220000000000001         -8.5658793437554155E-008
  0.10330000000000003         -8.8722740431853451E-008
  0.10440000000000002         -8.5366430689743544E-008
  0.10550000000000001         -7.3133545263077808E-008
  0.10660000000000003         -4.9062417616489197E-008
  0.10770000000000002         -9.5920130992321746E-009
  0.10880000000000001          4.9557408475839402E-008
  0.10990000000000003          1.3353520424244479E-007
  0.11100000000000002          2.4855014964273760E-007
  0.11210000000000001          4.0210761235112407E-007
  0.11320000000000002          6.0330375894025780E-007
  0.11430000000000001          8.6318756076660085E-007
  0.11540000000000003          1.1952023836574338E-006
  0.11650000000000002          1.6157199455440432E-006
  0.11760000000000001          2.1446805406422857E-006
  0.11870000000000003          2.8063547956725839E-006
  0.11980000000000002          3.6302439153208228E-006
  0.12090000000000001          4.6521373538254414E-006
  0.12200000000000003          5.9153489768303156E-006
  0.12310000000000001          7.4721548643931681E-006
  0.12420000000000003          9.3854577966802869E-006
  0.12530000000000002          1.1730705098511863E-005
  0.12640000000000001          1.4598087943512114E-005
  0.12750000000000003          1.8095051530148592E-005
  0.12860000000000002          2.2349146789248832E-005
  0.12970000000000001          2.7511255368315396E-005
  0.13080000000000003          3.3759220270907295E-005
  0.13190000000000002          4.1301914255406505E-005
  0.13300000000000001          5.0383776401059338E-005
  0.13410000000000000          6.1289843682029718E-005
  0.13520000000000004          7.4351298669098114E-005
  0.13630000000000003          8.9951546506220019E-005
  0.13740000000000002          1.0853282410836127E-004
  0.13850000000000001          1.3060333212212534E-004
  0.13960000000000000          1.5674486549574867E-004
  0.14070000000000005          1.8762090127936811E-004
  0.14180000000000004          2.2398508217553561E-004
  0.14290000000000003          2.6669001106418384E-004
  0.14400000000000002          3.1669624509134185E-004
  0.14510000000000001          3.7508134807210703E-004
  0.14620000000000000          4.4304882734323735E-004
  0.14730000000000004          5.2193674645035733E-004
  0.14840000000000003          6.1322576889977578E-004
  0.14950000000000002          7.1854635136490205E-004
  0.15060000000000001          8.3968476790065316E-004
  0.15170000000000000          9.7858761061788888E-004
  0.15280000000000005          1.1373643778119136E-003
  0.15390000000000004          1.3182877289303610E-003
  0.15500000000000003          1.5237909585525593E-003
  0.15610000000000002          1.7564622205545571E-003
  0.15720000000000001          2.0190350207922800E-003
  0.15830000000000000          2.3143744938400224E-003
  0.15940000000000004          2.6454589882953343E-003
  0.16050000000000003          3.0153565074406141E-003
  0.16160000000000002          3.4271955890525160E-003
  0.16270000000000001          3.8841302612555545E-003
  0.16380000000000000          4.3892987819004773E-003
  0.16490000000000005          4.9457759582818318E-003
  0.16600000000000004          5.5565189530450533E-003
  0.16710000000000003          6.2243066112354743E-003
  0.16820000000000002          6.9516724921571370E-003
  0.16930000000000001          7.7408319566654067E-003
  0.17040000000000000          8.5936038434706319E-003
  0.17150000000000004          9.5113274640233787E-003
  0.17260000000000003          1.0494775851086425E-002
  0.17370000000000002          1.1544066407224491E-002
  0.17480000000000001          1.2658570311722964E-002
  0.17590000000000000          1.3836822252826323E-002
  0.17700000000000005          1.5076432250859351E-002
  0.17810000000000004          1.6374001520181189E-002
  0.17920000000000003          1.7725044476832857E-002
  0.18030000000000002          1.9123919126705691E-002
  0.18140000000000001          2.0563768158759859E-002
  0.18250000000000000          2.2036473112471953E-002
  0.18360000000000004          2.3532623982289554E-002
  0.18470000000000003          2.5041506559303962E-002
  0.18580000000000002          2.6551109687392580E-002
  0.18690000000000001          2.8048154424415436E-002
  0.18800000000000000          2.9518146846435472E-002
  0.18910000000000005          3.0945455913527434E-002
  0.19020000000000004          3.2313417430537728E-002
  0.19130000000000003          3.3604464688385453E-002
  0.19240000000000002          3.4800285866846081E-002
  0.19350000000000001          3.5882007726356149E-002
  0.19460000000000005          3.6830404524492627E-002
  0.19570000000000004          3.7626130474428685E-002
  0.19680000000000003          3.8249973431217617E-002
  0.19790000000000002          3.8683126861676617E-002
  0.19900000000000001          3.8907476540392755E-002
  0.20010000000000000          3.8905897834345060E-002
  0.20120000000000005          3.8662558908988995E-002
  0.20230000000000004          3.8163224726908203E-002
  0.20340000000000003          3.7395556333520846E-002
  0.20450000000000002          3.6349399648879205E-002
  0.20560000000000000          3.5017057824321816E-002
  0.20670000000000005          3.3393541188882339E-002
  0.20780000000000004          3.1476788911032678E-002
  0.20890000000000003          2.9267856741354837E-002
