 -0.12000000000000000          0.0000000000000000
 -0.11889999999999999          0.0000000000000000
 -0.11780000000000000          0.0000000000000000
 -0.11670000000000000          0.0000000000000000
 -0.11559999999999999          0.0000000000000000
 -0.11449999999999999          0.0000000000000000
 -0.11340000000000000          0.0000000000000000
 -0.11230000000000000          0.0000000000000000
 -0.11119999999999999          1.3100259292584111E-107
 -0.11009999999999999         -9.6910365973909161E-082
 -0.10900000000000000          1.0928948035328102E-056
 -0.10790000000000000          3.4705168021399009E-032
 -0.10679999999999999          4.4179910748722553E-031
 -0.10569999999999999          2.5662035168618891E-030
 -0.10460000000000000          8.2776527193732630E-030
 -0.10349999999999999          1.1700065982620953E-029
 -0.10239999999999999         -2.2740583050324022E-029
 -0.10130000000000000         -1.6766836686090398E-028
 -0.10020000000000000         -4.1732353249821973E-028
  -9.9099999999999994E-002    -3.2903996713413970E-028
  -9.7999999999999990E-002     1.3369734290424529E-027
  -9.6899999999999986E-002     5.8295835821273143E-027
  -9.5799999999999996E-002     1.0745933181407033E-026
  -9.4699999999999993E-002     4.1236697894685604E-027
  -9.3599999999999989E-002    -3.5460396486919890E-026
  -9.2499999999999999E-002    -1.1573967134059348E-025
  -9.1399999999999995E-002    -1.7448222489145917E-025
  -9.0299999999999991E-002    -2.5747649989901761E-026
  -8.9200000000000002E-002     5.7554116605287786E-025
  -8.8099999999999984E-002     1.6007277906547204E-024
  -8.6999999999999994E-002     2.1673162335382959E-024
  -8.5899999999999990E-002     2.1617906631936063E-025
  -8.4799999999999986E-002    -6.4769061408503622E-024
  -8.3699999999999997E-002    -1.6991364631268515E-023
  -8.2599999999999993E-002    -2.2532742973498410E-023
  -8.1499999999999989E-002    -4.9053389045424917E-024
  -8.0399999999999999E-002     5.3910121419019637E-023
  -7.9299999999999995E-002     1.4577595399207959E-022
  -7.8199999999999992E-002     2.0280314925567770E-022
  -7.7100000000000002E-002     8.8980509202101888E-023
  -7.5999999999999984E-002    -3.3284343724961187E-022
  -7.4899999999999994E-002    -1.0295606498208186E-021
  -7.3799999999999991E-002    -1.5796797987644112E-021
  -7.2699999999999987E-002    -1.1032137487157235E-021
  -7.1599999999999997E-002     1.3727298194289405E-021
  -7.0499999999999993E-002     5.9390276946272365E-021
  -6.9399999999999989E-002     1.0499725630612440E-020
  -6.8300000000000000E-002     1.0129020216680067E-020
  -6.7199999999999996E-002    -1.3968204772523193E-021
  -6.6099999999999992E-002    -2.6814555731535165E-020
  -6.5000000000000002E-002    -5.8294193063139543E-020
  -6.3899999999999985E-002    -7.2406673529160695E-020
  -6.2799999999999995E-002    -3.4369435539456766E-020
  -6.1699999999999991E-002     8.2102527249777479E-020
  -6.0599999999999994E-002     2.6079919438184983E-019
  -5.9499999999999990E-002     4.1083087077337837E-019
  -5.8399999999999994E-002     3.6700913784144560E-019
  -5.7299999999999990E-002    -4.4200126758608507E-020
  -5.6199999999999986E-002    -8.6435638184749621E-019
  -5.5099999999999996E-002    -1.8342618017590569E-018
  -5.3999999999999992E-002    -2.3097693028870773E-018
  -5.2899999999999989E-002    -1.4105779360133430E-018
  -5.1799999999999985E-002     1.5026276332648011E-018
  -5.0699999999999995E-002     6.1024803863199882E-018
  -4.9599999999999991E-002     1.0463284699699717E-017
  -4.8499999999999988E-002     1.1086264190076077E-017
  -4.7399999999999998E-002     4.1207175595728819E-018
  -4.6299999999999994E-002    -1.2123415867942698E-017
  -4.5199999999999990E-002    -3.4139389731566748E-017
  -4.4099999999999986E-002    -5.1410066576943951E-017
  -4.2999999999999997E-002    -4.8046059771436051E-017
  -4.1899999999999993E-002    -9.3922688233919747E-018
  -4.0799999999999989E-002     6.7151602588077317E-017
  -3.9699999999999985E-002     1.6122882850434292E-016
  -3.8599999999999995E-002     2.2565677780202170E-016
  -3.7499999999999992E-002     1.9706213973483715E-016
  -3.6399999999999988E-002     2.4262389066249246E-017
  -3.5299999999999984E-002    -2.9141901652996224E-016
  -3.4199999999999994E-002    -6.6092251583575074E-016
  -3.3099999999999991E-002    -9.0204319305091401E-016
  -3.1999999999999987E-002    -7.8597937179173417E-016
  -3.0899999999999997E-002    -1.4056383449578073E-016
  -2.9799999999999993E-002     1.0154726329156629E-015
  -2.8699999999999989E-002     2.3656495443021557E-015
  -2.7599999999999986E-002     3.2923160210528068E-015
  -2.6499999999999996E-002     3.0368873470287124E-015
  -2.5399999999999992E-002     1.0262981211053046E-015
  -2.4299999999999988E-002    -2.7206134675625713E-015
  -2.3199999999999985E-002    -7.2799798236207963E-015
  -2.2099999999999995E-002    -1.0813465182367985E-014
  -2.0999999999999991E-002    -1.1017553084818437E-014
  -1.9899999999999987E-002    -6.0255680097664816E-015
  -1.8799999999999983E-002     4.4736033939029778E-015
  -1.7699999999999994E-002     1.8347559629592337E-014
  -1.6599999999999990E-002     3.0889811437888873E-014
  -1.5499999999999986E-002     3.5828338370507892E-014
  -1.4399999999999996E-002     2.7470940099350770E-014
  -1.3299999999999992E-002     3.4581408332268881E-015
  -1.2199999999999989E-002    -3.2876236490680662E-014
  -1.1099999999999985E-002    -7.1712318909338334E-014
  -9.9999999999999950E-003    -9.8399437649293851E-014
  -8.8999999999999913E-003    -9.7663332385340860E-014
  -7.7999999999999875E-003    -5.9420509316748269E-014
  -6.6999999999999837E-003     1.5677277175675651E-014
  -5.5999999999999939E-003     1.1322549558069111E-013
  -4.4999999999999901E-003     2.0636815910534713E-013
  -3.3999999999999864E-003     2.6191554323033828E-013
  -2.2999999999999826E-003     2.5003532106937898E-013
  -1.1999999999999927E-003     1.5473500104828865E-013
  -9.9999999999988987E-005    -1.8318691198035774E-014
   1.0000000000000148E-003    -2.3951973909968145E-013
   2.1000000000000185E-003    -4.5974622853548159E-013
   3.2000000000000084E-003    -6.2043560758856121E-013
   4.3000000000000121E-003    -6.6645292773521782E-013
   5.4000000000000159E-003    -5.5828316386686581E-013
   6.5000000000000058E-003    -2.8092757426841116E-013
   7.6000000000000234E-003     1.5127056376675690E-013
   8.7000000000000133E-003     6.9284241655679411E-013
   9.8000000000000032E-003     1.2668008726010925E-012
   1.0900000000000021E-002     1.7651618204235584E-012
   1.2000000000000011E-002     2.0525067218374299E-012
   1.3100000000000001E-002     1.9773578273838525E-012
   1.4200000000000018E-002     1.3969096384333775E-012
   1.5300000000000008E-002     2.1801794468968953E-013
   1.6400000000000026E-002    -1.5489672325836014E-012
   1.7500000000000016E-002    -3.7354046923233527E-012
   1.8600000000000005E-002    -5.9780386278958651E-012
   1.9700000000000023E-002    -7.7236293685551135E-012
   2.0800000000000013E-002    -8.2928045106243091E-012
   2.1900000000000003E-002    -7.0093050443090633E-012
   2.3000000000000020E-002    -3.3828953725198062E-012
   2.4100000000000010E-002     2.6851901277591513E-012
   2.5200000000000000E-002     1.0720959850790372E-011
   2.6300000000000018E-002     1.9574263049580426E-011
   2.7400000000000008E-002     2.7442688597764240E-011
   2.8500000000000025E-002     3.2056172055715135E-011
   2.9600000000000015E-002     3.1029825708574782E-011
   3.0700000000000005E-002     2.2359971063727972E-011
   3.1800000000000023E-002     5.0032038842110513E-012
   3.2900000000000013E-002    -2.0554797176165731E-011
   3.4000000000000002E-002    -5.1859573315364678E-011
   3.5100000000000020E-002    -8.4307585225791006E-011
   3.6200000000000010E-002    -1.1134583272634849E-010
   3.7300000000000028E-002    -1.2513518479046561E-010
   3.8400000000000017E-002    -1.1769566347358996E-010
   3.9500000000000007E-002    -8.2462199498490950E-011
   4.0600000000000025E-002    -1.6077672839644009E-011
   4.1700000000000015E-002     7.9845251118816216E-011
   4.2800000000000005E-002     1.9733018390913280E-010
   4.3900000000000022E-002     3.2137088955310009E-010
   4.5000000000000012E-002     4.3032042470496706E-010
   4.6100000000000002E-002     4.9757310895008257E-010
   4.7200000000000020E-002     4.9463536199274517E-010
   4.8300000000000010E-002     3.9549805131152477E-010
   4.9400000000000027E-002     1.8200845720453696E-010
   5.0500000000000017E-002    -1.5029403253214670E-010
   5.1600000000000007E-002    -5.8665103363215025E-010
   5.2700000000000025E-002    -1.0888503560252294E-009
   5.3800000000000014E-002    -1.5934061239523592E-009
   5.4900000000000004E-002    -2.0132849354503428E-009
   5.6000000000000022E-002    -2.2441228050987789E-009
   5.7100000000000012E-002    -2.1754509053466579E-009
   5.8200000000000002E-002    -1.7067766694320667E-009
   5.9300000000000019E-002    -7.6750523592689056E-010
   6.0400000000000009E-002     6.6124963105174957E-010
   6.1500000000000027E-002     2.5257664549215263E-009
   6.2600000000000017E-002     4.6831261221732514E-009
   6.3700000000000007E-002     6.8925330163797346E-009
   6.4800000000000024E-002     8.8178916005878344E-009
   6.5900000000000014E-002     1.0044274599573633E-008
   6.7000000000000004E-002     1.0109845161596841E-008
   6.8100000000000022E-002     8.5534881923743814E-009
   6.9200000000000012E-002     4.9770112284116762E-009
   7.0300000000000029E-002    -8.8057283152472960E-010
   7.1400000000000019E-002    -9.0603541386737824E-009
   7.2500000000000009E-002    -1.9297012893562731E-008
   7.3600000000000027E-002    -3.0933597404778958E-008
   7.4700000000000016E-002    -4.2842702257662208E-008
   7.5800000000000006E-002    -5.3358475159101709E-008
   7.6900000000000024E-002    -6.0222400505907385E-008
   7.8000000000000014E-002    -6.0543479859456345E-008
   7.9100000000000004E-002    -5.0770328499216810E-008
   8.0200000000000021E-002    -2.6669050001345130E-008
   8.1300000000000011E-002     1.6703119161780794E-008
   8.2400000000000029E-002     8.5042068262069105E-008
   8.3500000000000019E-002     1.8487569150835430E-007
   8.4600000000000009E-002     3.2369618806094519E-007
   8.5700000000000026E-002     5.1016549920250472E-007
   8.6800000000000016E-002     7.5441330596671501E-007
   8.7900000000000006E-002     1.0684456327963077E-006
   8.9000000000000024E-002     1.4666799161014532E-006
   9.0100000000000013E-002     1.9666198017892027E-006
   9.1200000000000003E-002     2.5896804226825344E-006
   9.2300000000000021E-002     3.3621730018597354E-006
   9.3400000000000011E-002     4.3164568214924244E-006
   9.4500000000000028E-002     5.4922672516717901E-006
   9.5600000000000018E-002     6.9382307963528276E-006
   9.6700000000000008E-002     8.7135818568778337E-006
   9.7800000000000026E-002     1.0890100743029722E-005
   9.8900000000000016E-002     1.3554297796030510E-005
  0.10000000000000001          1.6809873696773012E-005
  0.10110000000000002          2.0780490581117929E-005
  0.10220000000000001          2.5612892125450213E-005
  0.10330000000000003          3.1480413134194725E-005
  0.10440000000000002          3.8586920262920900E-005
  0.10550000000000001          4.7171225160432365E-005
  0.10660000000000003          5.7512009099676464E-005
  0.10770000000000002          6.9933293434760007E-005
  0.10880000000000001          8.4810482206696322E-005
  0.10990000000000003          1.0257699131460567E-004
  0.11100000000000002          1.2373146270089100E-004
  0.11210000000000001          1.4884554240790084E-004
  0.11320000000000002          1.7857217915386408E-004
  0.11430000000000001          2.1365437652824126E-004
  0.11540000000000003          2.5493430813225654E-004
  0.11650000000000002          3.0336268149332596E-004
  0.11760000000000001          3.6000821301673271E-004
  0.11870000000000003          4.2606705148528356E-004
  0.11980000000000002          5.0287196018344437E-004
  0.12090000000000001          5.9190103632657427E-004
  0.12200000000000003          6.9478571062044005E-004
  0.12310000000000001          8.1331773007981413E-004
  0.12420000000000003          9.4945478541338100E-004
  0.12530000000000002          1.1053244027954174E-003
  0.12640000000000001          1.2832256813609254E-003
  0.12750000000000003          1.4856284246495999E-003
  0.12860000000000002          1.7151691882617594E-003
  0.12970000000000001          1.9746437483578448E-003
  0.13080000000000003          2.2669954871627298E-003
  0.13190000000000002          2.5952991931570001E-003
  0.13300000000000001          2.9627397862799355E-003
  0.13410000000000000          3.3725855038069775E-003
  0.13520000000000004          3.8281551225787585E-003
  0.13630000000000003          4.3327788501683973E-003
  0.13740000000000002          4.8897525936027206E-003
  0.13850000000000001          5.5022854113720111E-003
  0.13960000000000000          6.1734400741031798E-003
  0.14070000000000005          6.9060668019942581E-003
  0.14180000000000004          7.7027304122506447E-003
  0.14290000000000003          8.5656312951558986E-003
  0.14400000000000002          9.4965208393194469E-003
  0.14510000000000001          1.0496612140082037E-002
  0.14620000000000000          1.1566487044468800E-002
  0.14730000000000004          1.2706000806221753E-002
  0.14840000000000003          1.3914185841148410E-002
  0.14950000000000002          1.5189156283398097E-002
  0.15060000000000001          1.6528015245126242E-002
  0.15170000000000000          1.7926766872529126E-002
  0.15280000000000005          1.9380235465431623E-002
  0.15390000000000004          2.0881994077107082E-002
  0.15500000000000003          2.2424305123904444E-002
  0.15610000000000002          2.3998075596406428E-002
  0.15720000000000001          2.5592829461296467E-002
  0.15830000000000000          2.7196699765002885E-002
  0.15940000000000004          2.8796442791009621E-002
  0.16050000000000003          3.0377476383111619E-002
  0.16160000000000002          3.1923944232564408E-002
  0.16270000000000001          3.3418807546282452E-002
  0.16380000000000000          3.4843965073774651E-002
  0.16490000000000005          3.6180401977516943E-002
  0.16600000000000004          3.7408367487037263E-002
  0.16710000000000003          3.8507580681756644E-002
  0.16820000000000002          3.9457463103821623E-002
  0.16930000000000001          4.0237396216887274E-002
  0.17040000000000000          4.0827001014257333E-002
  0.17150000000000004          4.1206436361421538E-002
  0.17260000000000003          4.1356711960659993E-002
  0.17370000000000002          4.1260011177778853E-002
  0.17480000000000001          4.0900018400236694E-002
  0.17590000000000000          4.0262245124352815E-002
  0.17700000000000005          3.9334348613447541E-002
  0.17810000000000004          3.8106436739411872E-002
  0.17920000000000003          3.6571352523669991E-002
  0.18030000000000002          3.4724931933352549E-002
  0.18140000000000001          3.2566228666993012E-002
  0.18250000000000000          3.0097699983047534E-002
  0.18360000000000004          2.7325348085811569E-002
  0.18470000000000003          2.4258812188374234E-002
  0.18580000000000002          2.0911407121501708E-002
  0.18690000000000001          1.7300105248432156E-002
  0.18800000000000000          1.3445459471023418E-002
  0.18910000000000005          9.3714662570859968E-003
  0.19020000000000004          5.1053688562911047E-003
  0.19130000000000003          6.7740216599018017E-004
  0.19240000000000002         -3.8795179870877213E-003
  0.19350000000000001         -8.5301571175189477E-003
  0.19460000000000005         -1.3237370691824036E-002
  0.19570000000000004         -1.7962552806960647E-002
  0.19680000000000003         -2.2666117747185455E-002
  0.19790000000000002         -2.7308006461772703E-002
  0.19900000000000001         -3.1848209385672642E-002
  0.20010000000000000         -3.6247296550542450E-002
  0.20120000000000005         -4.0466945611144035E-002
  0.20230000000000004         -4.4470458261128352E-002
  0.20340000000000003         -4.8223255562713931E-002
  0.20450000000000002         -5.1693342998919603E-002
  0.20560000000000000         -5.4851736596987895E-002
  0.20670000000000005         -5.7672842268242194E-002
  0.20780000000000004         -6.0134781536556478E-002
  0.20890000000000003         -6.2219658033941527E-002
