 -0.12000000000000000          0.0000000000000000
 -0.11889999999999999          0.0000000000000000
 -0.11780000000000000          0.0000000000000000
 -0.11670000000000000          0.0000000000000000
 -0.11559999999999999          0.0000000000000000
 -0.11449999999999999          0.0000000000000000
 -0.11340000000000000          0.0000000000000000
 -0.11230000000000000          0.0000000000000000
 -0.11119999999999999         -4.7605137338762093E-079
 -0.11009999999999999         -4.2354635157157142E-054
 -0.10900000000000000         -2.3901625557891738E-029
 -0.10790000000000000         -2.9285688666173268E-028
 -0.10679999999999999         -1.6622306692861749E-027
 -0.10569999999999999         -5.3970059693360150E-027
 -0.10460000000000000         -8.6995289127778180E-027
 -0.10349999999999999          7.4663157766827824E-027
 -0.10239999999999999          8.5909398058560134E-026
 -0.10130000000000000          2.4595787738971741E-025
 -0.10020000000000000          3.1577494509539204E-025
  -9.9099999999999994E-002    -2.9183762058841082E-025
  -9.7999999999999990E-002    -2.4287204521129903E-024
  -9.6899999999999986E-002    -5.9012833701349284E-024
  -9.5799999999999996E-002    -6.7500696449108980E-024
  -9.4699999999999993E-002     4.6763728836238544E-024
  -9.3599999999999989E-002     3.8841972308007996E-023
  -9.2499999999999999E-002     8.8601749826983055E-023
  -9.1399999999999995E-002     1.0066613401082518E-022
  -9.0299999999999991E-002    -3.4664856300001712E-023
  -8.9200000000000002E-002    -4.2092117625656940E-022
  -8.8099999999999984E-002    -9.7760727224648679E-022
  -8.6999999999999994E-002    -1.2033797876413328E-021
  -8.5899999999999990E-002    -1.2185355657974816E-022
  -8.4799999999999986E-002     3.1987897342215811E-021
  -8.3699999999999997E-002     8.3060373721492688E-021
  -8.2599999999999993E-002     1.1646000026140877E-020
  -8.1499999999999989E-002     6.0577222412313432E-021
  -8.0399999999999999E-002    -1.6098177269311407E-020
  -7.9299999999999995E-002    -5.4642096332144608E-020
  -7.8199999999999992E-002    -9.0416084134529258E-020
  -7.7100000000000002E-002    -7.9812429425224489E-020
  -7.5999999999999984E-002     3.1642188372998148E-020
  -7.4899999999999994E-002     2.6667841147352308E-019
  -7.3799999999999991E-002     5.5233667871626449E-019
  -7.2699999999999987E-002     6.7266999345650452E-019
  -7.1599999999999997E-002     3.0334081827521435E-019
  -7.0499999999999993E-002    -8.1163257065727510E-019
  -6.9399999999999989E-002    -2.5467993202665412E-018
  -6.8300000000000000E-002    -4.0806820397869814E-018
  -6.7199999999999996E-002    -3.8540731192614132E-018
  -6.6099999999999992E-002    -1.1514426923419980E-019
  -6.5000000000000002E-002     7.8222228249731270E-018
  -6.3899999999999985E-002     1.7946481306850493E-017
  -6.2799999999999995E-002     2.4496526791735079E-017
  -6.1699999999999991E-002     1.8846845467426620E-017
  -6.0599999999999994E-002    -6.6116729460034765E-018
  -5.9499999999999990E-002    -5.1886269577168950E-017
  -5.8399999999999994E-002    -1.0262053143331213E-016
  -5.7299999999999990E-002    -1.2786901724875271E-016
  -5.6199999999999986E-002    -8.7649101668424587E-017
  -5.5099999999999996E-002     4.7215154637979204E-017
  -5.3999999999999992E-002     2.6689593892657646E-016
  -5.2899999999999989E-002     4.9839824208353242E-016
  -5.1799999999999985E-002     6.0403503456043759E-016
  -5.0699999999999995E-002     4.1961572145891387E-016
  -4.9599999999999991E-002    -1.6389792940998720E-016
  -4.8499999999999988E-002    -1.0957262729495589E-015
  -4.7399999999999998E-002    -2.0849859423649899E-015
  -4.6299999999999994E-002    -2.6072572278723820E-015
  -4.5199999999999990E-002    -2.0480124699652888E-015
  -4.4099999999999986E-002     1.5248535919010894E-017
  -4.2999999999999997E-002     3.4661146291654922E-015
  -4.1899999999999993E-002     7.3873059942120057E-015
  -4.0799999999999989E-002     1.0067643949421883E-014
  -3.9699999999999985E-002     9.4165047513308105E-015
  -3.8599999999999995E-002     3.7857510412013321E-015
  -3.7499999999999992E-002    -7.0030918302931522E-015
  -3.6399999999999988E-002    -2.0820232709671535E-014
  -3.5299999999999984E-002    -3.3053961746452855E-014
  -3.4199999999999994E-002    -3.7470168009212739E-014
  -3.3099999999999991E-002    -2.8155655292516979E-014
  -3.1999999999999987E-002    -2.1426955656419015E-015
  -3.0899999999999997E-002     3.8117424228574293E-014
  -2.9799999999999993E-002     8.3476894561688230E-014
  -2.8699999999999989E-002     1.1890369046802040E-013
  -2.7599999999999986E-002     1.2673832560495460E-013
  -2.6499999999999996E-002     9.1956658707762106E-014
  -2.5399999999999992E-002     8.2117331990485936E-015
  -2.4299999999999988E-002    -1.1707084802363011E-013
  -2.3199999999999985E-002    -2.6028548679283304E-013
  -2.2099999999999995E-002    -3.8318878837051441E-013
  -2.0999999999999991E-002    -4.3884419474015460E-013
  -1.9899999999999987E-002    -3.8153650853568967E-013
  -1.8799999999999983E-002    -1.7945700965673405E-013
  -1.7699999999999994E-002     1.7165956776772237E-013
  -1.6599999999999990E-002     6.3636640962881671E-013
  -1.5499999999999986E-002     1.1319443003464223E-012
  -1.4399999999999996E-002     1.5293398799961204E-012
  -1.3299999999999992E-002     1.6667935718530152E-012
  -1.2199999999999989E-002     1.3793773528238870E-012
  -1.1099999999999985E-002     5.4460216408152163E-013
  -9.9999999999999950E-003    -8.6114373976590290E-013
  -8.8999999999999913E-003    -2.7074433052758459E-012
  -7.7999999999999875E-003    -4.6743189719436165E-012
  -6.6999999999999837E-003    -6.2572029442986880E-012
  -5.5999999999999939E-003    -6.8293702501342623E-012
  -4.4999999999999901E-003    -5.7671619553956706E-012
  -3.3999999999999864E-003    -2.6254095782547364E-012
  -2.2999999999999826E-003     2.6693902284146815E-012
  -1.1999999999999927E-003     9.6561429171801263E-012
  -9.9999999999988987E-005     1.7259522628873828E-011
   1.0000000000000148E-003     2.3837644008986172E-011
   2.1000000000000185E-003     2.7378504801368954E-011
   3.2000000000000084E-003     2.5835743999882108E-011
   4.3000000000000121E-003     1.7562907601379602E-011
   5.4000000000000159E-003     1.7814561275179577E-012
   6.5000000000000058E-003    -2.0994140351877403E-011
   7.6000000000000234E-003    -4.8650805404473432E-011
   8.7000000000000133E-003    -7.7359487847029728E-011
   9.8000000000000032E-003    -1.0170435407152325E-010
   1.0900000000000021E-002    -1.1510633673402463E-010
   1.2000000000000011E-002    -1.1057494116852966E-010
   1.3100000000000001E-002    -8.1796341935902175E-011
   1.4200000000000018E-002    -2.4517844250715037E-011
   1.5300000000000008E-002     6.1886413427680109E-011
   1.6400000000000026E-002     1.7287995079974700E-010
   1.7500000000000016E-002     2.9756715503877143E-010
   1.8600000000000005E-002     4.1820983856106572E-010
   1.9700000000000023E-002     5.1083234204939814E-010
   2.0800000000000013E-002     5.4720003501994444E-010
   2.1900000000000003E-002     4.9826964298100045E-010
   2.3000000000000020E-002     3.3894791824069509E-010
   2.4100000000000010E-002     5.3701529913480744E-011
   2.5200000000000000E-002    -3.5770770038463711E-010
   2.6300000000000018E-002    -8.7527694932619766E-010
   2.7400000000000008E-002    -1.4555896819069162E-009
   2.8500000000000025E-002    -2.0313317806694157E-009
   2.9600000000000015E-002    -2.5142123545741368E-009
   3.0700000000000005E-002    -2.8016944658890628E-009
   3.1800000000000023E-002    -2.7875474521187582E-009
   3.2900000000000013E-002    -2.3757838522936662E-009
   3.4000000000000002E-002    -1.4970669571720841E-009
   3.5100000000000020E-002    -1.2619959394285723E-010
   3.6200000000000010E-002     1.7011298968595857E-009
   3.7300000000000028E-002     3.8745106683192533E-009
   3.8400000000000017E-002     6.2002360692525494E-009
   3.9500000000000007E-002     8.4003238374233712E-009
   4.0600000000000025E-002     1.0121177569402783E-008
   4.1700000000000015E-002     1.0953385085140522E-008
   4.2800000000000005E-002     1.0463353431790691E-008
   4.3900000000000022E-002     8.2365076804438818E-009
   4.5000000000000012E-002     3.9307327039520578E-009
   4.6100000000000002E-002    -2.6622610652636402E-009
   4.7200000000000020E-002    -1.1550778396446772E-008
   4.8300000000000010E-002    -2.2475805685617875E-008
   4.9400000000000027E-002    -3.4846166693991537E-008
   5.0500000000000017E-002    -4.7679342538022751E-008
   5.1600000000000007E-002    -5.9550072107769091E-008
   5.2700000000000025E-002    -6.8547253762068994E-008
   5.3800000000000014E-002    -7.2237649027824488E-008
   5.4900000000000004E-002    -6.7632623823023563E-008
   5.6000000000000022E-002    -5.1151868191032073E-008
   5.7100000000000012E-002    -1.8575915891932936E-008
   5.8200000000000002E-002     3.5022515347415926E-008
   5.9300000000000019E-002     1.1537976973471712E-007
   6.0400000000000009E-002     2.2918758131029561E-007
   6.1500000000000027E-002     3.8429781634058839E-007
   6.2600000000000017E-002     5.8999962917341665E-007
   6.3700000000000007E-002     8.5738355634966727E-007
   6.4800000000000024E-002     1.1998074216010239E-006
   6.5900000000000014E-002     1.6334790238755872E-006
   6.7000000000000004E-002     2.1781704011403828E-006
   6.8100000000000022E-002     2.8580780929498669E-006
   6.9200000000000012E-002     3.7028435154830641E-006
   7.0300000000000029E-002     4.7487477001994396E-006
   7.1400000000000019E-002     6.0400956498584321E-006
   7.2500000000000009E-002     7.6308077336042079E-006
   7.3600000000000027E-002     9.5862389175816747E-006
   7.4700000000000016E-002     1.1985250922893938E-005
   7.5800000000000006E-002     1.4922567046280571E-005
   7.6900000000000024E-002     1.8511443659071289E-005
   7.8000000000000014E-002     2.2886695666185130E-005
   7.9100000000000004E-002     2.8208115043486119E-005
   8.0200000000000021E-002     3.4664321870393001E-005
   8.1300000000000011E-002     4.2477086170405087E-005
   8.2400000000000029E-002     5.1906156565810549E-005
   8.3500000000000019E-002     6.3254628293483851E-005
   8.4600000000000009E-002     7.6874878254634595E-005
   8.5700000000000026E-002     9.3175087885008056E-005
   8.6800000000000016E-002     1.1262636493149759E-004
   8.7900000000000006E-002     1.3577046194408044E-004
   8.9000000000000024E-002     1.6322807197694252E-004
   9.0100000000000013E-002     1.9570766065245005E-004
   9.1200000000000003E-002     2.3401476887710017E-004
   9.2300000000000021E-002     2.7906169294396077E-004
   9.3400000000000011E-002     3.3187741941392271E-004
   9.4500000000000028E-002     3.9361766173336745E-004
   9.5600000000000018E-002     4.6557481432074285E-004
   9.6700000000000008E-002     5.4918760771778584E-004
   9.7800000000000026E-002     6.4605021494023543E-004
   9.8900000000000016E-002     7.5792052392364344E-004
  0.10000000000000001          8.8672725373779989E-004
  0.10110000000000002          1.0345755533388463E-003
  0.10220000000000001          1.2037506820075320E-003
  0.10330000000000003          1.3967193319512038E-003
  0.10440000000000002          1.6161281180924227E-003
  0.10550000000000001          1.8647987304758369E-003
  0.10660000000000003          2.1457192237194700E-003
  0.10770000000000002          2.4620309079810064E-003
  0.10880000000000001          2.8170103089339019E-003
  0.10990000000000003          3.2140456815248730E-003
  0.11100000000000002          3.6566075945320357E-003
  0.11210000000000001          4.1482131506621576E-003
  0.11320000000000002          4.6923834708750296E-003
  0.11430000000000001          5.2925941532494152E-003
  0.11540000000000003          5.9522185182943992E-003
  0.11650000000000002          6.6744635769844466E-003
  0.11760000000000001          7.4622988075286889E-003
  0.11870000000000003          8.3183780032082492E-003
  0.11980000000000002          9.2449546553889806E-003
  0.12090000000000001          1.0243791558964878E-002
  0.12200000000000003          1.1316065565221854E-002
  0.12310000000000001          1.2462268650983125E-002
  0.12420000000000003          1.3682106714378637E-002
  0.12530000000000002          1.4974397739627535E-002
  0.12640000000000001          1.6336971191188543E-002
  0.12750000000000003          1.7766570699104402E-002
  0.12860000000000002          1.9258762280880450E-002
  0.12970000000000001          2.0807850508312190E-002
  0.13080000000000003          2.2406805164914813E-002
  0.13190000000000002          2.4047201041693531E-002
  0.13300000000000001          2.5719173573130149E-002
  0.13410000000000000          2.7411393007075381E-002
  0.13520000000000004          2.9111059718619828E-002
  0.13630000000000003          3.0803923109973624E-002
  0.13740000000000002          3.2474326282921254E-002
  0.13850000000000001          3.4105278330812561E-002
  0.13960000000000000          3.5678555681444145E-002
  0.14070000000000005          3.7174833441021612E-002
  0.14180000000000004          3.8573847152672147E-002
  0.14290000000000003          3.9854584798329998E-002
  0.14400000000000002          4.0995508245125920E-002
  0.14510000000000001          4.1974802670118404E-002
  0.14620000000000000          4.2770651794889605E-002
  0.14730000000000004          4.3361536032867472E-002
  0.14840000000000003          4.3726549912327634E-002
  0.14950000000000002          4.3845734409256612E-002
  0.15060000000000001          4.3700419135256789E-002
  0.15170000000000000          4.3273568708517063E-002
  0.15280000000000005          4.2550127122084239E-002
  0.15390000000000004          4.1517353539995618E-002
  0.15500000000000003          4.0165142716851343E-002
  0.15610000000000002          3.8486323158884984E-002
  0.15720000000000001          3.6476926224119528E-002
  0.15830000000000000          3.4136419589004784E-002
  0.15940000000000004          3.1467898880159960E-002
  0.16050000000000003          2.8478231775918079E-002
  0.16160000000000002          2.5178149521931977E-002
  0.16270000000000001          2.1582281582169936E-002
  0.16380000000000000          1.7709130067415136E-002
  0.16490000000000005          1.3580981650396411E-002
  0.16600000000000004          9.2237558818285392E-003
  0.16710000000000003          4.6667901408127040E-003
  0.16820000000000002         -5.7437155519731098E-005
  0.16930000000000001         -4.9136420504413717E-003
  0.17040000000000000         -9.8641248590876154E-003
  0.17150000000000004         -1.4869208637824557E-002
  0.17260000000000003         -1.9887719540760237E-002
  0.17370000000000002         -2.4877501343149422E-002
  0.17480000000000001         -2.9795955630491568E-002
  0.17590000000000000         -3.4600598530079789E-002
  0.17700000000000005         -3.9249624388325528E-002
  0.17810000000000004         -4.3702466472447743E-002
  0.17920000000000003         -4.7920344616006569E-002
  0.18030000000000002         -5.1866789767003284E-002
  0.18140000000000001         -5.5508135674608161E-002
  0.18250000000000000         -5.8813968498972316E-002
  0.18360000000000004         -6.1757525960036599E-002
  0.18470000000000003         -6.4316038737417494E-002
  0.18580000000000002         -6.6471008144552188E-002
  0.18690000000000001         -6.8208415553223212E-002
  0.18800000000000000         -6.9518860557853238E-002
  0.18910000000000005         -7.0397626369720731E-002
  0.19020000000000004         -7.0844672369121592E-002
  0.19130000000000003         -7.0864555096797385E-002
  0.19240000000000002         -7.0466280238479589E-002
  0.19350000000000001         -6.9663089366135064E-002
  0.19460000000000005         -6.8472186362874693E-002
  0.19570000000000004         -6.6914409575493980E-002
  0.19680000000000003         -6.5013856783578836E-002
  0.19790000000000002         -6.2797470995368920E-002
  0.19900000000000001         -6.0294595809596035E-002
  0.20010000000000000         -5.7536509550260996E-002
  0.20120000000000005         -5.4555947537292239E-002
  0.20230000000000004         -5.1386621684516000E-002
  0.20340000000000003         -4.8062746144542867E-002
  0.20450000000000002         -4.4618577014962892E-002
  0.20560000000000000         -4.1087973273689557E-002
  0.20670000000000005         -3.7503985217878143E-002
  0.20780000000000004         -3.3898475813027219E-002
  0.20890000000000003         -3.0301779548534188E-002
