 -0.12000000000000000          0.0000000000000000
 -0.11889999999999999          0.0000000000000000
 -0.11780000000000000          0.0000000000000000
 -0.11670000000000000         -1.2934443154261552E-030
 -0.11559999999999999          2.4594206597646111E-005
 -0.11449999999999999          1.5677243759752352E-004
 -0.11340000000000000          4.8903415023080247E-004
 -0.11230000000000000          9.1437383595929789E-004
 -0.11119999999999999          8.7243166360075053E-004
 -0.11009999999999999         -5.7410965230125875E-004
 -0.10900000000000000         -3.9372724986975072E-003
 -0.10790000000000000         -7.8630818560679865E-003
 -0.10679999999999999         -8.0185975952927653E-003
 -0.10569999999999999          2.0664811269691372E-003
 -0.10460000000000000          2.6969786242868637E-002
 -0.10349999999999999          6.2788061354122279E-002
 -0.10239999999999999          9.1354887886428204E-002
 -0.10130000000000000          8.0564204670739700E-002
 -0.10020000000000000         -4.7266931536260890E-003
  -9.9099999999999994E-002   -0.18126331168401655
  -9.7999999999999990E-002   -0.42248548259298291
  -9.6899999999999986E-002   -0.64329006726198601
  -9.5799999999999996E-002   -0.70858907201129995
  -9.4699999999999993E-002   -0.47303862869182051
  -9.3599999999999989E-002    0.15411274472564410
  -9.2499999999999999E-002     1.1400643049226338
  -9.1399999999999995E-002     2.2855071884493321
  -9.0299999999999991E-002     3.2350029372329465
  -8.9200000000000002E-002     3.5521379094958334
  -8.8099999999999984E-002     2.8469535002121495
  -8.6999999999999994E-002    0.92072327157348377
  -8.5899999999999990E-002    -2.1180290934654966
  -8.4799999999999986E-002    -5.8071744475878759
  -8.3699999999999997E-002    -9.3757014947156758
  -8.2599999999999993E-002    -11.875341516285339
  -8.1499999999999989E-002    -12.373087662852713
  -8.0399999999999999E-002    -10.166914928454707
  -7.9299999999999995E-002    -4.9854746340193916
  -7.8199999999999992E-002     2.8639131092489394
  -7.7100000000000002E-002     12.431424596255610
  -7.5999999999999984E-002     22.175231713390058
  -7.4899999999999994E-002     30.149212163048361
  -7.3799999999999991E-002     34.329496219839989
  -7.2699999999999987E-002     33.041986996088035
  -7.1599999999999997E-002     25.402761643376394
  -7.0499999999999993E-002     11.642899696909232
  -6.9399999999999989E-002    -6.8147936153797337
  -6.8300000000000000E-002    -27.609213799998258
  -6.7199999999999996E-002    -48.005226112721004
  -6.6099999999999992E-002    -65.628348205754492
  -6.5000000000000002E-002    -79.138598149377074
  -6.3899999999999985E-002    -88.599912960617971
  -6.2799999999999995E-002    -95.389230386305414
  -6.1699999999999991E-002    -101.65589275347048
  -6.0599999999999994E-002    -109.52611419021061
  -5.9499999999999990E-002    -120.37022060475049
  -5.8399999999999994E-002    -134.45110481821808
  -5.7299999999999990E-002    -151.13799677186975
  -5.6199999999999986E-002    -169.64669872694395
  -5.5099999999999996E-002    -190.04548074280447
  -5.3999999999999992E-002    -214.13971032985958
  -5.2899999999999989E-002    -245.87521378171300
  -5.1799999999999985E-002    -291.07251524327376
  -5.0699999999999995E-002    -356.55063690878796
  -4.9599999999999991E-002    -448.91772416994223
  -4.8499999999999988E-002    -573.40898359238270
  -4.7399999999999998E-002    -733.10687891814950
  -4.6299999999999994E-002    -928.71738231815687
  -4.5199999999999990E-002    -1158.8792844249490
  -4.4099999999999986E-002    -1420.8363021631087
  -4.2999999999999997E-002    -1711.2527237781435
  -4.1899999999999993E-002    -2026.9947782858544
  -4.0799999999999989E-002    -2365.7788320221889
  -3.9699999999999985E-002    -2726.6414508932817
  -3.8599999999999995E-002    -3110.1827409253942
  -3.7499999999999992E-002    -3518.4905357072298
  -3.6399999999999988E-002    -3954.6247035576539
  -3.5299999999999984E-002    -4421.5849509876325
  -3.4199999999999994E-002    -4920.8181017093120
  -3.3099999999999991E-002    -5450.4964619695857
  -3.1999999999999987E-002    -6003.9259054604263
  -3.0899999999999997E-002    -6568.4298103607371
  -2.9799999999999993E-002    -7124.8674984117024
  -2.8699999999999989E-002    -7647.6351620868436
  -2.7599999999999986E-002    -8104.6902338998507
  -2.6499999999999996E-002    -8456.9835338020621
  -2.5399999999999992E-002    -8656.7712223308390
  -2.4299999999999988E-002    -8644.5980242696769
  -2.3199999999999985E-002    -8345.1711183379794
  -2.2099999999999995E-002    -7662.6980022670650
  -2.0999999999999991E-002    -6476.3843376131454
  -1.9899999999999987E-002    -4636.6238073450468
  -1.8799999999999983E-002    -1962.0367189471219
  -1.7699999999999994E-002     1762.9013243954842
  -1.6599999999999990E-002     6790.1706166719669
  -1.5499999999999986E-002     13411.007483301762
  -1.4399999999999996E-002     21959.527834322002
  -1.3299999999999992E-002     32817.189446914796
  -1.2199999999999989E-002     46417.851600500850
  -1.1099999999999985E-002     63253.109983149778
  -9.9999999999999950E-003     83877.679830146822
  -8.8999999999999913E-003     108914.76176238687
  -7.7999999999999875E-003     139061.40260682002
  -6.6999999999999837E-003     175093.76111984751
  -5.5999999999999939E-003     217871.93036634117
  -4.4999999999999901E-003     268343.69837495155
  -3.3999999999999864E-003     327546.53520746692
  -2.2999999999999826E-003     396607.29984039784
  -1.1999999999999927E-003     476739.63263851916
  -9.9999999999988987E-005     569239.54289686063
   1.0000000000000148E-003     675480.03703090025
   2.1000000000000185E-003     796905.53790331271
   3.2000000000000084E-003     935026.27828974079
   4.3000000000000121E-003     1091411.9997365242
   5.4000000000000159E-003     1267683.5038806146
   6.5000000000000058E-003     1465500.2478287115
   7.6000000000000234E-003     1686542.4470302889
   8.7000000000000133E-003     1932486.9797462758
   9.8000000000000032E-003     2204977.4593361500
   1.0900000000000021E-002     2505589.7252423326
   1.2000000000000011E-002     2835794.3537472268
   1.3100000000000001E-002     3196917.4973031976
   1.4200000000000018E-002     3590100.6020374051
   1.5300000000000008E-002     4016258.6970774545
   1.6400000000000026E-002     4476036.3840169581
   1.7500000000000016E-002     4969760.6074475860
   1.8600000000000005E-002     5497389.7349351812
   1.9700000000000023E-002     6058459.1811354840
   2.0800000000000013E-002     6652024.4667516286
   2.1900000000000003E-002     7276602.9904499417
   2.3000000000000020E-002     7930115.8838245766
   2.4100000000000010E-002     8609831.2665717900
   2.5200000000000000E-002     9312310.2337052859
   2.6300000000000018E-002     10033357.116387907
   2.7400000000000008E-002     10767975.914216090
   2.8500000000000025E-002     11510335.096013131
   2.9600000000000015E-002     12253742.974620685
   3.0700000000000005E-002     12990635.473352933
   3.1800000000000023E-002     13712577.437969347
   3.2900000000000013E-002     14410278.024816191
   3.4000000000000002E-002     15073620.472175928
   3.5100000000000020E-002     15691706.935549254
   3.6200000000000010E-002     16252919.931928998
   3.7300000000000028E-002     16745002.887010450
   3.8400000000000017E-002     17155162.774334285
   3.9500000000000007E-002     17470197.462645460
   4.0600000000000025E-002     17676649.077444527
   4.1700000000000015E-002     17760982.774260584
   4.2800000000000005E-002     17709788.429285437
   4.3900000000000022E-002     17510001.489566948
   4.5000000000000012E-002     17149138.909671020
   4.6100000000000002E-002     16615546.606053552
   4.7200000000000020E-002     15898655.667869985
   4.8300000000000010E-002     14989245.021838976
   4.9400000000000027E-002     13879707.894753823
   5.0500000000000017E-002     12564318.205506166
   5.1600000000000007E-002     11039491.347475873
   5.2700000000000025E-002     9304032.3353471253
   5.3800000000000014E-002     7359363.5561908158
   5.4900000000000004E-002     5209724.5971821910
   5.6000000000000022E-002     2862337.5870976523
   5.7100000000000012E-002     327532.64150170574
   5.8200000000000002E-002    -2381171.2116811415
   5.9300000000000019E-002    -5247034.0882349471
   6.0400000000000009E-002    -8250117.0293144435
   6.1500000000000027E-002    -11367362.443123087
   6.2600000000000017E-002    -14572737.635650350
   6.3700000000000007E-002    -17837444.313516453
   6.4800000000000024E-002    -21130194.472741891
   6.5900000000000014E-002    -24417550.240565967
   6.7000000000000004E-002    -27664322.730471227
   6.8100000000000022E-002    -30834023.342549134
   6.9200000000000012E-002    -33889360.292801775
   7.0300000000000029E-002    -36792773.112355642
   7.1400000000000019E-002    -39506997.782785714
   7.2500000000000009E-002    -41995654.509833552
   7.3600000000000027E-002    -44223848.709461749
   7.4700000000000016E-002    -46158773.891399562
   7.5800000000000006E-002    -47770303.403382264
   7.6900000000000024E-002    -49031557.069551408
   7.8000000000000014E-002    -49919428.923299842
   7.9100000000000004E-002    -50415063.340736113
   8.0200000000000021E-002    -50504268.420247413
   8.1300000000000011E-002    -50177856.877431035
   8.2400000000000029E-002    -49431905.766703226
   8.3500000000000019E-002    -48267927.178885818
   8.4600000000000009E-002    -46692943.217229120
   8.5700000000000026E-002    -44719460.563639604
   8.6800000000000016E-002    -42365343.009823404
   8.7900000000000006E-002    -39653584.095999315
   8.9000000000000024E-002    -36611985.668936335
   9.0100000000000013E-002    -33272750.843557525
   9.1200000000000003E-002    -29672000.993901175
   9.2300000000000021E-002    -25849226.152058106
   9.3400000000000011E-002    -21846677.364317920
   9.4500000000000028E-002    -17708709.253499433
   9.5600000000000018E-002    -13481082.134114573
   9.6700000000000008E-002    -9210235.6805045214
   9.7800000000000026E-002    -4942549.6572896661
   9.8900000000000016E-002    -723610.29462726042
  0.10000000000000001          3402497.7874622010
  0.10110000000000002          7393855.3656139486
  0.10220000000000001          11211312.825012332
  0.10330000000000003          14819024.207572753
  0.10440000000000002          18184905.011723079
  0.10550000000000001          21281010.786245480
  0.10660000000000003          24083834.868735570
  0.10770000000000002          26574523.535506327
  0.10880000000000001          28739006.362512127
  0.10990000000000003          30568039.795351934
  0.11100000000000002          32057163.368261736
  0.11210000000000001          33206570.571311072
  0.11320000000000002          34020899.358161472
  0.11430000000000001          34508949.892248660
  0.11540000000000003          34683338.838008769
  0.11650000000000002          34560100.350567006
  0.11760000000000001          34158244.374537617
  0.11870000000000003          33499283.470269267
  0.11980000000000002          32606740.343204301
  0.12090000000000001          31505649.220165581
  0.12200000000000003          30222064.465408921
  0.12310000000000001          28782588.665553648
  0.12420000000000003          27213929.654030606
  0.12530000000000002          25542492.167273436
  0.12640000000000001          23794006.203406435
  0.12750000000000003          21993191.954564627
  0.12860000000000002          20163461.128553972
  0.12970000000000001          18326656.323276971
  0.13080000000000003          16502832.692880673
  0.13190000000000002          14710087.838264829
  0.13300000000000001          12964445.371852420
  0.13410000000000000          11279794.605680406
  0.13520000000000004          9667884.1091375072
  0.13630000000000003          8138362.1088037556
  0.13740000000000002          6698853.5659231143
  0.13850000000000001          5355063.2746574702
  0.13960000000000000          4110896.3420657404
  0.14070000000000005          2968590.7689305898
  0.14180000000000004          1928859.9375507070
  0.14290000000000003          991044.35353367589
  0.14400000000000002          153271.61903656277
  0.14510000000000001         -587378.02809860569
  0.14620000000000000         -1234704.9704646517
  0.14730000000000004         -1793227.2583517625
  0.14840000000000003         -2268025.6049702377
  0.14950000000000002         -2664598.6454815292
  0.15060000000000001         -2988728.9777045366
  0.15170000000000000         -3246359.7377220690
  0.15280000000000005         -3443482.0756355785
  0.15390000000000004         -3586035.3561605457
  0.15500000000000003         -3679823.0883857277
  0.15610000000000002         -3730447.3979845382
  0.15720000000000001         -3743262.8906890755
  0.15830000000000000         -3723347.6092112581
  0.15940000000000004         -3675485.8156190631
  0.16050000000000003         -3604155.9989221506
  0.16160000000000002         -3513518.6107956623
  0.16270000000000001         -3407401.2388289380
  0.16380000000000000         -3289282.8696740624
  0.16490000000000005         -3162281.8021475575
  0.16600000000000004         -3029152.3235834097
  0.16710000000000003         -2892293.2481499296
  0.16820000000000002         -2753767.8369925790
  0.16930000000000001         -2615331.2028875961
  0.17040000000000000         -2478459.6408021245
  0.17150000000000004         -2344377.1020370875
  0.17260000000000003         -2214076.7020566501
  0.17370000000000002         -2088338.2709660225
  0.17480000000000001         -1967744.9349073230
  0.17590000000000000         -1852701.6585980405
  0.17700000000000005         -1743456.8204596026
  0.17810000000000004         -1640125.4405664571
  0.17920000000000003         -1542711.1369454523
  0.18030000000000002         -1451124.2034803098
  0.18140000000000001         -1365195.2574355442
  0.18250000000000000         -1284686.5402864220
  0.18360000000000004         -1209304.6055721727
  0.18470000000000003         -1138717.6796641971
  0.18580000000000002         -1072578.4245613862
  0.18690000000000001         -1010549.3293218595
  0.18800000000000000         -952325.28827798797
  0.18910000000000005         -897647.57427332317
  0.19020000000000004         -846305.77883257938
  0.19130000000000003         -798128.41827177908
  0.19240000000000002         -752966.93079317035
  0.19350000000000001         -710679.84575815138
  0.19460000000000005         -671123.04842696514
  0.19570000000000004         -634148.74382362014
  0.19680000000000003         -599611.56078830839
  0.19790000000000002         -567377.20105167001
  0.19900000000000001         -537328.46529627102
  0.20010000000000000         -509365.43819266191
  0.20120000000000005         -483399.89028973412
  0.20230000000000004         -459346.76993422728
  0.20340000000000003         -437116.59308400593
  0.20450000000000002         -416611.27709668240
  0.20560000000000000         -397723.42486722983
  0.20670000000000005         -380336.85894592240
  0.20780000000000004         -364325.71532313590
  0.20890000000000003         -349550.99321002862
