 -0.12000000000000000          0.0000000000000000
 -0.11889999999999999          0.0000000000000000
 -0.11780000000000000          0.0000000000000000
 -0.11670000000000000          0.0000000000000000
 -0.11559999999999999          0.0000000000000000
 -0.11449999999999999         -3.9678662127479285E-008
 -0.11340000000000000         -3.0225738040105129E-007
 -0.11230000000000000         -1.1298794111300341E-006
 -0.11119999999999999         -2.6256351598376767E-006
 -0.11009999999999999         -3.7843553691909334E-006
 -0.10900000000000000         -1.9586119976787359E-006
 -0.10790000000000000          5.7999605786695587E-006
 -0.10679999999999999          1.8761686749622497E-005
 -0.10569999999999999          2.8041053401822916E-005
 -0.10460000000000000          1.7042716580573921E-005
 -0.10349999999999999         -2.7982777364206671E-005
 -0.10239999999999999         -9.8891747647152819E-005
 -0.10130000000000000         -1.5101520008090950E-004
 -0.10020000000000000         -1.1284428576685714E-004
  -9.9099999999999994E-002     6.8235399232975183E-005
  -9.7999999999999990E-002     3.5892336442242966E-004
  -9.6899999999999986E-002     5.9840870911299427E-004
  -9.5799999999999996E-002     5.3962716886592091E-004
  -9.4699999999999993E-002    -3.6582538037045569E-006
  -9.3599999999999989E-002    -9.5831226226351712E-004
  -9.2499999999999999E-002    -1.8748773070881317E-003
  -9.1399999999999995E-002    -2.0390287764245345E-003
  -9.0299999999999991E-002    -8.5896149490868651E-004
  -8.9200000000000002E-002     1.6165321187016080E-003
  -8.8099999999999984E-002     4.3756202320684688E-003
  -8.6999999999999994E-002     5.6640998902447370E-003
  -8.5899999999999990E-002     3.8627168970869785E-003
  -8.4799999999999986E-002    -1.2982890320553733E-003
  -8.3699999999999997E-002    -7.9066516222843549E-003
  -8.2599999999999993E-002    -1.2192667646135547E-002
  -8.1499999999999989E-002    -1.0305425425151449E-002
  -8.0399999999999999E-002    -9.3390656789498242E-004
  -7.9299999999999995E-002     1.2689945775302296E-002
  -7.8199999999999992E-002     2.3057484371335049E-002
  -7.7100000000000002E-002     2.1689805636713716E-002
  -7.5999999999999984E-002     4.4909911415423895E-003
  -7.4899999999999994E-002    -2.3630815278122535E-002
  -7.3799999999999991E-002    -4.8260909375259224E-002
  -7.2699999999999987E-002    -5.1063149597120862E-002
  -7.1599999999999997E-002    -2.0176185325377884E-002
  -7.0499999999999993E-002     3.9459252575213502E-002
  -6.9399999999999989E-002    0.10247239539731133
  -6.8300000000000000E-002    0.13089887569380354
  -6.7199999999999996E-002     9.2730521745673131E-002
  -6.6099999999999992E-002    -1.6475247571239814E-002
  -6.5000000000000002E-002   -0.16101887476259694
  -6.3899999999999985E-002   -0.27206939373296279
  -6.2799999999999995E-002   -0.27640525565440771
  -6.1699999999999991E-002   -0.13677488473242025
  -6.0599999999999994E-002    0.11609671253000882
  -5.9499999999999990E-002    0.38074983958244712
  -5.8399999999999994E-002    0.52132563816199995
  -5.7299999999999990E-002    0.43305881303624821
  -5.6199999999999986E-002    0.10769302903958274
  -5.5099999999999996E-002   -0.33793723593222141
  -5.3999999999999992E-002   -0.69537174229395105
  -5.2899999999999989E-002   -0.75656345081715226
  -5.1799999999999985E-002   -0.42739592253109571
  -5.0699999999999995E-002    0.19510144104456661
  -4.9599999999999991E-002    0.83274902704986686
  -4.8499999999999988E-002     1.1375670116985332
  -4.7399999999999998E-002    0.86590595159620243
  -4.6299999999999994E-002     3.3959638394428449E-002
  -4.5199999999999990E-002    -1.0339070465254885
  -4.4099999999999986E-002    -1.8127861389042630
  -4.2999999999999997E-002    -1.8151237171848240
  -4.1899999999999993E-002   -0.85782410740913440
  -4.0799999999999989E-002    0.77805351216238272
  -3.9699999999999985E-002     2.4005949476337691
  -3.8599999999999995E-002     3.1856745482953439
  -3.7499999999999992E-002     2.5765120672583195
  -3.6399999999999988E-002    0.61749830680662643
  -3.5299999999999984E-002    -1.9624227340234919
  -3.4199999999999994E-002    -4.0023594559878726
  -3.3099999999999991E-002    -4.4235147904233196
  -3.1999999999999987E-002    -2.7833125807233272
  -3.0899999999999997E-002    0.40657080331329892
  -2.9799999999999993E-002     3.7949946478318233
  -2.8699999999999989E-002     5.7435552671968066
  -2.7599999999999986E-002     5.0992347197638699
  -2.6499999999999996E-002     1.8294650299674078
  -2.5399999999999992E-002    -2.8160358152097200
  -2.4299999999999988E-002    -6.7569703509156129
  -2.3199999999999985E-002    -7.9978446303756208
  -2.2099999999999995E-002    -5.6081391591707392
  -2.0999999999999991E-002   -0.29127850588491705
  -1.9899999999999987E-002     5.7809072861443580
  -1.8799999999999983E-002     9.8616458999164376
  -1.7699999999999994E-002     9.8846567697954519
  -1.6599999999999990E-002     5.5039412889348975
  -1.5499999999999986E-002    -1.6042446979310341
  -1.4399999999999996E-002    -8.3812183933719684
  -1.3299999999999992E-002    -11.727348668277358
  -1.2199999999999989E-002    -9.9461250326677355
  -1.1099999999999985E-002    -3.6027191671700236
  -9.9999999999999950E-003     4.6474367151474230
  -8.8999999999999913E-003     11.227880530902404
  -7.7999999999999875E-003     13.289133987104941
  -6.6999999999999837E-003     10.060781549821344
  -5.5999999999999939E-003     3.2473117851716640
  -4.4999999999999901E-003    -3.7477794242071703
  -3.3999999999999864E-003    -7.4178551275610021
  -2.2999999999999826E-003    -5.8065335981503097
  -1.1999999999999927E-003    0.58637440182914136
  -9.9999999999988987E-005     9.0928737129066093
   1.0000000000000148E-003     16.215802372168724
   2.1000000000000185E-003     19.349490578623609
   3.2000000000000084E-003     18.019921456152272
   4.3000000000000121E-003     14.029253421966187
   5.4000000000000159E-003     10.456563909560325
   6.5000000000000058E-003     10.062772145880688
   7.6000000000000234E-003     13.958289479206547
   8.7000000000000133E-003     21.245088650430443
   9.8000000000000032E-003     29.808905192087877
   1.0900000000000021E-002     37.793944337659561
   1.2000000000000011E-002     44.893643272648610
   1.3100000000000001E-002     52.669962588885795
   1.4200000000000018E-002     63.650393882171421
   1.5300000000000008E-002     79.669263343668362
   1.6400000000000026E-002     100.42070791162816
   1.7500000000000016E-002     123.16988126931466
   1.8600000000000005E-002     143.99065018880816
   1.9700000000000023E-002     160.03752849857565
   2.0800000000000013E-002     171.67708041671006
   2.1900000000000003E-002     183.20614330058280
   2.3000000000000020E-002     201.49423413383215
   2.4100000000000010E-002     232.95009236869348
   2.5200000000000000E-002     280.19599936524156
   2.6300000000000018E-002     340.19223753828913
   2.7400000000000008E-002     405.02063068007004
   2.8500000000000025E-002     465.29298349136047
   2.9600000000000015E-002     514.77587615699656
   3.0700000000000005E-002     554.02377867649318
   3.1800000000000023E-002     591.06251453947573
   3.2900000000000013E-002     638.43973355997230
   3.4000000000000002E-002     707.70369993171562
   3.5100000000000020E-002     803.74444924230727
   3.6200000000000010E-002     921.71155767112168
   3.7300000000000028E-002     1048.1867602616155
   3.8400000000000017E-002     1166.3583504849239
   3.9500000000000007E-002     1263.0123566036257
   4.0600000000000025E-002     1334.1704572762415
   4.1700000000000015E-002     1386.6960152199197
   4.2800000000000005E-002     1434.9845646239764
   4.3900000000000022E-002     1494.1331944484480
   4.5000000000000012E-002     1572.6583392801604
   4.6100000000000002E-002     1668.0804907441052
   4.7200000000000020E-002     1767.3722002954764
   4.8300000000000010E-002     1851.9930704266455
   4.9400000000000027E-002     1905.1054056789264
   5.0500000000000017E-002     1917.6068484771015
   5.1600000000000007E-002     1890.2857744769244
   5.2700000000000025E-002     1831.3501968560552
   5.3800000000000014E-002     1750.8199270275193
   5.4900000000000004E-002     1654.6891348991196
   5.6000000000000022E-002     1541.6792466527479
   5.7100000000000012E-002     1403.9062274597563
   5.8200000000000002E-002     1230.7008442324661
   5.9300000000000019E-002     1013.2551618141015
   6.0400000000000009E-002     747.53687695321889
   6.1500000000000027E-002     434.09998049945671
   6.2600000000000017E-002     75.335455693849283
   6.3700000000000007E-002    -327.74442824024487
   6.4800000000000024E-002    -776.80932930514609
   6.5900000000000014E-002    -1274.4004809599264
   6.7000000000000004E-002    -1819.8097842760660
   6.8100000000000022E-002    -2405.1327257810294
   6.9200000000000012E-002    -3014.3010774002996
   7.0300000000000029E-002    -3626.5335082547995
   7.1400000000000019E-002    -4223.2009183460823
   7.2500000000000009E-002    -4794.8786056020517
   7.3600000000000027E-002    -5344.6496062855194
   7.4700000000000016E-002    -5885.1231208620229
   7.5800000000000006E-002    -6429.6305309485115
   7.6900000000000024E-002    -6981.2278144770289
   7.8000000000000014E-002    -7524.7987716249236
   7.9100000000000004E-002    -8026.6791112264618
   8.0200000000000021E-002    -8442.9972827290931
   8.1300000000000011E-002    -8733.7741503333109
   8.2400000000000029E-002    -8876.7518342895510
   8.3500000000000019E-002    -8874.5491047626419
   8.4600000000000009E-002    -8751.4428192479609
   8.5700000000000026E-002    -8540.7237378915743
   8.6800000000000016E-002    -8268.0203204585086
   8.7900000000000006E-002    -7938.0728518700416
   8.9000000000000024E-002    -7531.0809291215182
   9.0100000000000013E-002    -7010.4848673175302
   9.1200000000000003E-002    -6338.8380238831633
   9.2300000000000021E-002    -5494.7348683283853
   9.3400000000000011E-002    -4483.3328276811271
   9.4500000000000028E-002    -3336.0372548925029
   9.5600000000000018E-002    -2099.9383672955605
   9.6700000000000008E-002    -822.18352061719543
   9.7800000000000026E-002     463.53193491206747
   9.8900000000000016E-002     1742.6309130049794
  0.10000000000000001          3015.8260664265581
  0.10110000000000002          4288.7307600585909
  0.10220000000000001          5560.6694099799579
  0.10330000000000003          6818.2133052045901
  0.10440000000000002          8035.9838097503025
  0.10550000000000001          9183.2397433865190
  0.10660000000000003          10231.879312532341
  0.10770000000000002          11161.226413382030
  0.10880000000000001          11957.351157668372
  0.10990000000000003          12608.252450331178
  0.11100000000000002          13098.909708909801
  0.11210000000000001          13410.403895948339
  0.11320000000000002          13524.833354649601
  0.11430000000000001          13433.968692660053
  0.11540000000000003          13146.691443728099
  0.11650000000000002          12690.057402704959
  0.11760000000000001          12101.711125755857
  0.11870000000000003          11416.015405179196
  0.11980000000000002          10650.205965476323
  0.12090000000000001          9797.8588994938509
  0.12200000000000003          8834.1101809672564
  0.12310000000000001          7731.5272099552249
  0.12420000000000003          6479.9649395800088
  0.12530000000000002          5101.0344158396883
  0.12640000000000001          3649.5898954824493
  0.12750000000000003          2200.3329375672274
  0.12860000000000002          824.64581249953551
  0.12970000000000001         -432.29827430075062
  0.13080000000000003         -1563.7712503314451
  0.13190000000000002         -2597.3199009246950
  0.13300000000000001         -3575.9324119238240
  0.13410000000000000         -4533.1035287073146
  0.13520000000000004         -5473.2092677958090
  0.13630000000000003         -6366.0765400299742
  0.13740000000000002         -7157.9311270781809
  0.13850000000000001         -7793.2601971349250
  0.13960000000000000         -8237.2108758740287
  0.14070000000000005         -8488.2772031568147
  0.14180000000000004         -8576.0219392737527
  0.14290000000000003         -8545.8794359778203
  0.14400000000000002         -8439.0628740801603
  0.14510000000000001         -8277.3805614455960
  0.14620000000000000         -8059.6533509589599
  0.14730000000000004         -7770.1924874862889
  0.14840000000000003         -7393.7279239398767
  0.14950000000000002         -6928.3505186920738
  0.15060000000000001         -6389.7472214438567
  0.15170000000000000         -5805.1617670802980
  0.15280000000000005         -5201.2326791793193
  0.15390000000000004         -4593.0576399750325
  0.15500000000000003         -3980.8467346636753
  0.15610000000000002         -3355.9878277757275
  0.15720000000000001         -2712.8163658457638
  0.15830000000000000         -2058.9541801414634
  0.15940000000000004         -1417.7027605912572
  0.16050000000000003         -820.37135252275073
  0.16160000000000002         -292.21626716768657
  0.16270000000000001          160.34489573526398
  0.16380000000000000          553.71134644214783
  0.16490000000000005          919.10838095176734
  0.16600000000000004          1285.8794605271685
  0.16710000000000003          1664.3598564359938
  0.16820000000000002          2037.4952013688933
  0.16930000000000001          2366.3594324179026
  0.17040000000000000          2607.7290824296201
  0.17150000000000004          2735.4397731947406
  0.17260000000000003          2754.7935683206724
  0.17370000000000002          2702.2658397087353
  0.17480000000000001          2629.8656335711107
  0.17590000000000000          2581.2409417810536
  0.17700000000000005          2571.0579235040386
  0.17810000000000004          2577.9625359624715
  0.17920000000000003          2555.0148192280935
  0.18030000000000002          2452.9729941669052
  0.18140000000000001          2245.4110831789899
  0.18250000000000000          1943.5891534722934
  0.18360000000000004          1593.8358168542090
  0.18470000000000003          1258.5868597032429
  0.18580000000000002          990.03109987966309
  0.18690000000000001          808.72937020570953
  0.18800000000000000          696.98642023073990
  0.18910000000000005          609.54272329008256
  0.19020000000000004          495.93769801617782
  0.19130000000000003          323.69961800183063
  0.19240000000000002          91.745580558421466
  0.19350000000000001         -171.33608863572582
  0.19460000000000005         -421.95210642517969
  0.19570000000000004         -621.05785093917143
  0.19680000000000003         -749.05116119931984
  0.19790000000000002         -809.79479987440664
  0.19900000000000001         -823.64505954831418
  0.20010000000000000         -814.85223150566037
  0.20120000000000005         -800.76813860681943
  0.20230000000000004         -788.13182141348659
  0.20340000000000003         -776.83811933913114
  0.20450000000000002         -766.96851982167891
  0.20560000000000000         -763.15702661557634
  0.20670000000000005         -772.49448110153355
  0.20780000000000004         -796.80754647153890
  0.20890000000000003         -824.46398801516386
