 -0.12000000000000000          0.0000000000000000
 -0.11889999999999999          0.0000000000000000
 -0.11780000000000000          0.0000000000000000
 -0.11670000000000000          0.0000000000000000
 -0.11559999999999999          0.0000000000000000
 -0.11449999999999999          0.0000000000000000
 -0.11340000000000000          0.0000000000000000
 -0.11230000000000000          0.0000000000000000
 -0.11119999999999999          0.0000000000000000
 -0.11009999999999999          0.0000000000000000
 -0.10900000000000000          0.0000000000000000
 -0.10790000000000000          3.6387105516957793E-138
 -0.10679999999999999          5.9173332751766113E-113
 -0.10569999999999999         -5.1025560301917829E-088
 -0.10460000000000000         -4.1684863017058418E-063
 -0.10349999999999999         -4.4119149562925044E-039
 -0.10239999999999999         -6.8548741765206359E-038
 -0.10130000000000000         -4.7583638658331443E-037
 -0.10020000000000000         -1.7630019385805203E-036
  -9.9099999999999994E-002    -2.3282475524327871E-036
  -9.7999999999999990E-002     1.0972131970793940E-035
  -9.6899999999999986E-002     7.2233927505302423E-035
  -9.5799999999999996E-002     1.8552059224411382E-034
  -9.4699999999999993E-002     8.8541812385687450E-035
  -9.3599999999999989E-002    -1.1075054529822074E-033
  -9.2499999999999999E-002    -4.4309997774462624E-033
  -9.1399999999999995E-002    -7.4308987969748322E-033
  -9.0299999999999991E-002     3.2780431726093154E-033
  -8.9200000000000002E-002     5.3121732827067431E-032
  -8.8099999999999984E-002     1.4430916374595508E-031
  -8.6999999999999994E-002     1.5558627049396830E-031
  -8.5899999999999990E-002    -2.5898049763331398E-031
  -8.4799999999999986E-002    -1.4859122378503377E-030
  -8.3699999999999997E-002    -3.0385187302747452E-030
  -8.2599999999999993E-002    -1.9773687421261071E-030
  -8.1499999999999989E-002     7.4315283906636082E-030
  -8.0399999999999999E-002     2.8424975870228666E-029
  -7.9299999999999995E-002     4.7212138513540634E-029
  -7.8199999999999992E-002     1.6341518092732156E-029
  -7.7100000000000002E-002    -1.3432017329307507E-028
  -7.5999999999999984E-002    -4.1264041175122616E-028
  -7.4899999999999994E-002    -5.9467087292485247E-028
  -7.3799999999999991E-002    -9.6717945877975845E-029
  -7.2699999999999987E-002     1.7806856665162046E-027
  -7.1599999999999997E-002     4.8598194921498452E-027
  -7.0499999999999993E-002     6.4792621745252114E-027
  -6.9399999999999989E-002     7.2333124743928728E-028
  -6.8300000000000000E-002    -1.8563432992322005E-026
  -6.7199999999999996E-002    -4.8397667208470943E-026
  -6.6099999999999992E-002    -6.3422170948551520E-026
  -6.5000000000000002E-002    -1.1801802330728104E-026
  -6.3899999999999985E-002     1.5707505556364960E-025
  -6.2799999999999995E-002     4.1694781037569245E-025
  -6.1699999999999991E-002     5.6542071425848540E-025
  -6.0599999999999994E-002     1.9884956807397114E-025
  -5.9499999999999990E-002    -1.0818211501476249E-024
  -5.8399999999999994E-002    -3.1338261599329587E-024
  -5.7299999999999990E-002    -4.5778265783427429E-024
  -5.6199999999999986E-002    -2.5870305502045030E-024
  -5.5099999999999996E-002     5.8404072109414101E-024
  -5.3999999999999992E-002     2.0474825747753354E-023
  -5.2899999999999989E-002     3.3292785228193904E-023
  -5.1799999999999985E-002     2.6487836375791365E-023
  -5.0699999999999995E-002    -2.1023046266363935E-023
  -4.9599999999999991E-002    -1.1428143283697302E-022
  -4.8499999999999988E-002    -2.1440801923707287E-022
  -4.7399999999999998E-002    -2.2141439707456433E-022
  -4.6299999999999994E-002    -2.3803537465751960E-025
  -4.5199999999999990E-002     5.2220034235693820E-022
  -4.4099999999999986E-002     1.2007950241331843E-021
  -4.2999999999999997E-002     1.5442094600763135E-021
  -4.1899999999999993E-002     7.7881924240663942E-022
  -4.0799999999999989E-002    -1.7291394005972230E-021
  -3.9699999999999985E-002    -5.6853204671687852E-021
  -3.8599999999999995E-002    -9.0499829193702776E-021
  -3.7499999999999992E-002    -7.9357678464258841E-021
  -3.6399999999999988E-002     1.8823864052355259E-021
  -3.5299999999999984E-002     2.1461329290638178E-020
  -3.4199999999999994E-002     4.4211144627332273E-020
  -3.3099999999999991E-002     5.3420552239652443E-020
  -3.1999999999999987E-002     2.6079243766265759E-020
  -3.0899999999999997E-002    -5.3819604572205413E-020
  -2.9799999999999993E-002    -1.7427231498210078E-019
  -2.8699999999999989E-002    -2.7662903849785102E-019
  -2.7599999999999986E-002    -2.5724371762172014E-019
  -2.6499999999999996E-002    -7.7621188570556834E-021
  -2.5399999999999992E-002     5.0174598633923925E-019
  -2.4299999999999988E-002     1.1231453572091388E-018
  -2.3199999999999985E-002     1.4776509246654476E-018
  -2.2099999999999995E-002     1.0343666659793520E-018
  -2.0999999999999991E-002    -6.2264638626671574E-019
  -1.9899999999999987E-002    -3.3749658972750751E-018
  -1.8799999999999983E-002    -6.1801298898898503E-018
  -1.7699999999999994E-002    -7.0260374605404168E-018
  -1.6599999999999990E-002    -3.5537910514036465E-018
  -1.5499999999999986E-002     5.5441689904270657E-018
  -1.4399999999999996E-002     1.8711647544699902E-017
  -1.3299999999999992E-002     3.0242978463072774E-017
  -1.2199999999999989E-002     3.0835719578753280E-017
  -1.1099999999999985E-002     1.1040926323612681E-017
  -9.9999999999999950E-003    -3.2493423880416376E-017
  -8.8999999999999913E-003    -9.0041069583886975E-017
  -7.7999999999999875E-003    -1.3513284135912867E-016
  -6.6999999999999837E-003    -1.2902897679766921E-016
  -5.5999999999999939E-003    -3.6329739583482749E-017
  -4.4999999999999901E-003     1.5026510329695239E-016
  -3.3999999999999864E-003     3.8515429035312316E-016
  -2.2999999999999826E-003     5.6028180633160852E-016
  -1.1999999999999927E-003     5.2695762684031322E-016
  -9.9999999999988987E-005     1.5676971839942500E-016
   1.0000000000000148E-003    -5.6902516403382089E-016
   2.1000000000000185E-003    -1.4756634319429843E-015
   3.2000000000000084E-003    -2.1684652616137254E-015
   4.3000000000000121E-003    -2.1144386337578809E-015
   5.4000000000000159E-003    -8.5181245525983972E-016
   6.5000000000000058E-003     1.7119395104601050E-015
   7.6000000000000234E-003     5.0240374414431137E-015
   8.7000000000000133E-003     7.7930433838030735E-015
   9.8000000000000032E-003     8.2306717061041857E-015
   1.0900000000000021E-002     4.6885861095420543E-015
   1.2000000000000011E-002    -3.4212316605114930E-015
   1.3100000000000001E-002    -1.4734941642860253E-014
   1.4200000000000018E-002    -2.5530702006544648E-014
   1.5300000000000008E-002    -3.0254399374298641E-014
   1.6400000000000026E-002    -2.3194298633029236E-014
   1.7500000000000016E-002    -1.0847120756352017E-015
   1.8600000000000005E-002     3.4112158224855002E-014
   1.9700000000000023E-002     7.3420427088598682E-014
   2.0800000000000013E-002     1.0131955560881475E-013
   2.1900000000000003E-002     9.9302407480099919E-014
   2.3000000000000020E-002     5.2406049934331999E-014
   2.4100000000000010E-002    -4.2684918152015717E-014
   2.5200000000000000E-002    -1.7059097675925096E-013
   2.6300000000000018E-002    -2.9455226318644170E-013
   2.7400000000000008E-002    -3.6108749933885661E-013
   2.8500000000000025E-002    -3.1341652613238441E-013
   2.9600000000000015E-002    -1.1237196175997392E-013
   3.0700000000000005E-002     2.3978234976677723E-013
   3.1800000000000023E-002     6.8024196651249226E-013
   3.2900000000000013E-002     1.0805124517472636E-012
   3.4000000000000002E-002     1.2635800258445510E-012
   3.5100000000000020E-002     1.0475378238744907E-012
   3.6200000000000010E-002     3.1215005948998106E-013
   3.7300000000000028E-002    -9.2522690206430143E-013
   3.8400000000000017E-002    -2.4480191159186048E-012
   3.9500000000000007E-002    -3.8231339629592908E-012
   4.0600000000000025E-002    -4.4563565801616557E-012
   4.1700000000000015E-002    -3.7355411245861515E-012
   4.2800000000000005E-002    -1.2508849924093289E-012
   4.3900000000000022E-002     2.9530928020044568E-012
   4.5000000000000012E-002     8.1735346257795208E-012
   4.6100000000000002E-002     1.2992932615773799E-011
   4.7200000000000020E-002     1.5461248090142451E-011
   4.8300000000000010E-002     1.3558902319163045E-011
   4.9400000000000027E-002     5.8965679052217220E-012
   5.0500000000000017E-002    -7.5001765684337362E-012
   5.1600000000000007E-002    -2.4569910358112238E-011
   5.2700000000000025E-002    -4.1050639107851373E-011
   5.3800000000000014E-002    -5.1017563484023091E-011
   5.4900000000000004E-002    -4.8216398142794784E-011
   5.6000000000000022E-002    -2.8042140253914552E-011
   5.7100000000000012E-002     1.0263838130426478E-011
   5.8200000000000002E-002     6.1850246299850579E-011
   5.9300000000000019E-002     1.1565658508183968E-010
   6.0400000000000009E-002     1.5557195295491956E-010
   6.1500000000000027E-002     1.6357752323638210E-010
   6.2600000000000017E-002     1.2455466646291469E-010
   6.3700000000000007E-002     3.1846088096255540E-011
   6.4800000000000024E-002    -1.0782247210015727E-010
   6.5900000000000014E-002    -2.7165413384139645E-010
   6.7000000000000004E-002    -4.2173123727061365E-010
   6.8100000000000022E-002    -5.1040347555128805E-010
   6.9200000000000012E-002    -4.8996800883142307E-010
   7.0300000000000029E-002    -3.2537832891106410E-010
   7.1400000000000019E-002    -7.6539309085443637E-012
   7.2500000000000009E-002     4.3510842821792529E-010
   7.3600000000000027E-002     9.3248333462305890E-010
   7.4700000000000016E-002     1.3751824847646781E-009
   7.5800000000000006E-002     1.6290519892620261E-009
   7.6900000000000024E-002     1.5595717312410924E-009
   7.8000000000000014E-002     1.0644570294897589E-009
   7.9100000000000004E-002     1.0939853978109717E-010
   8.0200000000000021E-002    -1.2402930517422138E-009
   8.1300000000000011E-002    -2.8007452208377322E-009
   8.2400000000000029E-002    -4.2717639089438045E-009
   8.3500000000000019E-002    -5.2666452130327396E-009
   8.4600000000000009E-002    -5.3717608520590369E-009
   8.5700000000000026E-002    -4.2321624355972751E-009
   8.6800000000000016E-002    -1.6525550578005502E-009
   8.7900000000000006E-002     2.3035843290531206E-009
   8.9000000000000024E-002     7.2387504142018095E-009
   9.0100000000000013E-002     1.2393599529440622E-008
   9.1200000000000003E-002     1.6687473899916130E-008
   9.2300000000000021E-002     1.8840656908599827E-008
   9.3400000000000011E-002     1.7579621064337986E-008
   9.4500000000000028E-002     1.1910619011919492E-008
   9.5600000000000018E-002     1.4288982661018525E-009
   9.6700000000000008E-002    -1.3386988216981236E-008
   9.7800000000000026E-002    -3.0960593067873102E-008
   9.8900000000000016E-002    -4.8554297661796164E-008
  0.10000000000000001         -6.2423870128383429E-008
  0.10110000000000002         -6.8236689576361916E-008
  0.10220000000000001         -6.1761229635750839E-008
  0.10330000000000003         -3.9781066131068103E-008
  0.10440000000000002         -1.1223331832191629E-009
  0.10550000000000001          5.2379746742814273E-008
  0.10660000000000003          1.1519690130873078E-007
  0.10770000000000002          1.7794298078084135E-007
  0.10880000000000001          2.2793361307492608E-007
  0.10990000000000003          2.5059129014789634E-007
  0.11100000000000002          2.3168242362297428E-007
  0.11210000000000001          1.6020344244859350E-007
  0.11320000000000002          3.1554206283730367E-008
  0.11430000000000001         -1.4951826959979959E-007
  0.11540000000000003         -3.6682007809674415E-007
  0.11650000000000002         -5.9207845437868905E-007
  0.11760000000000001         -7.8630347047647550E-007
  0.11870000000000003         -9.0345881010150916E-007
  0.11980000000000002         -8.9644522038526037E-007
  0.12090000000000001         -7.2501489137680754E-007
  0.12200000000000003         -3.6481919008597801E-007
  0.12310000000000001          1.8359857086656934E-007
  0.12420000000000003          8.8735536797711704E-007
  0.12530000000000002          1.6769620277237602E-006
  0.12640000000000001          2.4468046143949135E-006
  0.12750000000000003          3.0616096312785582E-006
  0.12860000000000002          3.3695208823724212E-006
  0.12970000000000001          3.2215516152564529E-006
  0.13080000000000003          2.4961226851005629E-006
  0.13190000000000002          1.1262706426196818E-006
  0.13300000000000001         -8.7393579304298315E-007
  0.13410000000000000         -3.3880156264397110E-006
  0.13520000000000004         -6.1853139951204497E-006
  0.13630000000000003         -8.9231744403385531E-006
  0.13740000000000002         -1.1166385841379639E-005
  0.13850000000000001         -1.2425541411082317E-005
  0.13960000000000000         -1.2213597248154620E-005
  0.14070000000000005         -1.0117117794167454E-005
  0.14180000000000004         -5.8757509673136023E-006
  0.14290000000000003          5.3921995116151427E-007
  0.14400000000000002          8.8584074467926770E-006
  0.14510000000000001          1.8471982331648218E-005
  0.14620000000000000          2.8422935225250060E-005
  0.14730000000000004          3.7445147749028078E-005
  0.14840000000000003          4.4051545232077059E-005
  0.14950000000000002          4.6672204719037962E-005
  0.15060000000000001          4.3835886024047245E-005
  0.15170000000000000          3.4381682429561118E-005
  0.15280000000000005          1.7681122539841100E-005
  0.15390000000000004         -6.1540859720640039E-006
  0.15500000000000003         -3.6106617312059681E-005
  0.15610000000000002         -7.0158815233601534E-005
  0.15720000000000001         -1.0529447704349017E-004
  0.15830000000000000         -1.3761691139506393E-004
  0.15940000000000004         -1.6259380993328563E-004
  0.16050000000000003         -1.7542743287114607E-004
  0.16160000000000002         -1.7153458006277932E-004
  0.16270000000000001         -1.4710597913798249E-004
  0.16380000000000000         -9.9700554680096882E-005
  0.16490000000000005         -2.8818223117215669E-005
  0.16600000000000004          6.3612918409390571E-005
  0.16710000000000003          1.7290137600804877E-004
  0.16820000000000002          2.9147099985442186E-004
  0.16930000000000001          4.0900420797896432E-004
  0.17040000000000000          5.1288198024472358E-004
  0.17150000000000004          5.8892897743999619E-004
  0.17260000000000003          6.2244434031592702E-004
  0.17370000000000002          5.9946947604641121E-004
  0.17480000000000001          5.0821625095649715E-004
  0.17590000000000000          3.4055541881858185E-004
  0.17700000000000005          9.3448628016669732E-005
  0.17810000000000004         -2.2979963439202742E-004
  0.17920000000000003         -6.1858955420163717E-004
  0.18030000000000002         -1.0544760152563235E-003
  0.18140000000000001         -1.5110959714673923E-003
  0.18250000000000000         -1.9546091950317403E-003
  0.18360000000000004         -2.3446414391375334E-003
  0.18470000000000003         -2.6356671897925931E-003
  0.18580000000000002         -2.7787164201450425E-003
  0.18690000000000001         -2.7232403984305516E-003
  0.18800000000000000         -2.4189298835389211E-003
  0.18910000000000005         -1.8172487976960223E-003
  0.19020000000000004         -8.7243076361711409E-004
  0.19130000000000003          4.5831325681710476E-004
  0.19240000000000002          2.2156098985261141E-003
  0.19350000000000001          4.4399601104167189E-003
  0.19460000000000005          7.1751485355427292E-003
  0.19570000000000004          1.0473118451742961E-002
  0.19680000000000003          1.4400343180750260E-002
  0.19790000000000002          1.9045665530617557E-002
  0.19900000000000001          2.4529527082907239E-002
  0.20010000000000000          3.1014475333985474E-002
  0.20120000000000005          3.8716823728891694E-002
  0.20230000000000004          4.7919350132533158E-002
  0.20340000000000003          5.8984953227110212E-002
  0.20450000000000002          7.2371240918274682E-002
  0.20560000000000000          8.8646094852186344E-002
  0.20670000000000005         0.10850433352749089
  0.20780000000000004         0.13278567505392044
  0.20890000000000003         0.16249427079094203
