 -0.12000000000000000          0.0000000000000000
 -0.11889999999999999          0.0000000000000000
 -0.11780000000000000          0.0000000000000000
 -0.11670000000000000          0.0000000000000000
 -0.11559999999999999          0.0000000000000000
 -0.11449999999999999          0.0000000000000000
 -0.11340000000000000          0.0000000000000000
 -0.11230000000000000          0.0000000000000000
 -0.11119999999999999          0.0000000000000000
 -0.11009999999999999          0.0000000000000000
 -0.10900000000000000          0.0000000000000000
 -0.10790000000000000          0.0000000000000000
 -0.10679999999999999          0.0000000000000000
 -0.10569999999999999          0.0000000000000000
 -0.10460000000000000          0.0000000000000000
 -0.10349999999999999          0.0000000000000000
 -0.10239999999999999          0.0000000000000000
 -0.10130000000000000         -3.4846372489976223E-042
 -0.10020000000000000         -7.6848777262954231E-041
  -9.9099999999999994E-002    -8.2919877689526670E-040
  -9.7999999999999990E-002    -5.7752900282670720E-039
  -9.6899999999999986E-002    -2.8747738958470108E-038
  -9.5799999999999996E-002    -1.0617803977166505E-037
  -9.4699999999999993E-002    -2.8694527131928060E-037
  -9.3599999999999989E-002    -4.9966393441440723E-037
  -9.2499999999999999E-002    -1.2990987580658880E-037
  -9.1399999999999995E-002     2.6398388157604302E-036
  -9.0299999999999991E-002     1.0626452792694193E-035
  -8.9200000000000002E-002     2.3504538218724393E-035
  -8.8099999999999984E-002     2.6032835323810270E-035
  -8.6999999999999994E-002    -2.7844556195055807E-035
  -8.5899999999999990E-002    -2.0927985452277896E-034
  -8.4799999999999986E-002    -5.3166218359484554E-034
  -8.3699999999999997E-002    -7.4390388183576024E-034
  -8.2599999999999993E-002    -8.6267321241706992E-035
  -8.1499999999999989E-002     2.6024833350816864E-033
  -8.0399999999999999E-002     7.7481952437898129E-033
  -7.9299999999999995E-002     1.2491289160657221E-032
  -7.8199999999999992E-002     7.9664026437291388E-033
  -7.7100000000000002E-002    -1.9428842837630753E-032
  -7.5999999999999984E-002    -7.6703425228552480E-032
  -7.4899999999999994E-002    -1.4086477062950461E-031
  -7.3799999999999991E-002    -1.3591415408539346E-031
  -7.2699999999999987E-002     5.6165607571673717E-032
  -7.1599999999999997E-002     5.0917569580914429E-031
  -7.0499999999999993E-002     1.0881490593650940E-030
  -6.9399999999999989E-002     1.3041206873694649E-030
  -6.8300000000000000E-002     4.0257332050323663E-031
  -6.7199999999999996E-002    -2.1037700383431415E-030
  -6.6099999999999992E-002    -5.5354108285710222E-030
  -6.5000000000000002E-002    -7.4339100553791190E-030
  -6.3899999999999985E-002    -4.3717263902614407E-030
  -6.2799999999999995E-002     5.0749943323599830E-030
  -6.1699999999999991E-002     1.6367649528368731E-029
  -6.0599999999999994E-002     1.8149524410790194E-029
  -5.9499999999999990E-002    -1.0123113097340100E-031
  -5.8399999999999994E-002    -3.0758818329143791E-029
  -5.7299999999999990E-002    -3.1746804539529340E-029
  -5.6199999999999986E-002     6.3878259738985852E-029
  -5.5099999999999996E-002     2.8616140366360519E-028
  -5.3999999999999992E-002     5.1857800471108358E-028
  -5.2899999999999989E-002     4.1226978969800999E-028
  -5.1799999999999985E-002    -5.3236287128197750E-028
  -5.0699999999999995E-002    -2.5761711707373807E-027
  -4.9599999999999991E-002    -5.0705683237294323E-027
  -4.8499999999999988E-002    -5.8786121677750568E-027
  -4.7399999999999998E-002    -1.6254647057925291E-027
  -4.6299999999999994E-002     1.0459909457210387E-026
  -4.5199999999999990E-002     2.9064446388173732E-026
  -4.4099999999999986E-002     4.5157137068812858E-026
  -4.2999999999999997E-002     4.1402364957170182E-026
  -4.1899999999999993E-002    -1.7036137752380348E-027
  -4.0799999999999989E-002    -9.1665635515547650E-026
  -3.9699999999999985E-002    -2.0615766020819433E-025
  -3.8599999999999995E-002    -2.8278136475323959E-025
  -3.7499999999999992E-002    -2.3089093288655481E-025
  -3.6399999999999988E-002     2.6095497099066747E-026
  -3.5299999999999984E-002     4.8677024046725626E-025
  -3.4199999999999994E-002     1.0174756404093413E-024
  -3.3099999999999991E-002     1.3517538012077101E-024
  -3.1999999999999987E-002     1.1740635419191408E-024
  -3.0899999999999997E-002     2.7343742385784515E-025
  -2.9799999999999993E-002    -1.3047385285474165E-024
  -2.8699999999999989E-002    -3.2086006289332177E-024
  -2.7599999999999986E-002    -4.8868639372885165E-024
  -2.6499999999999996E-002    -5.7891146459348951E-024
  -2.5399999999999992E-002    -5.4701644781620307E-024
  -2.4299999999999988E-002    -3.4083989303731767E-024
  -2.3199999999999985E-002     1.4183483402194823E-024
  -2.2099999999999995E-002     1.0725475436387661E-023
  -2.0999999999999991E-002     2.6060055881117869E-023
  -1.9899999999999987E-002     4.6255659798731333E-023
  -1.8799999999999983E-002     6.3674330137071929E-023
  -1.7699999999999994E-002     6.1555886466731539E-023
  -1.6599999999999990E-002     1.6401654339752494E-023
  -1.5499999999999986E-002    -9.0979094415907842E-023
  -1.4399999999999996E-002    -2.5580640639670444E-022
  -1.3299999999999992E-002    -4.2805172238362786E-022
  -1.2199999999999989E-002    -5.0398839358019315E-022
  -1.1099999999999985E-002    -3.4764757212562029E-022
  -9.9999999999999950E-003     1.4844952341007624E-022
  -8.8999999999999913E-003     9.7374051639607535E-022
  -7.7999999999999875E-003     1.9179441683301048E-021
  -6.6999999999999837E-003     2.5528083801888303E-021
  -5.5999999999999939E-003     2.3274333863600331E-021
  -4.4999999999999901E-003     7.8767978875656750E-022
  -3.3999999999999864E-003    -2.1361806174944562E-021
  -2.2999999999999826E-003    -5.8937191326169461E-021
  -1.1999999999999927E-003    -9.2723586623466958E-021
  -9.9999999999988987E-005    -1.0640133538744691E-020
   1.0000000000000148E-003    -8.4468027564947219E-021
   2.1000000000000185E-003    -1.8257544103910183E-021
   3.2000000000000084E-003     8.9254028847120961E-021
   4.3000000000000121E-003     2.2146893346106361E-020
   5.4000000000000159E-003     3.4895807338962149E-020
   6.5000000000000058E-003     4.3141346913095865E-020
   7.6000000000000234E-003     4.1938885971924062E-020
   8.7000000000000133E-003     2.5739766554457813E-020
   9.8000000000000032E-003    -1.0558949134328703E-020
   1.0900000000000021E-002    -6.8993894357855667E-020
   1.2000000000000011E-002    -1.4399383041883196E-019
   1.3100000000000001E-002    -2.1701702937059498E-019
   1.4200000000000018E-002    -2.5353164593632553E-019
   1.5300000000000008E-002    -2.0703160749605847E-019
   1.6400000000000026E-002    -3.4141120995139784E-020
   1.7500000000000016E-002     2.7918567882514539E-019
   1.8600000000000005E-002     6.8751341416716371E-019
   1.9700000000000023E-002     1.0666005934179980E-018
   2.0800000000000013E-002     1.2232212494910243E-018
   2.1900000000000003E-002     9.4723173551010598E-019
   2.3000000000000020E-002     1.0316301326742970E-019
   2.4100000000000010E-002    -1.2641754096806233E-018
   2.5200000000000000E-002    -2.8558270120421799E-018
   2.6300000000000018E-002    -4.1275183999736498E-018
   2.7400000000000008E-002    -4.4130809433142889E-018
   2.8500000000000025E-002    -3.1516405658556897E-018
   2.9600000000000015E-002    -1.5534204280784956E-019
   3.0700000000000005E-002     4.1837895204960760E-018
   3.1800000000000023E-002     8.8497186434109415E-018
   3.2900000000000013E-002     1.2376344849509758E-017
   3.4000000000000002E-002     1.3215473074636584E-017
   3.5100000000000020E-002     1.0197570970411509E-017
   3.6200000000000010E-002     2.9486038164268710E-018
   3.7300000000000028E-002    -7.8477375532579253E-018
   3.8400000000000017E-002    -2.0383313382328368E-017
   3.9500000000000007E-002    -3.1833396125870829E-017
   4.0600000000000025E-002    -3.8619666557456323E-017
   4.1700000000000015E-002    -3.6886942469385623E-017
   4.2800000000000005E-002    -2.3345454018809387E-017
   4.3900000000000022E-002     3.3852561321768335E-018
   4.5000000000000012E-002     4.1035762506277930E-017
   4.6100000000000002E-002     8.2122974452986824E-017
   4.7200000000000020E-002     1.1363899456088301E-016
   4.8300000000000010E-002     1.1923314192447262E-016
   4.9400000000000027E-002     8.4564750403395729E-017
   5.0500000000000017E-002     5.0733014157942566E-018
   5.1600000000000007E-002    -1.0652849894210483E-016
   5.2700000000000025E-002    -2.1727284205523459E-016
   5.3800000000000014E-002    -2.7965247545238902E-016
   5.4900000000000004E-002    -2.4771992767371355E-016
   5.6000000000000022E-002    -1.0045458831284952E-016
   5.7100000000000012E-002     1.3624481065940476E-016
   5.8200000000000002E-002     3.8108751126157274E-016
   5.9300000000000019E-002     5.1319209449029437E-016
   6.0400000000000009E-002     4.1520852947611611E-016
   6.1500000000000027E-002     3.4190405345184358E-017
   6.2600000000000017E-002    -5.6230228666717269E-016
   6.3700000000000007E-002    -1.1641985612384090E-015
   6.4800000000000024E-002    -1.4553863232300738E-015
   6.5900000000000014E-002    -1.1147366142237611E-015
   6.7000000000000004E-002     3.9387746601237511E-017
   6.8100000000000022E-002     1.9082043219359121E-015
   6.9200000000000012E-002     4.0350888966630924E-015
   7.0300000000000029E-002     5.6427333218722630E-015
   7.1400000000000019E-002     5.8049737168770790E-015
   7.2500000000000009E-002     3.7294106575000555E-015
   7.3600000000000027E-002    -9.1458486655712473E-016
   7.4700000000000016E-002    -7.7122159169587184E-015
   7.5800000000000006E-002    -1.5353854192336815E-014
   7.6900000000000024E-002    -2.1689573971479855E-014
   7.8000000000000014E-002    -2.4027507731017475E-014
   7.9100000000000004E-002    -1.9685081699542831E-014
   8.0200000000000021E-002    -6.7677498873857138E-015
   8.1300000000000011E-002     1.4903318973323766E-014
   8.2400000000000029E-002     4.2881633987951259E-014
   8.3500000000000019E-002     7.1491918794466098E-014
   8.4600000000000009E-002     9.1932686844384434E-014
   8.5700000000000026E-002     9.3504260194707301E-014
   8.6800000000000016E-002     6.6211298848651446E-014
   8.7900000000000006E-002     4.5717223920808625E-015
   8.9000000000000024E-002    -8.8153844548357849E-014
   9.0100000000000013E-002    -1.9673090677082864E-013
   9.1200000000000003E-002    -2.9348628121507410E-013
   9.2300000000000021E-002    -3.4213179789580737E-013
   9.3400000000000011E-002    -3.0638648179054123E-013
   9.4500000000000028E-002    -1.6224217850133380E-013
   9.5600000000000018E-002     8.9144845663555757E-014
   9.6700000000000008E-002     4.1230595472450161E-013
   9.7800000000000026E-002     7.3654626065311460E-013
   9.8900000000000016E-002     9.6622612632497330E-013
  0.10000000000000001          1.0021661810530102E-012
  0.10110000000000002          7.7034673256025053E-013
  0.10220000000000001          2.5080866650679080E-013
  0.10330000000000003         -5.0187568766508868E-013
  0.10440000000000002         -1.3542514341219204E-012
  0.10550000000000001         -2.1100779611945009E-012
  0.10660000000000003         -2.5463105723495520E-012
  0.10770000000000002         -2.4633552247415987E-012
  0.10880000000000001         -1.7400814444124931E-012
  0.10990000000000003         -3.8206884938496577E-013
  0.11100000000000002          1.4485050473672441E-012
  0.11210000000000001          3.4314212364147550E-012
  0.11320000000000002          5.1226611507225194E-012
  0.11430000000000001          6.0270782924275024E-012
  0.11540000000000003          5.7053223975604044E-012
  0.11650000000000002          3.9010354279122088E-012
  0.11760000000000001          6.6266119494638348E-013
  0.11870000000000003         -3.5760158917758448E-012
  0.11980000000000002         -7.9958699308635403E-012
  0.12090000000000001         -1.1503102030036697E-011
  0.12200000000000003         -1.2956092811691453E-011
  0.12310000000000001         -1.1476605500719901E-011
  0.12420000000000003         -6.7732267039982263E-012
  0.12530000000000002          6.2314939734106607E-013
  0.12640000000000001          9.3124166099388373E-012
  0.12750000000000003          1.7231426480643555E-011
  0.12860000000000002          2.2108619795680182E-011
  0.12970000000000001          2.2078349751900356E-011
  0.13080000000000003          1.6295046613178840E-011
  0.13190000000000002          5.3580762189524979E-012
  0.13300000000000001         -8.6118813516573438E-012
  0.13410000000000000         -2.2317525770156820E-011
  0.13520000000000004         -3.2004421416381891E-011
  0.13630000000000003         -3.4396064306757211E-011
  0.13740000000000002         -2.7615979324100149E-011
  0.13850000000000001         -1.1864293116684367E-011
  0.13960000000000000          1.0325395369616449E-011
  0.14070000000000005          3.4327544463887899E-011
  0.14180000000000004          5.4145152049115253E-011
  0.14290000000000003          6.3514880960716652E-011
  0.14400000000000002          5.7255714449290936E-011
  0.14510000000000001          3.2685100389205695E-011
  0.14620000000000000         -9.1189627787285535E-012
  0.14730000000000004         -6.2493955565005288E-011
  0.14840000000000003         -1.1714411171243613E-010
  0.14950000000000002         -1.5918992196309990E-010
  0.15060000000000001         -1.7349342654170286E-010
  0.15170000000000000         -1.4713072560300687E-010
  0.15280000000000005         -7.3458980058033043E-011
  0.15390000000000004          4.4191341697227491E-011
  0.15500000000000003          1.9039903456696777E-010
  0.15610000000000002          3.3819275943579550E-010
  0.15720000000000001          4.5280404052642987E-010
  0.15830000000000000          4.9833615004030217E-010
  0.15940000000000004          4.4612142065957777E-010
  0.16050000000000003          2.8284905726536091E-010
  0.16160000000000002          1.6371538729983701E-011
  0.16270000000000001         -3.2245154301570390E-010
  0.16380000000000000         -6.8256190008538702E-010
  0.16490000000000005         -9.9972351430562011E-010
  0.16600000000000004         -1.2064020249405364E-009
  0.16710000000000003         -1.2427393481369351E-009
  0.16820000000000002         -1.0670078382293514E-009
  0.16930000000000001         -6.6441694094842842E-010
  0.17040000000000000         -5.3601744446217560E-011
  0.17150000000000004          7.0977918003256814E-010
  0.17260000000000003          1.5332444435981419E-009
  0.17370000000000002          2.2928955789993770E-009
  0.17480000000000001          2.8455721111483043E-009
  0.17590000000000000          3.0485532942081707E-009
  0.17700000000000005          2.7857669116593835E-009
  0.17810000000000004          1.9968718121575910E-009
  0.17920000000000003          7.0309120599604012E-010
  0.18030000000000002         -9.7760546108758404E-010
  0.18140000000000001         -2.8325531346921822E-009
  0.18250000000000000         -4.5771066871774749E-009
  0.18360000000000004         -5.8966263926060706E-009
  0.18470000000000003         -6.5012059063419450E-009
  0.18580000000000002         -6.1827890431274861E-009
  0.18690000000000001         -4.8630225367767677E-009
  0.18800000000000000         -2.6217634053466536E-009
  0.18910000000000005          3.0004316816959601E-010
  0.19020000000000004          3.5246761461940641E-009
  0.19130000000000003          6.5863825902574508E-009
  0.19240000000000002          8.9986363938642885E-009
  0.19350000000000001          1.0331920621386360E-008
  0.19460000000000005          1.0292386250745757E-008
  0.19570000000000004          8.7898925078379318E-009
  0.19680000000000003          5.9820371454400631E-009
  0.19790000000000002          2.2800505813430484E-009
  0.19900000000000001         -1.6952125040846066E-009
  0.20010000000000000         -5.2118205530103936E-009
  0.20120000000000005         -7.5723683813539526E-009
  0.20230000000000004         -8.2840989137159003E-009
  0.20340000000000003         -7.2172477699076108E-009
  0.20450000000000002         -4.7080792133933490E-009
  0.20560000000000000         -1.5666704627736153E-009
  0.20670000000000005          1.0346149041267604E-009
  0.20780000000000004          1.7902475849808257E-009
  0.20890000000000003         -4.2323257219294195E-010
