 -0.12000000000000000          0.0000000000000000
 -0.11889999999999999          0.0000000000000000
 -0.11780000000000000          0.0000000000000000
 -0.11670000000000000          0.0000000000000000
 -0.11559999999999999          0.0000000000000000
 -0.11449999999999999          0.0000000000000000
 -0.11340000000000000          0.0000000000000000
 -0.11230000000000000          0.0000000000000000
 -0.11119999999999999          0.0000000000000000
 -0.11009999999999999          0.0000000000000000
 -0.10900000000000000          2.2763457970252667E-028
 -0.10790000000000000          3.0705326659916384E-027
 -0.10679999999999999          2.0178261776929638E-026
 -0.10569999999999999          8.4285097470613781E-026
 -0.10460000000000000          2.4215544113456574E-025
 -0.10349999999999999          4.6659503617390165E-025
 -0.10239999999999999          4.3618702351512051E-025
 -0.10130000000000000         -6.9654797207671953E-025
 -0.10020000000000000         -4.1009723489505406E-024
  -9.9099999999999994E-002    -1.0058309436231729E-023
  -9.7999999999999990E-002    -1.5860050919990547E-023
  -9.6899999999999986E-002    -1.4420106278142105E-023
  -9.5799999999999996E-002     4.1195011356655430E-024
  -9.4699999999999993E-002     4.8180452135129143E-023
  -9.3599999999999989E-002     1.2374257895962325E-022
  -9.2499999999999999E-002     2.4200631480648126E-022
  -9.1399999999999995E-002     4.2181318065951325E-022
  -9.0299999999999991E-002     6.3555832721342638E-022
  -8.9200000000000002E-002     6.3466725970194308E-022
  -8.8099999999999984E-002    -3.1255958208677320E-022
  -8.6999999999999994E-002    -3.4767283171906523E-021
  -8.5899999999999990E-002    -9.9144608066541469E-021
  -8.4799999999999986E-002    -1.8344306668397259E-020
  -8.3699999999999997E-002    -2.2014039204005233E-020
  -8.2599999999999993E-002    -6.8942410817131584E-021
  -8.1499999999999989E-002     4.4381440530245064E-020
  -8.0399999999999999E-002     1.3852604279837014E-019
  -7.9299999999999995E-002     2.4829313479086127E-019
  -7.8199999999999992E-002     2.9115791208590075E-019
  -7.7100000000000002E-002     1.3300316908327126E-019
  -7.5999999999999984E-002    -3.5733554837508413E-019
  -7.4899999999999994E-002    -1.1942198816471738E-018
  -7.3799999999999991E-002    -2.1347034930549219E-018
  -7.2699999999999987E-002    -2.5948092962926759E-018
  -7.1599999999999997E-002    -1.7338604509538250E-018
  -7.0499999999999993E-002     1.2142790388291699E-018
  -6.9399999999999989E-002     6.3919362805044903E-018
  -6.8300000000000000E-002     1.2730916295604438E-017
  -6.7199999999999996E-002     1.7627811601784249E-017
  -6.6099999999999992E-002     1.7183633825832412E-017
  -6.5000000000000002E-002     7.1686876732201315E-018
  -6.3899999999999985E-002    -1.5346796162804418E-017
  -6.2799999999999995E-002    -4.9932043850738727E-017
  -6.1699999999999991E-002    -9.0607841585658899E-017
  -6.0599999999999994E-002    -1.2390642212009445E-016
  -5.9499999999999990E-002    -1.2791784575543017E-016
  -5.8399999999999994E-002    -7.3926868786006703E-017
  -5.7299999999999990E-002     6.6680047724482546E-017
  -5.6199999999999986E-002     3.0737435431137157E-016
  -5.5099999999999996E-002     6.2282908225796147E-016
  -5.3999999999999992E-002     9.2228676070458496E-016
  -5.2899999999999989E-002     1.0345183818739702E-015
  -5.1799999999999985E-002     7.2640187948955354E-016
  -5.0699999999999995E-002    -2.2391776777138364E-016
  -4.9599999999999991E-002    -1.8946187335430704E-015
  -4.8499999999999988E-002    -4.0565604760430008E-015
  -4.7399999999999998E-002    -6.0464765098475150E-015
  -4.6299999999999994E-002    -6.7727854096187839E-015
  -4.5199999999999990E-002    -4.9412449204285334E-015
  -4.4099999999999986E-002     4.7276183880259136E-016
  -4.2999999999999997E-002     9.5846919599206276E-015
  -4.1899999999999993E-002     2.0991643361330791E-014
  -4.0799999999999989E-002     3.1468600194347077E-014
  -3.9699999999999985E-002     3.6233207376857520E-014
  -3.8599999999999995E-002     2.9922633192888078E-014
  -3.7499999999999992E-002     8.2270697872035566E-015
  -3.6399999999999988E-002    -3.0090498813487154E-014
  -3.5299999999999984E-002    -8.1225355753233746E-014
  -3.4199999999999994E-002    -1.3494346843235364E-013
  -3.3099999999999991E-002    -1.7435233776963924E-013
  -3.1999999999999987E-002    -1.7744763636606780E-013
  -3.0899999999999997E-002    -1.2106452588930214E-013
  -2.9799999999999993E-002     1.2306655137025831E-014
  -2.8699999999999989E-002     2.2499393583299255E-013
  -2.7599999999999986E-002     4.9334072420094324E-013
  -2.6499999999999996E-002     7.5893589351887223E-013
  -2.5399999999999992E-002     9.2705852808163012E-013
  -2.4299999999999988E-002     8.7825186943504316E-013
  -2.3199999999999985E-002     4.9721653553513625E-013
  -2.2099999999999995E-002    -2.8176922847603001E-013
  -2.0999999999999991E-002    -1.4214312717151697E-012
  -1.9899999999999987E-002    -2.7368691099679659E-012
  -1.8799999999999983E-002    -3.8816655080598643E-012
  -1.7699999999999994E-002    -4.3850401976907252E-012
  -1.6599999999999990E-002    -3.7498608471799850E-012
  -1.5499999999999986E-002    -1.6031961937620558E-012
  -1.4399999999999996E-002     2.1298816356420432E-012
  -1.3299999999999992E-002     7.0753510014123837E-012
  -1.2199999999999989E-002     1.2334376125389639E-011
  -1.1099999999999985E-002     1.6526991557802436E-011
  -9.9999999999999950E-003     1.7979729523582041E-011
  -8.8999999999999913E-003     1.5054424115075141E-011
  -7.7999999999999875E-003     6.5868745339883517E-012
  -6.6999999999999837E-003    -7.6231527190972039E-012
  -5.5999999999999939E-003    -2.6356167191096416E-011
  -4.4999999999999901E-003    -4.6666002740355901E-011
  -3.3999999999999864E-003    -6.3863605542990325E-011
  -2.2999999999999826E-003    -7.1944364555649178E-011
  -1.1999999999999927E-003    -6.4579945125927791E-011
  -9.9999999999988987E-005    -3.6693405920603799E-011
   1.0000000000000148E-003     1.3546681329107277E-011
   2.1000000000000185E-003     8.2715188814538683E-011
   3.2000000000000084E-003     1.6072552162904267E-010
   4.3000000000000121E-003     2.3075385272015348E-010
   5.4000000000000159E-003     2.7109429755018262E-010
   6.5000000000000058E-003     2.5915831450428426E-010
   7.6000000000000234E-003     1.7722531059338296E-010
   8.7000000000000133E-003     1.8881057666176084E-011
   9.8000000000000032E-003    -2.0543421677701724E-010
   1.0900000000000021E-002    -4.6549760832394917E-010
   1.2000000000000011E-002    -7.1240465853303046E-010
   1.3100000000000001E-002    -8.8436435710576226E-010
   1.4200000000000018E-002    -9.1687397099544731E-010
   1.5300000000000008E-002    -7.5600450384641028E-010
   1.6400000000000026E-002    -3.7280631514653458E-010
   1.7500000000000016E-002     2.2356492924778836E-010
   1.8600000000000005E-002     9.7655704997839371E-010
   1.9700000000000023E-002     1.7793214659672657E-009
   2.0800000000000013E-002     2.4806080716100397E-009
   2.1900000000000003E-002     2.9013483125971277E-009
   2.3000000000000020E-002     2.8625882456356665E-009
   2.4100000000000010E-002     2.2231651584912873E-009
   2.5200000000000000E-002     9.2226755693388295E-010
   2.6300000000000018E-002    -9.8155027126306690E-010
   2.7400000000000008E-002    -3.2859222722252024E-009
   2.8500000000000025E-002    -5.6458972273370421E-009
   2.9600000000000015E-002    -7.6083903183554816E-009
   3.0700000000000005E-002    -8.6802421965112170E-009
   3.1800000000000023E-002    -8.4210135428138072E-009
   3.2900000000000013E-002    -6.5431117853493032E-009
   3.4000000000000002E-002    -2.9971931088281734E-009
   3.5100000000000020E-002     1.9778071729602100E-009
   3.6200000000000010E-002     7.8531042596874978E-009
   3.7300000000000028E-002     1.3858691281002766E-008
   3.8400000000000017E-002     1.9072784205992793E-008
   3.9500000000000007E-002     2.2535816459508000E-008
   4.0600000000000025E-002     2.3372129817859614E-008
   4.1700000000000015E-002     2.0907221955289076E-008
   4.2800000000000005E-002     1.4774681279290102E-008
   4.3900000000000022E-002     5.0101503668568381E-009
   4.5000000000000012E-002    -7.8730577619554017E-009
   4.6100000000000002E-002    -2.2839801945337981E-008
   4.7200000000000020E-002    -3.8341423461914540E-008
   4.8300000000000010E-002    -5.2398945310804172E-008
   4.9400000000000027E-002    -6.2773761508591943E-008
   5.0500000000000017E-002    -6.7217960849201551E-008
   5.1600000000000007E-002    -6.3772346455561617E-008
   5.2700000000000025E-002    -5.1063500045884839E-008
   5.3800000000000014E-002    -2.8551504435535799E-008
   5.4900000000000004E-002     3.3005229619111578E-009
   5.6000000000000022E-002     4.2933313089088320E-008
   5.7100000000000012E-002     8.7647901754246685E-008
   5.8200000000000002E-002     1.3358291986844468E-007
   5.9300000000000019E-002     1.7571387878241732E-007
   6.0400000000000009E-002     2.0792931985367570E-007
   6.1500000000000027E-002     2.2329115098948999E-007
   6.2600000000000017E-002     2.1460428146607289E-007
   6.3700000000000007E-002     1.7537745452727732E-007
   6.4800000000000024E-002     1.0114926565567109E-007
   6.5900000000000014E-002    -8.9926682010901942E-009
   6.7000000000000004E-002    -1.5100450364344190E-007
   6.8100000000000022E-002    -3.1495966736178965E-007
   6.9200000000000012E-002    -4.8492904786692014E-007
   7.0300000000000029E-002    -6.3984715839889404E-007
   7.1400000000000019E-002    -7.5533822263974254E-007
   7.2500000000000009E-002    -8.0628402250414890E-007
   7.3600000000000027E-002    -7.6980344775091285E-007
   7.4700000000000016E-002    -6.2831196199107033E-007
   7.5800000000000006E-002    -3.7241366778393439E-007
   7.6900000000000024E-002    -3.4804871294952412E-009
   7.8000000000000014E-002     4.6418770171239844E-007
   7.9100000000000004E-002     1.0017981017176627E-006
   8.0200000000000021E-002     1.5654317068212746E-006
   8.1300000000000011E-002     2.0968423189105307E-006
   8.2400000000000029E-002     2.5262363942687129E-006
   8.3500000000000019E-002     2.7774187578661857E-006
   8.4600000000000009E-002     2.7752995954005244E-006
   8.5700000000000026E-002     2.4552312370062955E-006
   8.6800000000000016E-002     1.7731459068363628E-006
   8.7900000000000006E-002     7.1517402827448449E-007
   8.9000000000000024E-002    -6.9455980802313711E-007
   9.0100000000000013E-002    -2.3889645525776054E-006
   9.1200000000000003E-002    -4.2564001723025269E-006
   9.2300000000000021E-002    -6.1426898518191624E-006
   9.3400000000000011E-002    -7.8568044455937691E-006
   9.4500000000000028E-002    -9.1804207564160318E-006
   9.5600000000000018E-002    -9.8817759702255402E-006
   9.6700000000000008E-002    -9.7342877872931217E-006
   9.7800000000000026E-002    -8.5400260156068318E-006
   9.8900000000000016E-002    -6.1572059736662817E-006
  0.10000000000000001         -2.5295718596322944E-006
  0.10110000000000002          2.2857790340691342E-006
  0.10220000000000001          8.0964453568276730E-006
  0.10330000000000003          1.4563000695636227E-005
  0.10440000000000002          2.1200975050521918E-005
  0.10550000000000001          2.7398421672151217E-005
  0.10660000000000003          3.2449118232949121E-005
  0.10770000000000002          3.5599872731081856E-005
  0.10880000000000001          3.6109393070730156E-005
  0.10990000000000003          3.3315717959250227E-005
  0.11100000000000002          2.6708970637268303E-005
  0.11210000000000001          1.6005736225514750E-005
  0.11320000000000002          1.2203677582788716E-006
  0.11430000000000001         -1.7272959873908229E-005
  0.11540000000000003         -3.8695153123329630E-005
  0.11650000000000002         -6.1842623987168679E-005
  0.11760000000000001         -8.5101338368575357E-005
  0.11870000000000003         -1.0650051836049214E-004
  0.11980000000000002         -1.2380857621149702E-004
  0.12090000000000001         -1.3466971791146519E-004
  0.12200000000000003         -1.3677568754155351E-004
  0.12310000000000001         -1.2806398918064788E-004
  0.12420000000000003         -1.0693180570402772E-004
  0.12530000000000002         -7.2453411433482911E-005
  0.12640000000000001         -2.4587560039107507E-005
  0.12750000000000003          3.5640332955703763E-005
  0.12860000000000002          1.0599835925633240E-004
  0.12970000000000001          1.8296938958191149E-004
  0.13080000000000003          2.6175235986198350E-004
  0.13190000000000002          3.3636015349892588E-004
  0.13300000000000001          3.9982533779712645E-004
  0.13410000000000000          4.4451704555960059E-004
  0.13520000000000004          4.6256283517419154E-004
  0.13630000000000003          4.4635996976629614E-004
  0.13740000000000002          3.8915261899947519E-004
  0.13850000000000001          2.8564577176666903E-004
  0.13960000000000000          1.3262316884598489E-004
  0.14070000000000005         -7.0465148287730968E-005
  0.14180000000000004         -3.2098046287923110E-004
  0.14290000000000003         -6.1267196640577958E-004
  0.14400000000000002         -9.3538295002037206E-004
  0.14510000000000001         -1.2749108669909356E-003
  0.14620000000000000         -1.6130349767575155E-003
  0.14730000000000004         -1.9277104899518502E-003
  0.14840000000000003         -2.1934101787405959E-003
  0.14950000000000002         -2.3815753078720897E-003
  0.15060000000000001         -2.4611197451685522E-003
  0.15170000000000000         -2.3989159162166925E-003
  0.15280000000000005         -2.1601794194881182E-003
  0.15390000000000004         -1.7086600087653512E-003
  0.15500000000000003         -1.0065391194952135E-003
  0.15610000000000002         -1.3927350919135287E-005
  0.15720000000000001          1.3121504279589797E-003
  0.15830000000000000          3.0193979641827120E-003
  0.15940000000000004          5.1626329518670916E-003
  0.16050000000000003          7.8070222618376785E-003
  0.16160000000000002          1.1032261983903939E-002
  0.16270000000000001          1.4937781571425024E-002
  0.16380000000000000          1.9649036784901819E-002
  0.16490000000000005          2.5324947019453155E-002
  0.16600000000000004          3.2166532139023374E-002
  0.16710000000000003          4.0426812846943390E-002
  0.16820000000000002          5.0422054999378768E-002
  0.16930000000000001          6.2544458524835825E-002
  0.17040000000000000          7.7276412046488663E-002
  0.17150000000000004          9.5206452552224138E-002
  0.17260000000000003         0.11704708508502100
  0.17370000000000002         0.14365463132263492
  0.17480000000000001         0.17605128877285461
  0.17590000000000000         0.21544959294121235
  0.17700000000000005         0.26327947918999006
  0.17810000000000004         0.32121813248369108
  0.17920000000000003         0.39122278407909705
  0.18030000000000002         0.47556655760163974
  0.18140000000000001         0.57687737839000008
  0.18250000000000000         0.69817983778971593
  0.18360000000000004         0.84293974835849317
  0.18470000000000003          1.0151109369730877
  0.18580000000000002          1.2191835995615163
  0.18690000000000001          1.4602332810273693
  0.18800000000000000          1.7439692439930863
  0.18910000000000005          2.0767806494361603
  0.19020000000000004          2.4657785947625719
  0.19130000000000003          2.9188316497557221
  0.19240000000000002          3.4445921128468053
  0.19350000000000001          4.0525097971965804
  0.19460000000000005          4.7528297666332158
  0.19570000000000004          5.5565700925991877
  0.19680000000000003          6.4754754102142611
  0.19790000000000002          7.5219418293819675
  0.19900000000000001          8.7089086227789192
  0.20010000000000000          10.049712088091731
  0.20120000000000005          11.557897093216017
  0.20230000000000004          13.246982089451334
  0.20340000000000003          15.130173847582919
  0.20450000000000002          17.220028859281708
  0.20560000000000000          19.528059268370029
  0.20670000000000005          22.064282362070873
  0.20780000000000004          24.836714063226918
  0.20890000000000003          27.850808517347875
