 -0.12000000000000000          0.0000000000000000
 -0.11889999999999999          0.0000000000000000
 -0.11780000000000000          0.0000000000000000
 -0.11670000000000000          0.0000000000000000
 -0.11559999999999999          0.0000000000000000
 -0.11449999999999999          0.0000000000000000
 -0.11340000000000000          0.0000000000000000
 -0.11230000000000000          0.0000000000000000
 -0.11119999999999999          0.0000000000000000
 -0.11009999999999999          0.0000000000000000
 -0.10900000000000000          0.0000000000000000
 -0.10790000000000000          0.0000000000000000
 -0.10679999999999999          0.0000000000000000
 -0.10569999999999999         -7.8395425789405848E-031
 -0.10460000000000000         -1.3516630845412935E-029
 -0.10349999999999999         -1.1366730195222661E-028
 -0.10239999999999999         -6.1169532967007591E-028
 -0.10130000000000000         -2.3075040240554875E-027
 -0.10020000000000000         -6.1745769197834108E-027
  -9.9099999999999994E-002    -1.0573672198628827E-026
  -9.7999999999999990E-002    -3.9683507559284113E-027
  -9.6899999999999986E-002     4.2897333702196691E-026
  -9.5799999999999996E-002     1.6480591630399369E-025
  -9.4699999999999993E-002     3.3230425711608386E-025
  -9.3599999999999989E-002     3.1127109585587919E-025
  -9.2499999999999999E-002    -4.3605082965524125E-025
  -9.1399999999999995E-002    -2.4826384243916089E-024
  -9.0299999999999991E-002    -5.3999504249848755E-024
  -8.9200000000000002E-002    -6.0816598988407857E-024
  -8.8099999999999984E-002     1.9886866997868553E-024
  -8.6999999999999994E-002     2.5255888582358998E-023
  -8.5899999999999990E-002     5.9617259309556678E-023
  -8.4799999999999986E-002     7.6034266982048676E-023
  -8.3699999999999997E-002     1.6771313142553354E-023
  -8.2599999999999993E-002    -1.7404561572667820E-022
  -8.1499999999999989E-002    -4.7191911026398434E-022
  -8.0399999999999999E-002    -6.7616930336180597E-022
  -7.9299999999999995E-002    -3.9542311462751740E-022
  -7.8199999999999992E-002     7.5223840337970595E-022
  -7.7100000000000002E-002     2.6787392087811881E-021
  -7.5999999999999984E-002     4.3167429979747356E-021
  -7.4899999999999994E-002     3.5943386509897571E-021
  -7.3799999999999991E-002    -1.5011877334206491E-021
  -7.2699999999999987E-002    -1.0718344962256479E-020
  -7.1599999999999997E-002    -1.9382663724510710E-020
  -7.0499999999999993E-002    -1.8718623780284871E-020
  -6.9399999999999989E-002    -9.1006358131197793E-022
  -6.8300000000000000E-002     3.1771601986562786E-020
  -6.7199999999999996E-002     5.9711888086130566E-020
  -6.6099999999999992E-002     5.0624334578878974E-020
  -6.5000000000000002E-002    -1.6677275983123670E-020
  -6.3899999999999985E-002    -1.1617070222271488E-019
  -6.2799999999999995E-002    -1.5399022266255412E-019
  -6.1699999999999991E-002    -3.5291016141748099E-021
  -6.0599999999999994E-002     3.8180857331494344E-019
  -5.9499999999999990E-002     8.1715464359954564E-019
  -5.8399999999999994E-002     8.1734162030427366E-019
  -5.7299999999999990E-002    -2.2720974141256784E-019
  -5.6199999999999986E-002    -2.5496272713008303E-018
  -5.5099999999999996E-002    -5.3407668812217413E-018
  -5.3999999999999992E-002    -6.3931446910537613E-018
  -5.2899999999999989E-002    -2.6903832669273820E-018
  -5.1799999999999985E-002     7.6969619583182569E-018
  -5.0699999999999995E-002     2.2883368670823090E-017
  -4.9599999999999991E-002     3.5205818012714233E-017
  -4.8499999999999988E-002     3.2299479748468031E-017
  -4.7399999999999998E-002     2.7937579113404512E-018
  -4.6299999999999994E-002    -5.4292461647871240E-017
  -4.5199999999999990E-002    -1.2095776615707419E-016
  -4.4099999999999986E-002    -1.5945502759227800E-016
  -4.2999999999999997E-002    -1.2514033329539939E-016
  -4.1899999999999993E-002     7.7745393889203940E-018
  -4.0799999999999989E-002     2.1824472019369886E-016
  -3.9699999999999985E-002     4.2669476096458950E-016
  -3.8599999999999995E-002     5.1644818056729914E-016
  -3.7499999999999992E-002     3.8978512499501106E-016
  -3.6399999999999988E-002     3.5287659984709329E-017
  -3.5299999999999984E-002    -4.3699461998967005E-016
  -3.4199999999999994E-002    -8.3275368902539913E-016
  -3.3099999999999991E-002    -9.8587543092989779E-016
  -3.1999999999999987E-002    -8.8846750246464668E-016
  -3.0899999999999997E-002    -7.3347053603891154E-016
  -2.9799999999999993E-002    -7.7849613650702896E-016
  -2.8699999999999989E-002    -1.0411362885276241E-015
  -2.7599999999999986E-002    -9.9700097530591498E-016
  -2.6499999999999996E-002     4.2338211189901742E-016
  -2.5399999999999992E-002     4.2815389853077078E-015
  -2.4299999999999988E-002     1.0545585479432892E-014
  -2.3199999999999985E-002     1.6956396114323319E-014
  -2.2099999999999995E-002     1.8727817015404375E-014
  -2.0999999999999991E-002     9.9553996707825540E-015
  -1.9899999999999987E-002    -1.3056305932021313E-014
  -1.8799999999999983E-002    -4.7576393796077863E-014
  -1.7699999999999994E-002    -8.1638316212602817E-014
  -1.6599999999999990E-002    -9.5368818775575213E-014
  -1.5499999999999986E-002    -6.8023354387788684E-014
  -1.4399999999999996E-002     1.0518508102943241E-014
  -1.3299999999999992E-002     1.2848144180784972E-013
  -1.2199999999999989E-002     2.4794085604737664E-013
  -1.1099999999999985E-002     3.1318173127642078E-013
  -9.9999999999999950E-003     2.7205455184478719E-013
  -8.8999999999999913E-003     1.0312796127599809E-013
  -7.7999999999999875E-003    -1.6463036342042231E-013
  -6.6999999999999837E-003    -4.5295587427942271E-013
  -5.5999999999999939E-003    -6.6115474162625505E-013
  -4.4999999999999901E-003    -7.0933160075189080E-013
  -3.3999999999999864E-003    -5.7546906805355587E-013
  -2.2999999999999826E-003    -3.0146950292870348E-013
  -1.1999999999999927E-003     4.2511656239815247E-014
  -9.9999999999988987E-005     4.1861415869824216E-013
   1.0000000000000148E-003     8.6332889167025719E-013
   2.1000000000000185E-003     1.4620838401646135E-012
   3.2000000000000084E-003     2.2370021507408665E-012
   4.3000000000000121E-003     2.9891729523590092E-012
   5.4000000000000159E-003     3.2002158123779104E-012
   6.5000000000000058E-003     2.1197889547231847E-012
   7.6000000000000234E-003    -8.9143903595473971E-013
   8.7000000000000133E-003    -5.8318897793597228E-012
   9.8000000000000032E-003    -1.1578341927371752E-011
   1.0900000000000021E-002    -1.5792124385578765E-011
   1.2000000000000011E-002    -1.5488512270326192E-011
   1.3100000000000001E-002    -8.2832212330151364E-012
   1.4200000000000018E-002     6.0623438080788448E-012
   1.5300000000000008E-002     2.4516697930461049E-011
   1.6400000000000026E-002     4.0861020998682369E-011
   1.7500000000000016E-002     4.7410392831885055E-011
   1.8600000000000005E-002     3.8075669555181991E-011
   1.9700000000000023E-002     1.1648885502508100E-011
   2.0800000000000013E-002    -2.6278760975639984E-011
   2.1900000000000003E-002    -6.4105643703841932E-011
   2.3000000000000020E-002    -8.7996444740826468E-011
   2.4100000000000010E-002    -8.7426400824074942E-011
   2.5200000000000000E-002    -6.0057593917847489E-011
   2.6300000000000018E-002    -1.3359935314228752E-011
   2.7400000000000008E-002     3.8328998370136048E-011
   2.8500000000000025E-002     8.0278383582119693E-011
   2.9600000000000015E-002     1.0409091233350063E-010
   3.0700000000000005E-002     1.1063087883751096E-010
   3.1800000000000023E-002     1.0671797858984060E-010
   3.2900000000000013E-002     9.6815939751477350E-011
   3.4000000000000002E-002     7.4902985807443533E-011
   3.5100000000000020E-002     2.3429401391407238E-011
   3.6200000000000010E-002    -7.6211888157434241E-011
   3.7300000000000028E-002    -2.2388323095481928E-010
   3.8400000000000017E-002    -3.8170528608550943E-010
   3.9500000000000007E-002    -4.7058884381669244E-010
   4.0600000000000025E-002    -3.9384377735550264E-010
   4.1700000000000015E-002    -8.7265153751860156E-011
   4.2800000000000005E-002     4.2212447860565032E-010
   4.3900000000000022E-002     9.8027579466294027E-010
   4.5000000000000012E-002     1.3255051301016317E-009
   4.6100000000000002E-002     1.1773252353683521E-009
   4.7200000000000020E-002     3.7564439212175945E-010
   4.8300000000000010E-002    -9.8406255636275888E-010
   4.9400000000000027E-002    -2.4923467037376662E-009
   5.0500000000000017E-002    -3.5024166750153051E-009
   5.1600000000000007E-002    -3.3500249547746080E-009
   5.2700000000000025E-002    -1.6548583253284954E-009
   5.3800000000000014E-002     1.4172046598546564E-009
   5.4900000000000004E-002     5.0656880501200656E-009
   5.6000000000000022E-002     8.0259815197432652E-009
   5.7100000000000012E-002     8.9799985096958484E-009
   5.8200000000000002E-002     7.0711522495875543E-009
   5.9300000000000019E-002     2.3138516484203823E-009
   6.0400000000000009E-002    -4.2965229775833282E-009
   6.1500000000000027E-002    -1.1053077450860909E-008
   6.2600000000000017E-002    -1.6095609005167349E-008
   6.3700000000000007E-002    -1.8020171801518727E-008
   6.4800000000000024E-002    -1.6262449351791670E-008
   6.5900000000000014E-002    -1.1083070992928466E-008
   6.7000000000000004E-002    -3.1990961135130424E-009
   6.8100000000000022E-002     6.6740380688244383E-009
   6.9200000000000012E-002     1.8013762463812132E-008
   7.0300000000000029E-002     3.0181076818428680E-008
   7.1400000000000019E-002     4.1693221743020196E-008
   7.2500000000000009E-002     4.9526518472546197E-008
   7.3600000000000027E-002     4.9097005641804770E-008
   7.4700000000000016E-002     3.5419376657233446E-008
   7.5800000000000006E-002     5.4212183883718808E-009
   7.6900000000000024E-002    -3.9329360523846226E-008
   7.8000000000000014E-002    -9.0789973701953768E-008
   7.9100000000000004E-002    -1.3485466785078386E-007
   8.0200000000000021E-002    -1.5469183907482122E-007
   8.1300000000000011E-002    -1.3645525389554213E-007
   8.2400000000000029E-002    -7.5492427196767288E-008
   8.3500000000000019E-002     1.9576777118362997E-008
   8.4600000000000009E-002     1.2719732833088511E-007
   8.5700000000000026E-002     2.1839925773384814E-007
   8.6800000000000016E-002     2.6606680240182263E-007
   8.7900000000000006E-002     2.5458335055187624E-007
   8.9000000000000024E-002     1.8580496937994818E-007
   9.0100000000000013E-002     7.8462423485305599E-008
   9.1200000000000003E-002    -3.9201849661607228E-008
   9.2300000000000021E-002    -1.4058813253006336E-007
   9.3400000000000011E-002    -2.1060588284694557E-007
   9.4500000000000028E-002    -2.4936262409878807E-007
   9.5600000000000018E-002    -2.6752307578515940E-007
   9.6700000000000008E-002    -2.7543707617124181E-007
   9.7800000000000026E-002    -2.7189214904414730E-007
   9.8900000000000016E-002    -2.3951483155321872E-007
  0.10000000000000001         -1.5133085870892516E-007
  0.10110000000000002          1.2531726334343660E-008
  0.10220000000000001          2.4514716320957117E-007
  0.10330000000000003          5.0081202267787456E-007
  0.10440000000000002          7.0003504146091099E-007
  0.10550000000000001          7.5402750410050960E-007
  0.10660000000000003          6.0168332917574979E-007
  0.10770000000000002          2.4406044658319283E-007
  0.10880000000000001         -2.4065149907982694E-007
  0.10990000000000003         -7.1263930703074278E-007
  0.11100000000000002         -1.0148943907628953E-006
  0.11210000000000001         -1.0311816526757823E-006
  0.11320000000000002         -7.3369323547159024E-007
  0.11430000000000001         -1.9839507979810731E-007
  0.11540000000000003          4.2118729067110520E-007
  0.11650000000000002          9.5225793881345981E-007
  0.11760000000000001          1.2674921696245862E-006
  0.11870000000000003          1.3255611269594042E-006
  0.11980000000000002          1.1668173857850620E-006
  0.12090000000000001          8.6547059237677980E-007
  0.12200000000000003          4.6362957020575595E-007
  0.12310000000000001         -7.3621704732444220E-008
  0.12420000000000003         -8.4832297202731035E-007
  0.12530000000000002         -1.9560142114138806E-006
  0.12640000000000001         -3.3741956015662977E-006
  0.12750000000000003         -4.8668304248136149E-006
  0.12860000000000002         -5.9647424976121339E-006
  0.12970000000000001         -6.0583550010809527E-006
  0.13080000000000003         -4.5929742699061673E-006
  0.13190000000000002         -1.3064325752465558E-006
  0.13300000000000001          3.5822128399105150E-006
  0.13410000000000000          9.3187385594259949E-006
  0.13520000000000004          1.4736197888014051E-005
  0.13630000000000003          1.8528392094126338E-005
  0.13740000000000002          1.9587415331310133E-005
  0.13850000000000001          1.7290240819646433E-005
  0.13960000000000000          1.1639350628280813E-005
  0.14070000000000005          3.2234526005714086E-006
  0.14180000000000004         -6.9606682419162326E-006
  0.14290000000000003         -1.7730400790283758E-005
  0.14400000000000002         -2.7883143149609303E-005
  0.14510000000000001         -3.6251581806888063E-005
  0.14620000000000000         -4.1670630547701298E-005
  0.14730000000000004         -4.2945195488410659E-005
  0.14840000000000003         -3.8927483025832529E-005
  0.14950000000000002         -2.8767739176015946E-005
  0.15060000000000001         -1.2307972308665013E-005
  0.15170000000000000          9.5131337433972133E-006
  0.15280000000000005          3.4432661496551971E-005
  0.15390000000000004          5.8978096421692743E-005
  0.15500000000000003          7.8984012168630119E-005
  0.15610000000000002          9.0422324758144743E-005
  0.15720000000000001          9.0327688407134632E-005
  0.15830000000000000          7.7545943367221786E-005
  0.15940000000000004          5.3082642480939379E-005
  0.16050000000000003          1.9961730793241640E-005
  0.16160000000000002         -1.7335398622247958E-005
  0.16270000000000001         -5.3661680162882091E-005
  0.16380000000000000         -8.4008898188099891E-005
  0.16490000000000005         -1.0417015873857110E-004
  0.16600000000000004         -1.1121852182674863E-004
  0.16710000000000003         -1.0385550084275797E-004
  0.16820000000000002         -8.2704753640779191E-005
  0.16930000000000001         -5.0559704542015299E-005
  0.17040000000000000         -1.2477331871737241E-005
  0.17150000000000004          2.4482049598937628E-005
  0.17260000000000003          5.2065121344460268E-005
  0.17370000000000002          6.2250740719887020E-005
  0.17480000000000001          4.9128473553474227E-005
  0.17590000000000000          1.0834858337887980E-005
  0.17700000000000005         -4.8986008592862067E-005
  0.17810000000000004         -1.2069947892698661E-004
  0.17920000000000003         -1.8947070496637151E-004
  0.18030000000000002         -2.3731082033952986E-004
  0.18140000000000001         -2.4605205264292205E-004
  0.18250000000000000         -2.0072338474370202E-004
  0.18360000000000004         -9.2755110127934403E-005
  0.18470000000000003          7.7466907140829786E-005
  0.18580000000000002          2.9902514034876653E-004
  0.18690000000000001          5.5007497918349709E-004
  0.18800000000000000          7.9877592259441259E-004
  0.18910000000000005          1.0056827958767557E-003
  0.19020000000000004          1.1276835475556421E-003
  0.19130000000000003          1.1234055483639706E-003
  0.19240000000000002          9.5969942006498036E-004
  0.19350000000000001          6.1840641723015424E-004
  0.19460000000000005          1.0225983865765596E-004
  0.19570000000000004         -5.6137433690904689E-004
  0.19680000000000003         -1.3200345553914781E-003
  0.19790000000000002         -2.0995908825492617E-003
  0.19900000000000001         -2.8114609100340637E-003
  0.20010000000000000         -3.3627853250654104E-003
  0.20120000000000005         -3.6681850961508377E-003
  0.20230000000000004         -3.6614645444728948E-003
  0.20340000000000003         -3.3056549356500924E-003
  0.20450000000000002         -2.6000157548892026E-003
  0.20560000000000000         -1.5829061386837425E-003
  0.20670000000000005         -3.2974033386987269E-004
  0.20780000000000004          1.0544262594045857E-003
  0.20890000000000003          2.4476757679499582E-003
