 -0.12000000000000000          0.0000000000000000
 -0.11889999999999999          0.0000000000000000
 -0.11780000000000000          0.0000000000000000
 -0.11670000000000000          0.0000000000000000
 -0.11559999999999999          0.0000000000000000
 -0.11449999999999999          0.0000000000000000
 -0.11340000000000000          0.0000000000000000
 -0.11230000000000000          0.0000000000000000
 -0.11119999999999999          5.3985212412834926E-023
 -0.11009999999999999          5.9189925384227520E-022
 -0.10900000000000000          3.1409662747884043E-021
 -0.10790000000000000          1.0386774726404339E-020
 -0.10679999999999999          2.2364023622100564E-020
 -0.10569999999999999          2.6114102679266991E-020
 -0.10460000000000000         -1.4905420282050836E-020
 -0.10349999999999999         -1.4989527908671697E-019
 -0.10239999999999999         -3.8411796986659167E-019
 -0.10130000000000000         -5.9031501456373639E-019
 -0.10020000000000000         -4.7332961514544981E-019
  -9.9099999999999994E-002     2.9935656364787634E-019
  -9.7999999999999990E-002     1.8116933952166485E-018
  -9.6899999999999986E-002     3.7241614310382235E-018
  -9.5799999999999996E-002     5.5778080468196316E-018
  -9.4699999999999993E-002     7.4645261417404338E-018
  -9.3599999999999989E-002     9.8697995829877843E-018
  -9.2499999999999999E-002     1.0839381439764204E-017
  -9.1399999999999995E-002     3.0631699741856867E-019
  -9.0299999999999991E-002    -4.3483697134115508E-017
  -8.9200000000000002E-002    -1.4450190998204590E-016
  -8.8099999999999984E-002    -2.9590203450187897E-016
  -8.6999999999999994E-002    -4.0835691658398572E-016
  -8.5899999999999990E-002    -2.7578085461630812E-016
  -8.4799999999999986E-002     3.7603718788854477E-016
  -8.3699999999999997E-002     1.6991679920926846E-015
  -8.2599999999999993E-002     3.4088185636825639E-015
  -8.1499999999999989E-002     4.5015012504705619E-015
  -8.0399999999999999E-002     3.2961703458131077E-015
  -7.9299999999999995E-002    -1.9140737130359715E-015
  -7.8199999999999992E-002    -1.1561677257763615E-014
  -7.7100000000000002E-002    -2.3299364567855114E-014
  -7.5999999999999984E-002    -3.1228374021644601E-014
  -7.4899999999999994E-002    -2.6931109313825883E-014
  -7.3799999999999991E-002    -2.8261765717933513E-015
  -7.2699999999999987E-002     4.2856434420091932E-014
  -7.1599999999999997E-002     1.0154165721549534E-013
  -7.0499999999999993E-002     1.5289810881070935E-013
  -6.9399999999999989E-002     1.6840525119148856E-013
  -6.8300000000000000E-002     1.1959294618928053E-013
  -6.7199999999999996E-002    -1.1674898141254589E-014
  -6.6099999999999992E-002    -2.2428021985424389E-013
  -6.5000000000000002E-002    -4.9199377502083902E-013
  -6.3899999999999985E-002    -7.5927817516221417E-013
  -6.2799999999999995E-002    -9.3608019702582132E-013
  -6.1699999999999991E-002    -8.9298732862545244E-013
  -6.0599999999999994E-002    -4.6781601258153600E-013
  -5.9499999999999990E-002     4.9558027970150725E-013
  -5.8399999999999994E-002     2.0566581795873328E-012
  -5.7299999999999990E-002     4.0384962232039260E-012
  -5.6199999999999986E-002     5.8860317975310625E-012
  -5.5099999999999996E-002     6.6179376171496551E-012
  -5.3999999999999992E-002     4.9878192040804020E-012
  -5.2899999999999989E-002    -7.3666654210824629E-014
  -5.1799999999999985E-002    -8.7852735102589361E-012
  -5.0699999999999995E-002    -1.9826864487884257E-011
  -4.9599999999999991E-002    -2.9988758800810364E-011
  -4.8499999999999988E-002    -3.4518990785665612E-011
  -4.7399999999999998E-002    -2.8345668833844497E-011
  -4.6299999999999994E-002    -8.0011492305885001E-012
  -4.5199999999999990E-002     2.6314222479468397E-011
  -4.4099999999999986E-002     6.9325420363263902E-011
  -4.2999999999999997E-002     1.1064836176028837E-010
  -4.1899999999999993E-002     1.3642383368837238E-010
  -4.0799999999999989E-002     1.3232557300325965E-010
  -3.9699999999999985E-002     8.7184386970961161E-011
  -3.8599999999999995E-002    -3.6057227488859809E-012
  -3.7499999999999992E-002    -1.3538653357364189E-010
  -3.6399999999999988E-002    -2.9224056662992466E-010
  -3.5299999999999984E-002    -4.4556609247963172E-010
  -3.4199999999999994E-002    -5.5367576389004847E-010
  -3.3099999999999991E-002    -5.6408160170445701E-010
  -3.1999999999999987E-002    -4.2118852968542930E-010
  -3.0899999999999997E-002    -8.1828783432258834E-011
  -2.9799999999999993E-002     4.6153417546120168E-010
  -2.8699999999999989E-002     1.1549175087155019E-009
  -2.7599999999999986E-002     1.8645752395860739E-009
  -2.6499999999999996E-002     2.3796359169772259E-009
  -2.5399999999999992E-002     2.4463280550954408E-009
  -2.4299999999999988E-002     1.8352778575968692E-009
  -2.3199999999999985E-002     4.2939328928945622E-010
  -2.2099999999999995E-002    -1.6936425491405709E-009
  -2.0999999999999991E-002    -4.2165243617269011E-009
  -1.9899999999999987E-002    -6.6014142573193279E-009
  -1.8799999999999983E-002    -8.1809114102333347E-009
  -1.7699999999999994E-002    -8.3041786518126498E-009
  -1.6599999999999990E-002    -6.5009127090839735E-009
  -1.5499999999999986E-002    -2.6192715384232676E-009
  -1.4399999999999996E-002     3.0948356929631219E-009
  -1.3299999999999992E-002     9.9861048324679255E-009
  -1.2199999999999989E-002     1.7032373060405992E-008
  -1.1099999999999985E-002     2.2920931014593526E-008
  -9.9999999999999950E-003     2.6153057583245931E-008
  -8.8999999999999913E-003     2.5199484564793021E-008
  -7.7999999999999875E-003     1.8749332018754181E-008
  -6.6999999999999837E-003     6.0815674558673589E-009
  -5.5999999999999939E-003    -1.2470781534031078E-008
  -4.4999999999999901E-003    -3.5083478308077884E-008
  -3.3999999999999864E-003    -5.8230387855152056E-008
  -2.2999999999999826E-003    -7.6913544977697861E-008
  -1.1999999999999927E-003    -8.5459553709444785E-008
  -9.9999999999988987E-005    -7.8819863889464976E-008
   1.0000000000000148E-003    -5.4084707625190347E-008
   2.1000000000000185E-003    -1.1752167570772598E-008
   3.2000000000000084E-003     4.3718297248160371E-008
   4.3000000000000121E-003     1.0435230621407096E-007
   5.4000000000000159E-003     1.6005458298481006E-007
   6.5000000000000058E-003     2.0054364885287771E-007
   7.6000000000000234E-003     2.1721429562963245E-007
   8.7000000000000133E-003     2.0437548897915910E-007
   9.8000000000000032E-003     1.5963602741324441E-007
   1.0900000000000021E-002     8.3655119537604610E-008
   1.2000000000000011E-002    -2.0192873344980869E-008
   1.3100000000000001E-002    -1.4567996494900051E-007
   1.4200000000000018E-002    -2.8292664820652651E-007
   1.5300000000000008E-002    -4.1736702131817155E-007
   1.6400000000000026E-002    -5.2941994405516439E-007
   1.7500000000000016E-002    -5.9589515375680644E-007
   1.8600000000000005E-002    -5.9363565191297718E-007
   1.9700000000000023E-002    -5.0488714854398329E-007
   2.0800000000000013E-002    -3.2283058650333593E-007
   2.1900000000000003E-002    -5.5186612315797353E-008
   2.3000000000000020E-002     2.7578212520416303E-007
   2.4100000000000010E-002     6.3718896446594891E-007
   2.5200000000000000E-002     9.9190371966914780E-007
   2.6300000000000018E-002     1.3046047787113130E-006
   2.7400000000000008E-002     1.5446328855124964E-006
   2.8500000000000025E-002     1.6842600558341150E-006
   2.9600000000000015E-002     1.6935637424264476E-006
   3.0700000000000005E-002     1.5356063629950714E-006
   3.1800000000000023E-002     1.1666863986939277E-006
   3.2900000000000013E-002     5.4513864867793361E-007
   3.4000000000000002E-002    -3.5135523260113182E-007
   3.5100000000000020E-002    -1.5044282077102899E-006
   3.6200000000000010E-002    -2.8374884971217864E-006
   3.7300000000000028E-002    -4.2102063231728499E-006
   3.8400000000000017E-002    -5.4300061415769868E-006
   3.9500000000000007E-002    -6.2796275856685017E-006
   4.0600000000000025E-002    -6.5536550017612439E-006
   4.1700000000000015E-002    -6.0933588743074955E-006
   4.2800000000000005E-002    -4.8101523132137338E-006
   4.3900000000000022E-002    -2.6933211150917711E-006
   4.5000000000000012E-002     1.9490823242350613E-007
   4.6100000000000002E-002     3.7280857280647453E-006
   4.7200000000000020E-002     7.7181682978278457E-006
   4.8300000000000010E-002     1.1907089241871818E-005
   4.9400000000000027E-002     1.5951166451785017E-005
   5.0500000000000017E-002     1.9410793008045114E-005
   5.1600000000000007E-002     2.1761297122307823E-005
   5.2700000000000025E-002     2.2436393494363792E-005
   5.3800000000000014E-002     2.0904161111022132E-005
   5.4900000000000004E-002     1.6761599052627115E-005
   5.6000000000000022E-002     9.8240142706595809E-006
   5.7100000000000012E-002     1.8503746782890831E-007
   5.8200000000000002E-002    -1.1766873008601708E-005
   5.9300000000000019E-002    -2.5372986810414762E-005
   6.0400000000000009E-002    -3.9752086284212991E-005
   6.1500000000000027E-002    -5.3847451509448869E-005
   6.2600000000000017E-002    -6.6456112489758233E-005
   6.3700000000000007E-002    -7.6241494687823573E-005
   6.4800000000000024E-002    -8.1751226208279942E-005
   6.5900000000000014E-002    -8.1474194249195735E-005
   6.7000000000000004E-002    -7.3966731533151088E-005
   6.8100000000000022E-002    -5.8056046982975522E-005
   6.9200000000000012E-002    -3.3097198740358614E-005
   7.0300000000000029E-002     7.6863943160665128E-007
   7.1400000000000019E-002     4.2418898800842719E-005
   7.2500000000000009E-002     8.9670337933047607E-005
   7.3600000000000027E-002     1.3933767005728457E-004
   7.4700000000000016E-002     1.8741378474353948E-004
   7.5800000000000006E-002     2.2932641098086066E-004
   7.6900000000000024E-002     2.6021906184757677E-004
   7.8000000000000014E-002     2.7522115013674741E-004
   7.9100000000000004E-002     2.6970374220782996E-004
   8.0200000000000021E-002     2.3954651493316120E-004
   8.1300000000000011E-002     1.8145184734401533E-004
   8.2400000000000029E-002     9.3326409018844748E-005
   8.3500000000000019E-002    -2.5284921616027076E-005
   8.4600000000000009E-002    -1.7276665242056097E-004
   8.5700000000000026E-002    -3.4507779837946085E-004
   8.6800000000000016E-002    -5.3554355052432435E-004
   8.7900000000000006E-002    -7.3482746181510500E-004
   8.9000000000000024E-002    -9.3106983953732776E-004
   9.0100000000000013E-002    -1.1101380103863961E-003
   9.1200000000000003E-002    -1.2559196164232489E-003
   9.2300000000000021E-002    -1.3506050007244810E-003
   9.3400000000000011E-002    -1.3749370629711614E-003
   9.4500000000000028E-002    -1.3084346570273510E-003
   9.5600000000000018E-002    -1.1295980999711892E-003
   9.6700000000000008E-002    -8.1607504881302706E-004
   9.7800000000000026E-002    -3.4471243334924652E-004
   9.8900000000000016E-002     3.0863021710479769E-004
  0.10000000000000001          1.1696525959923884E-003
  0.10110000000000002          2.2666965821697628E-003
  0.10220000000000001          3.6324102712223640E-003
  0.10330000000000003          5.3059973028175295E-003
  0.10440000000000002          7.3360129624428254E-003
  0.10550000000000001          9.7836712561346056E-003
  0.10660000000000003          1.2726675099725962E-002
  0.10770000000000002          1.6263650461003771E-002
  0.10880000000000001          2.0519317513664318E-002
  0.10990000000000003          2.5650536887344946E-002
  0.11100000000000002          3.1853320089333614E-002
  0.11210000000000001          3.9370813124584507E-002
  0.11320000000000002          4.8502194410916744E-002
  0.11430000000000001          5.9612414102884134E-002
  0.11540000000000003          7.3142759500641905E-002
  0.11650000000000002          8.9622341497217470E-002
  0.11760000000000001         0.10968071068764941
  0.11870000000000003         0.13406187158507488
  0.11980000000000002         0.16363993293915652
  0.12090000000000001         0.19943651611591348
  0.12200000000000003         0.24263988806444525
  0.12310000000000001         0.29462565679691327
  0.12420000000000003         0.35697881780533619
  0.12530000000000002         0.43151697782535114
  0.12640000000000001         0.52031466250927816
  0.12750000000000003         0.62572865492873175
  0.12860000000000002         0.75042423137712522
  0.12970000000000001         0.89740192026886723
  0.13080000000000003          1.0700240346341456
  0.13190000000000002          1.2720398026062987
  0.13300000000000001          1.5076075498492101
  0.13410000000000000          1.7813121538000134
  0.13520000000000004          2.0981759091351373
  0.13630000000000003          2.4636609628259030
  0.13740000000000002          2.8836614972089420
  0.13850000000000001          3.3644837684787148
  0.13960000000000000          3.9128119090877105
  0.14070000000000005          4.5356571178083174
  0.14180000000000004          5.2402875970915170
  0.14290000000000003          6.0341364781072331
  0.14400000000000002          6.9246850856257485
  0.14510000000000001          7.9193192482356913
  0.14620000000000000          9.0251568892476453
  0.14730000000000004          10.248845737436671
  0.14840000000000003          11.596330591494070
  0.14950000000000002          13.072590141012331
  0.15060000000000001          14.681343951640130
  0.15170000000000000          16.424730972552986
  0.15280000000000005          18.302961921010425
  0.15390000000000004          20.313949176653782
  0.15500000000000003          22.452919322148396
  0.15610000000000002          24.712015070846796
  0.15720000000000001          27.079894884313873
  0.15830000000000000          29.541340006256089
  0.15940000000000004          32.076879909064210
  0.16050000000000003          34.662448319522561
  0.16160000000000002          37.269083133170305
  0.16270000000000001          39.862684662714038
  0.16380000000000000          42.403847716059374
  0.16490000000000005          44.847783786667115
  0.16600000000000004          47.144349939834797
  0.16710000000000003          49.238200604331645
  0.16820000000000002          51.069077344303430
  0.16930000000000001          52.572249832193236
  0.17040000000000000          53.679118799605760
  0.17150000000000004          54.317988851488394
  0.17260000000000003          54.415015764477452
  0.17370000000000002          53.895329223478157
  0.17480000000000001          52.684327772632862
  0.17590000000000000          50.709137958404021
  0.17700000000000005          47.900224205627310
  0.17810000000000004          44.193130024654216
  0.17920000000000003          39.530324976169169
  0.18030000000000002          33.863125769694967
  0.18140000000000001          27.153654262750727
  0.18250000000000000          19.376790169838895
  0.18360000000000004          10.522072063478163
  0.18470000000000003         0.59549675554398573
  0.18580000000000002         -10.378835591536124
  0.18690000000000001         -22.357285126297281
  0.18800000000000000         -35.275499940558767
  0.18910000000000005         -49.047562050965915
  0.19020000000000004         -63.565503440139814
  0.19130000000000003         -78.699239162890436
  0.19240000000000002         -94.296957810377279
  0.19350000000000001         -110.18600113520230
  0.19460000000000005         -126.17425471108550
  0.19570000000000004         -142.05206045217398
  0.19680000000000003         -157.59464985944996
  0.19790000000000002         -172.56508408500986
  0.19900000000000001         -186.71767335853372
  0.20010000000000000         -199.80183413915051
  0.20120000000000005         -211.56632787167587
  0.20230000000000004         -221.76381099716554
  0.20340000000000003         -230.15561260683836
  0.20450000000000002         -236.51664455847620
  0.20560000000000000         -240.64033957196898
  0.20670000000000005         -242.34350612412058
  0.20780000000000004         -241.47098498196695
  0.20890000000000003         -237.89999093115810
