 -0.12000000000000000          0.0000000000000000
 -0.11889999999999999          0.0000000000000000
 -0.11780000000000000          0.0000000000000000
 -0.11670000000000000          0.0000000000000000
 -0.11559999999999999          0.0000000000000000
 -0.11449999999999999          0.0000000000000000
 -0.11340000000000000          0.0000000000000000
 -0.11230000000000000          0.0000000000000000
 -0.11119999999999999          0.0000000000000000
 -0.11009999999999999          0.0000000000000000
 -0.10900000000000000          0.0000000000000000
 -0.10790000000000000          0.0000000000000000
 -0.10679999999999999          3.3792947575069299E-174
 -0.10569999999999999         -5.6573344497343407E-148
 -0.10460000000000000          4.9401179900501428E-122
 -0.10349999999999999         -3.1069274251865184E-096
 -0.10239999999999999          4.4385165893118350E-071
 -0.10130000000000000          1.4949096455519588E-046
 -0.10020000000000000          2.8890207637435284E-045
  -9.9099999999999994E-002     2.6235628218932933E-044
  -9.7999999999999990E-002     1.4364084520992865E-043
  -9.6899999999999986E-002     4.8847527366742623E-043
  -9.5799999999999996E-002     7.8290287880613242E-043
  -9.4699999999999993E-002    -1.6337271747281880E-042
  -9.3599999999999989E-002    -1.4898307115143601E-041
  -9.2499999999999999E-002    -4.7142751748273007E-041
  -9.1399999999999995E-002    -6.3776092633281890E-041
  -9.0299999999999991E-002     1.1558112771370184E-040
  -8.9200000000000002E-002     8.6711869440447529E-040
  -8.8099999999999984E-002     2.2831972089202073E-039
  -8.6999999999999994E-002     2.4164954905124288E-039
  -8.5899999999999990E-002    -5.3274664718466027E-039
  -8.4799999999999986E-002    -3.0637768432930342E-038
  -8.3699999999999997E-002    -6.8769668477395946E-038
  -8.2599999999999993E-002    -5.8204987314679756E-038
  -8.1499999999999989E-002     1.5714633188145428E-037
  -8.0399999999999999E-002     7.4442774233211342E-037
  -7.9299999999999995E-002     1.4913829095708733E-036
  -7.8199999999999992E-002     1.0972042690044442E-036
  -7.7100000000000002E-002    -3.1542914728002020E-036
  -7.5999999999999984E-002    -1.3488560118424571E-035
  -7.4899999999999994E-002    -2.5383730385987878E-035
  -7.3799999999999991E-002    -1.8310890868587745E-035
  -7.2699999999999987E-002     4.5626225373801296E-035
  -7.1599999999999997E-002     1.9250122107328279E-034
  -7.0499999999999993E-002     3.5732553577756149E-034
  -6.9399999999999989E-002     2.8154707290835710E-034
  -6.8300000000000000E-002    -4.8338639778225401E-034
  -6.7199999999999996E-002    -2.2347001051381219E-033
  -6.6099999999999992E-002    -4.2781993328893455E-033
  -6.5000000000000002E-002    -3.9096913729768527E-033
  -6.3899999999999985E-002     3.5220264051237790E-033
  -6.2799999999999995E-002     2.1387143840057616E-032
  -6.1699999999999991E-002     4.4064124747523591E-032
  -6.0599999999999994E-002     4.7586567163728183E-032
  -5.9499999999999990E-002    -1.0863426346727326E-032
  -5.8399999999999994E-002    -1.6766810941094885E-031
  -5.7299999999999990E-002    -3.9049777130848593E-031
  -5.6199999999999986E-002    -4.9865782079889962E-031
  -5.5099999999999996E-002    -1.4206976748545730E-031
  -5.3999999999999992E-002     1.0350743957341115E-030
  -5.2899999999999989E-002     2.9503022826570663E-030
  -5.1799999999999985E-002     4.4608553400363853E-030
  -5.0699999999999995E-002     3.0448496122340251E-030
  -4.9599999999999991E-002    -4.3592238670260788E-030
  -4.8499999999999988E-002    -1.8579987876257926E-029
  -4.7399999999999998E-002    -3.3831230566268334E-029
  -4.6299999999999994E-002    -3.4350182745354777E-029
  -4.5199999999999990E-002     2.7047623733408078E-030
  -4.4099999999999986E-002     9.2408033870255184E-029
  -4.2999999999999997E-002     2.1468927803311812E-028
  -4.1899999999999993E-002     2.8640442179900944E-028
  -4.0799999999999989E-002     1.6137010425134970E-028
  -3.9699999999999985E-002    -3.0462240342354278E-028
  -3.8599999999999995E-002    -1.1050893863673964E-027
  -3.7499999999999992E-002    -1.8916585695401282E-027
  -3.6399999999999988E-002    -1.8748695825580398E-027
  -3.5299999999999984E-002    -2.7334425775624600E-029
  -3.4199999999999994E-002     4.2350084637487673E-027
  -3.3099999999999991E-002     9.9588004995920878E-027
  -3.1999999999999987E-002     1.3671114638978045E-026
  -3.0899999999999997E-002     9.5372832286315687E-027
  -2.9799999999999993E-002    -8.1726583725057573E-027
  -2.8699999999999989E-002    -3.9884480099939865E-026
  -2.7599999999999986E-002    -7.4291410292879738E-026
  -2.6499999999999996E-002    -8.4899574104373716E-026
  -2.5399999999999992E-002    -3.5714753749207758E-026
  -2.4299999999999988E-002     9.8946783900539519E-026
  -2.3199999999999985E-002     3.0209079527039179E-025
  -2.2099999999999995E-002     4.8259416775090975E-025
  -2.0999999999999991E-002     4.7103035018568447E-025
  -1.9899999999999987E-002     7.3622843654761588E-026
  -1.8799999999999983E-002    -8.0034214956323363E-025
  -1.7699999999999994E-002    -1.9646677226520480E-024
  -1.6599999999999990E-002    -2.8245412329401524E-024
  -1.5499999999999986E-002    -2.4270587610423052E-024
  -1.4399999999999996E-002     1.7237852704295525E-025
  -1.3299999999999992E-002     5.2056466744786233E-024
  -1.2199999999999989E-002     1.1354686194761554E-023
  -1.1099999999999985E-002     1.5265827474232324E-023
  -9.9999999999999950E-003     1.2075061520147246E-023
  -8.8999999999999913E-003    -2.5374781570458026E-024
  -7.7999999999999875E-003    -2.8868184088932116E-023
  -6.6999999999999837E-003    -5.9459988505967134E-023
  -5.5999999999999939E-003    -7.7444574380311170E-023
  -4.4999999999999901E-003    -5.9793906176922233E-023
  -3.3999999999999864E-003     1.2646592315358894E-023
  -2.2999999999999826E-003     1.3942998449239031E-022
  -1.1999999999999927E-003     2.8472610426042512E-022
  -9.9999999999988987E-005     3.7154809711815621E-022
   1.0000000000000148E-003     2.9741809793116676E-022
   2.1000000000000185E-003    -2.1889450923298196E-023
   3.2000000000000084E-003    -5.8632967681410256E-022
   4.3000000000000121E-003    -1.2470017857368024E-021
   5.4000000000000159E-003    -1.6830302470868911E-021
   6.5000000000000058E-003    -1.4637789103930404E-021
   7.6000000000000234E-003    -2.2076376753476753E-022
   8.7000000000000133E-003     2.0934987110616337E-021
   9.8000000000000032E-003     4.9482393701654195E-021
   1.0900000000000021E-002     7.1261919234676583E-021
   1.2000000000000011E-002     6.9259178016540460E-021
   1.3100000000000001E-002     2.7693105767192784E-021
   1.4200000000000018E-002    -5.8528636600091923E-021
   1.5300000000000008E-002    -1.7391021169679409E-020
   1.6400000000000026E-002    -2.7704099828502210E-020
   1.7500000000000016E-002    -3.0553365977253299E-020
   1.8600000000000005E-002    -1.9500568787454006E-020
   1.9700000000000023E-002     8.9117517590848683E-021
   2.0800000000000013E-002     5.1547122717993725E-020
   2.1900000000000003E-002     9.6190157934155447E-020
   2.3000000000000020E-002     1.2208140321965247E-019
   2.4100000000000010E-002     1.0494361424735261E-019
   2.5200000000000000E-002     2.6606900722105936E-020
   2.6300000000000018E-002    -1.1280268306989619E-019
   2.7400000000000008E-002    -2.8444729334630047E-019
   2.8500000000000025E-002    -4.2792862450093853E-019
   2.9600000000000015E-002    -4.6132578402400827E-019
   3.0700000000000005E-002    -3.0631140115792556E-019
   3.1800000000000023E-002     7.5095916333268903E-020
   3.2900000000000013E-002     6.4239509013644147E-019
   3.4000000000000002E-002     1.2528875279570385E-018
   3.5100000000000020E-002     1.6695385033623046E-018
   3.6200000000000010E-002     1.6123064470465912E-018
   3.7300000000000028E-002     8.5231077339698432E-019
   3.8400000000000017E-002    -6.6949516253014197E-019
   3.9500000000000007E-002    -2.7353851384879752E-018
   4.0600000000000025E-002    -4.8030258618221803E-018
   4.1700000000000015E-002    -6.0615151745542162E-018
   4.2800000000000005E-002    -5.6154453389046610E-018
   4.3900000000000022E-002    -2.7834252990441555E-018
   4.5000000000000012E-002     2.5498757409304875E-018
   4.6100000000000002E-002     9.6327276903082938E-018
   4.7200000000000020E-002     1.6724327349316934E-017
   4.8300000000000010E-002     2.1267916651137833E-017
   4.9400000000000027E-002     2.0420158766158706E-017
   5.0500000000000017E-002     1.1903030311766270E-017
   5.1600000000000007E-002    -4.9734544111995600E-018
   5.2700000000000025E-002    -2.8381618079030884E-017
   5.3800000000000014E-002    -5.3474435306540155E-017
   5.4900000000000004E-002    -7.2641741557263273E-017
   5.6000000000000022E-002    -7.6749803258681664E-017
   5.7100000000000012E-002    -5.7381491167858845E-017
   5.8200000000000002E-002    -9.8044172134329672E-018
   5.9300000000000019E-002     6.3926447767283266E-017
   6.0400000000000009E-002     1.5260083995579803E-016
   6.1500000000000027E-002     2.3522787129888154E-016
   6.2600000000000017E-002     2.8307243478721556E-016
   6.3700000000000007E-002     2.6488985384892600E-016
   6.4800000000000024E-002     1.5520386313384923E-016
   6.5900000000000014E-002    -5.5464918628423076E-017
   6.7000000000000004E-002    -3.5054073422252037E-016
   6.8100000000000022E-002    -6.8049366910243364E-016
   6.9200000000000012E-002    -9.6248379760636756E-016
   7.0300000000000029E-002    -1.0895365765550696E-015
   7.1400000000000019E-002    -9.5081988248752511E-016
   7.2500000000000009E-002    -4.6211365809800889E-016
   7.3600000000000027E-002     3.9773197342251075E-016
   7.4700000000000016E-002     1.5520812646119871E-015
   7.5800000000000006E-002     2.8041334156702685E-015
   7.6900000000000024E-002     3.8385856223239455E-015
   7.8000000000000014E-002     4.2573663838827314E-015
   7.9100000000000004E-002     3.6543032590534620E-015
   8.0200000000000021E-002     1.7249272951322083E-015
   8.1300000000000011E-002    -1.6036082408907419E-015
   8.2400000000000029E-002    -6.0493057153555432E-015
   8.3500000000000019E-002    -1.0895027103774635E-014
   8.4600000000000009E-002    -1.4990955086498194E-014
   8.5700000000000026E-002    -1.6874174299859773E-014
   8.6800000000000016E-002    -1.5023055588745114E-014
   8.7900000000000006E-002    -8.2361601364775736E-015
   8.9000000000000024E-002     3.9110947774461868E-015
   9.0100000000000013E-002     2.0617776929158105E-014
   9.1200000000000003E-002     3.9535249962079006E-014
   9.2300000000000021E-002     5.6705703575249593E-014
   9.3400000000000011E-002     6.6884159945634240E-014
   9.4500000000000028E-002     6.4320377233704346E-014
   9.5600000000000018E-002     4.3993961432132763E-014
   9.6700000000000008E-002     3.1822905284836182E-015
   9.7800000000000026E-002    -5.6887736033290134E-014
   9.8900000000000016E-002    -1.2967161899599941E-013
  0.10000000000000001         -2.0266707201806964E-013
  0.10110000000000002         -2.5794735049664523E-013
  0.10220000000000001         -2.7421145248737106E-013
  0.10330000000000003         -2.3047366861694673E-013
  0.10440000000000002         -1.1118202635650317E-013
  0.10550000000000001          8.7855673656854960E-014
  0.10660000000000003          3.5378447125555076E-013
  0.10770000000000002          6.5264892313121789E-013
  0.10880000000000001          9.2853731375799112E-013
  0.10990000000000003          1.1073705056783922E-012
  0.11100000000000002          1.1063035150512648E-012
  0.11210000000000001          8.4883864632871120E-013
  0.11320000000000002          2.8453606254267863E-013
  0.11430000000000001         -5.8921265024650041E-013
  0.11540000000000003         -1.7072818143465018E-012
  0.11650000000000002         -2.9237887445040837E-012
  0.11760000000000001         -4.0113686348471184E-012
  0.11870000000000003         -4.6775877029122076E-012
  0.11980000000000002         -4.6015426913048238E-012
  0.12090000000000001         -3.4906302243083815E-012
  0.12200000000000003         -1.1533135277253564E-012
  0.12310000000000001          2.4210723630352861E-012
  0.12420000000000003          6.9891120431116513E-012
  0.12530000000000002          1.2003934730020715E-011
  0.12640000000000001          1.6608365136655347E-011
  0.12750000000000003          1.9687595032685912E-011
  0.12860000000000002          1.9992791210572437E-011
  0.12970000000000001          1.6337368729926866E-011
  0.13080000000000003          7.8543377951755714E-012
  0.13190000000000002         -5.7125200382288592E-012
  0.13300000000000001         -2.3726733050765308E-011
  0.13410000000000000         -4.4442748526747529E-011
  0.13520000000000004         -6.4918612238004478E-011
  0.13630000000000003         -8.1119420651012534E-011
  0.13740000000000002         -8.8259732190474209E-011
  0.13850000000000001         -8.1406637382022623E-011
  0.13960000000000000         -5.6326300823919748E-011
  0.14070000000000005         -1.0508375594721279E-011
  0.14180000000000004          5.5749896517554585E-011
  0.14290000000000003          1.3836722009662561E-010
  0.14400000000000002          2.2881314649367302E-010
  0.14510000000000001          3.1397190609034446E-010
  0.14620000000000000          3.7673503046035137E-010
  0.14730000000000004          3.9746695259526607E-010
  0.14840000000000003          3.5639198657053572E-010
  0.14950000000000002          2.3681874848513030E-010
  0.15060000000000001          2.8959396734495829E-011
  0.15170000000000000         -2.6606698539686782E-010
  0.15280000000000005         -6.3261211889387990E-010
  0.15390000000000004         -1.0379369839902320E-009
  0.15500000000000003         -1.4314371542404166E-009
  0.15610000000000002         -1.7463352438167289E-009
  0.15720000000000001         -1.9043648868558537E-009
  0.15830000000000000         -1.8236988087067216E-009
  0.15940000000000004         -1.4299941047015900E-009
  0.16050000000000003         -6.6996577782960539E-010
  0.16160000000000002          4.7360369203280297E-010
  0.16270000000000001          1.9670000246259414E-009
  0.16380000000000000          3.7128495152498905E-009
  0.16490000000000005          5.5417840563879932E-009
  0.16600000000000004          7.2108132317462076E-009
  0.16710000000000003          8.4105258759276324E-009
  0.16820000000000002          8.7827811440023885E-009
  0.16930000000000001          7.9498284839709023E-009
  0.17040000000000000          5.5548648806399882E-009
  0.17150000000000004          1.3129802436886415E-009
  0.17260000000000003         -4.9296268997780347E-009
  0.17370000000000002         -1.3131223952939533E-008
  0.17480000000000001         -2.2988640677296964E-008
  0.17590000000000000         -3.3873881238099957E-008
  0.17700000000000005         -4.4776987335015729E-008
  0.17810000000000004         -5.4258040732367002E-008
  0.17920000000000003         -6.0409745299711542E-008
  0.18030000000000002         -6.0830031584812050E-008
  0.18140000000000001         -5.2601698194380985E-008
  0.18250000000000000         -3.2273418679528590E-008
  0.18360000000000004          4.1662829741498514E-009
  0.18470000000000003          6.1333014577810416E-008
  0.18580000000000002          1.4452148710183845E-007
  0.18690000000000001          2.5982599626069842E-007
  0.18800000000000000          4.1432168289716891E-007
  0.18910000000000005          6.1632180500407755E-007
  0.19020000000000004          8.7572549248680347E-007
  0.19130000000000003          1.2044691245624626E-006
  0.19240000000000002          1.6170928132307735E-006
  0.19350000000000001          2.1314318025864975E-006
  0.19460000000000005          2.7694412406134981E-006
  0.19570000000000004          3.5581620739936802E-006
  0.19680000000000003          4.5308360294828283E-006
  0.19790000000000002          5.7281789551592977E-006
  0.19900000000000001          7.1998242525573328E-006
  0.20010000000000000          9.0059516419418838E-006
  0.20120000000000005          1.1219120824246266E-005
  0.20230000000000004          1.3926334355365601E-005
  0.20340000000000003          1.7231358746479065E-005
  0.20450000000000002          2.1257336899429259E-005
  0.20560000000000000          2.6149727917954469E-005
  0.20670000000000005          3.2079611583031562E-005
  0.20780000000000004          3.9247393911344527E-005
  0.20890000000000003          4.7886946922951212E-005
