 -0.12000000000000000          0.0000000000000000
 -0.11889999999999999          0.0000000000000000
 -0.11780000000000000          0.0000000000000000
 -0.11670000000000000          0.0000000000000000
 -0.11559999999999999          0.0000000000000000
 -0.11449999999999999          0.0000000000000000
 -0.11340000000000000          0.0000000000000000
 -0.11230000000000000          0.0000000000000000
 -0.11119999999999999          0.0000000000000000
 -0.11009999999999999          0.0000000000000000
 -0.10900000000000000         -7.0366261398442126E-140
 -0.10790000000000000         -1.0227745485304329E-113
 -0.10679999999999999          2.7843533797401301E-089
 -0.10569999999999999          4.7707582337294191E-064
 -0.10460000000000000          8.3558976817462035E-040
 -0.10349999999999999          1.3789463522077075E-038
 -0.10239999999999999          1.0387026595648575E-037
 -0.10130000000000000          4.4349525440700214E-037
 -0.10020000000000000          9.5979600219041542E-037
  -9.9099999999999994E-002    -6.2737307991489984E-037
  -9.7999999999999990E-002    -1.2400917590241395E-035
  -9.6899999999999986E-002    -4.3625639754494651E-035
  -9.5799999999999996E-002    -6.2464872902789033E-035
  -9.4699999999999993E-002     1.0196212958448329E-034
  -9.3599999999999989E-002     7.7960149574195368E-034
  -9.2499999999999999E-002     1.9312483801629360E-033
  -9.1399999999999995E-002     1.5384169546802186E-033
  -9.0299999999999991E-002    -6.0747191204153511E-033
  -8.9200000000000002E-002    -2.6738878405599900E-032
  -8.8099999999999984E-002    -4.8995858430497509E-032
  -8.6999999999999994E-002    -1.3859949567783945E-032
  -8.5899999999999990E-002     1.8783052514417199E-031
  -8.4799999999999986E-002     5.9458870231936727E-031
  -8.3699999999999997E-002     8.5378661368607447E-031
  -8.2599999999999993E-002    -1.1623741074935159E-031
  -8.1499999999999989E-002    -3.7535732998595887E-030
  -8.0399999999999999E-002    -9.6702724179913739E-030
  -7.9299999999999995E-002    -1.1584362494082865E-029
  -7.8199999999999992E-002     5.0386050722100246E-030
  -7.7100000000000002E-002     5.4837604218180055E-029
  -7.5999999999999984E-002     1.2486787790483813E-028
  -7.4899999999999994E-002     1.3426706551920742E-028
  -7.3799999999999991E-002    -7.4270642326529096E-029
  -7.2699999999999987E-002    -6.2867946274772625E-028
  -7.1599999999999997E-002    -1.3494381869324827E-027
  -7.0499999999999993E-002    -1.4089935135921319E-027
  -6.9399999999999989E-002     6.5010064135223046E-028
  -6.8300000000000000E-002     5.8836623878086997E-027
  -6.7199999999999996E-002     1.2583461615434342E-026
  -6.6099999999999992E-002     1.3666414554818252E-026
  -6.5000000000000002E-002    -2.8586677130452661E-027
  -6.3899999999999985E-002    -4.5701425940412585E-026
  -6.2799999999999995E-002    -1.0264977442991025E-025
  -6.1699999999999991E-002    -1.2167355333781248E-025
  -6.0599999999999994E-002    -1.3637353041165142E-026
  -5.9499999999999990E-002     2.9285489825997006E-025
  -5.8399999999999994E-002     7.3340524258355788E-025
  -5.7299999999999990E-002     9.7725858251130010E-025
  -5.6199999999999986E-002     4.2414695570446690E-025
  -5.5099999999999996E-002    -1.4830720350296985E-024
  -5.3999999999999992E-002    -4.5463519478589367E-024
  -5.2899999999999989E-002    -6.9604978892004700E-024
  -5.1799999999999985E-002    -5.0888767011161047E-024
  -5.0699999999999995E-002     5.0431316903018185E-024
  -4.9599999999999991E-002     2.3896852226221451E-023
  -4.8499999999999988E-002     4.3273960539084254E-023
  -4.7399999999999998E-002     4.3632619980241674E-023
  -4.6299999999999994E-002    -2.9000136603799383E-025
  -4.5199999999999990E-002    -1.0107423829844823E-022
  -4.4099999999999986E-002    -2.3042391168155011E-022
  -4.2999999999999997E-002    -2.9731843433484993E-022
  -4.1899999999999993E-002    -1.6106333959620029E-022
  -4.0799999999999989E-002     2.9322951910153824E-022
  -3.9699999999999985E-002     1.0172936934069870E-021
  -3.8599999999999995E-002     1.6590199422356852E-021
  -3.7499999999999992E-002     1.5430686693386688E-021
  -3.6399999999999988E-002    -7.9636171043388275E-023
  -3.5299999999999984E-002    -3.4505921761485496E-021
  -3.4199999999999994E-002    -7.5533462544406196E-021
  -3.3099999999999991E-002    -9.6672191950715274E-021
  -3.1999999999999987E-002    -5.9103378711627692E-021
  -3.0899999999999997E-002     6.7019299678992036E-021
  -2.9799999999999993E-002     2.6904439371610260E-020
  -2.8699999999999989E-002     4.6024406290160093E-020
  -2.7599999999999986E-002     4.7742348988690008E-020
  -2.6499999999999996E-002     1.3682316411432473E-020
  -2.5399999999999992E-002    -6.4196490837238681E-020
  -2.4299999999999988E-002    -1.6783900674596968E-019
  -2.3199999999999985E-002    -2.4299437014816265E-019
  -2.2099999999999995E-002    -2.0735175314641752E-019
  -2.0999999999999991E-002     1.3390337290195818E-020
  -1.9899999999999987E-002     4.2425593201657986E-019
  -1.8799999999999983E-002     8.9785774923096565E-019
  -1.7699999999999994E-002     1.1530875661177728E-018
  -1.6599999999999990E-002     8.2469897989461251E-019
  -1.5499999999999986E-002    -3.5209439396207115E-019
  -1.4399999999999996E-002    -2.2787658768726076E-018
  -1.3299999999999992E-002    -4.2708407890299296E-018
  -1.2199999999999989E-002    -5.0561608959141299E-018
  -1.1099999999999985E-002    -3.1614386754318420E-018
  -9.9999999999999950E-003     2.2792711415014952E-018
  -8.8999999999999913E-003     1.0511369365652305E-017
  -7.7999999999999875E-003     1.8444686488899177E-017
  -6.6999999999999837E-003     2.0900426711855490E-017
  -5.5999999999999939E-003     1.2334440783052677E-017
  -4.4999999999999901E-003    -1.0018754746183218E-017
  -3.3999999999999864E-003    -4.2545679454751481E-017
  -2.2999999999999826E-003    -7.3068139750672437E-017
  -1.1999999999999927E-003    -8.2296356251138182E-017
  -9.9999999999988987E-005    -5.0395164569984271E-017
   1.0000000000000148E-003     3.1937997407454744E-017
   2.1000000000000185E-003     1.5145722344224491E-016
   3.2000000000000084E-003     2.6566284508209246E-016
   4.3000000000000121E-003     3.0833523049343468E-016
   5.4000000000000159E-003     2.1142174448781285E-016
   6.5000000000000058E-003    -5.9268653325448886E-017
   7.6000000000000234E-003    -4.6601743333830621E-016
   8.7000000000000133E-003    -8.7774946407463481E-016
   9.8000000000000032E-003    -1.0854770292709272E-015
   1.0900000000000021E-002    -8.6627193938350187E-016
   1.2000000000000011E-002    -8.8354208794369558E-017
   1.3100000000000001E-002     1.1747317243618424E-015
   1.4200000000000018E-002     2.5731304956471767E-015
   1.5300000000000008E-002     3.5088211432243008E-015
   1.6400000000000026E-002     3.2966483132429144E-015
   1.7500000000000016E-002     1.4435253451634386E-015
   1.8600000000000005E-002    -2.0313951200943603E-015
   1.9700000000000023E-002    -6.3653035643190202E-015
   2.0800000000000013E-002    -1.0052658272321521E-014
   2.1900000000000003E-002    -1.1175835262732466E-014
   2.3000000000000020E-002    -8.0551078445184939E-015
   2.4100000000000010E-002    -6.4239259938368437E-017
   2.5200000000000000E-002     1.1670083633636641E-014
   2.6300000000000018E-002     2.4018962699053886E-014
   2.7400000000000008E-002     3.2316078618600394E-014
   2.8500000000000025E-002     3.1600201171139745E-014
   2.9600000000000015E-002     1.8412832435375548E-014
   3.0700000000000005E-002    -7.3527560492049031E-015
   3.1800000000000023E-002    -4.1219995516078744E-014
   3.2900000000000013E-002    -7.4143117170195605E-014
   3.4000000000000002E-002    -9.4118989642806104E-014
   3.5100000000000020E-002    -8.9290443353323725E-014
   3.6200000000000010E-002    -5.1920306726543572E-014
   3.7300000000000028E-002     1.7794425948783023E-014
   3.8400000000000017E-002     1.0926345408933627E-013
   3.9500000000000007E-002     2.0144238878627031E-013
   4.0600000000000025E-002     2.6576548427457607E-013
   4.1700000000000015E-002     2.7201968157894273E-013
   4.2800000000000005E-002     1.9639415953916012E-013
   4.3900000000000022E-002     3.0283358350353991E-014
   4.5000000000000012E-002    -2.1208582338781034E-013
   4.6100000000000002E-002    -4.8941798947534557E-013
   4.7200000000000020E-002    -7.3469436368929616E-013
   4.8300000000000010E-002    -8.6381610061072275E-013
   4.9400000000000027E-002    -7.9218024465168533E-013
   5.0500000000000017E-002    -4.5803287790284320E-013
   5.1600000000000007E-002     1.5094662099508187E-013
   5.2700000000000025E-002     9.7393062573712923E-013
   5.3800000000000014E-002     1.8641244759106036E-012
   5.4900000000000004E-002     2.5951697088892459E-012
   5.6000000000000022E-002     2.8928825175559019E-012
   5.7100000000000012E-002     2.4933638939567728E-012
   5.8200000000000002E-002     1.2211081505271426E-012
   5.9300000000000019E-002    -9.2747997768692415E-013
   6.0400000000000009E-002    -3.7164930180293621E-012
   6.1500000000000027E-002    -6.6430039587467529E-012
   6.2600000000000017E-002    -8.9707945979513634E-012
   6.3700000000000007E-002    -9.8370984381294062E-012
   6.4800000000000024E-002    -8.4292743979533482E-012
   6.5900000000000014E-002    -4.2104481765064577E-012
   6.7000000000000004E-002     2.8443862014960821E-012
   6.8100000000000022E-002     1.2053919529503659E-011
   6.9200000000000012E-002     2.1936262481060700E-011
   7.0300000000000029E-002     3.0269994297143909E-011
   7.1400000000000019E-002     3.4350557087374902E-011
   7.2500000000000009E-002     3.1454156183567166E-011
   7.3600000000000027E-002     1.9480937398807469E-011
   7.4700000000000016E-002    -2.3010849693452784E-012
   7.5800000000000006E-002    -3.2543770567183616E-011
   7.6900000000000024E-002    -6.7317212713826133E-011
   7.8000000000000014E-002    -1.0002156485106446E-010
   7.9100000000000004E-002    -1.2189940921108559E-010
   8.0200000000000021E-002    -1.2326617367400042E-010
   8.1300000000000011E-002    -9.5447677738048232E-011
   8.2400000000000029E-002    -3.3236315987258426E-011
   8.3500000000000019E-002     6.2521845700771834E-011
   8.4600000000000009E-002     1.8277405337899827E-010
   8.5700000000000026E-002     3.0920953185471780E-010
   8.6800000000000016E-002     4.1495525994147977E-010
   8.7900000000000006E-002     4.6748337159122050E-010
   8.9000000000000024E-002     4.3384954949763302E-010
   9.0100000000000013E-002     2.8790275446165507E-010
   9.1200000000000003E-002     1.8560511061263118E-011
   9.2300000000000021E-002    -3.6227298852999791E-010
   9.3400000000000011E-002    -8.1394392358170950E-010
   9.4500000000000028E-002    -1.2653608983416480E-009
   9.5600000000000018E-002    -1.6190790058936286E-009
   9.6700000000000008E-002    -1.7622328332253987E-009
   9.7800000000000026E-002    -1.5843819962285964E-009
   9.8900000000000016E-002    -1.0010001264696044E-009
  0.10000000000000001          2.0162221441877577E-011
  0.10110000000000002          1.4340517722169068E-009
  0.10220000000000001          3.0999319478639354E-009
  0.10330000000000003          4.7753976016597064E-009
  0.10440000000000002          6.1280366843457554E-009
  0.10550000000000001          6.7683538776276208E-009
  0.10660000000000003          6.3047515516369502E-009
  0.10770000000000002          4.4175221221405546E-009
  0.10880000000000001          9.4433983055064373E-010
  0.10990000000000003         -4.0347265304657964E-009
  0.11100000000000002         -1.0128324621096840E-008
  0.11210000000000001         -1.6598680992685605E-008
  0.11320000000000002         -2.2377308443447455E-008
  0.11430000000000001         -2.6144969815229646E-008
  0.11540000000000003         -2.6482213782057355E-008
  0.11650000000000002         -2.2086529428994348E-008
  0.11760000000000001         -1.2039572034017210E-008
  0.11870000000000003          3.9055309294276126E-009
  0.11980000000000002          2.5059049713526673E-008
  0.12090000000000001          4.9602662252567413E-008
  0.12200000000000003          7.4524305847224966E-008
  0.12310000000000001          9.5728300231661974E-008
  0.12420000000000003          1.0835466741012776E-007
  0.12530000000000002          1.0731783004885233E-007
  0.12640000000000001          8.8043365251630662E-008
  0.12750000000000003          4.7345254348167440E-008
  0.12860000000000002         -1.5650493313500697E-008
  0.12970000000000001         -9.8661495418260298E-008
  0.13080000000000003         -1.9563039225175331E-007
  0.13190000000000002         -2.9648325512677994E-007
  0.13300000000000001         -3.8740101073552572E-007
  0.13410000000000000         -4.5170237350777453E-007
  0.13520000000000004         -4.7137737626959173E-007
  0.13630000000000003         -4.2923255170495273E-007
  0.13740000000000002         -3.1151842674931270E-007
  0.13850000000000001         -1.1081635358455487E-007
  0.13960000000000000          1.7112386074686216E-007
  0.14070000000000005          5.2096903290487436E-007
  0.14180000000000004          9.1221600303071326E-007
  0.14290000000000003          1.3048279288723845E-006
  0.14400000000000002          1.6464274020507823E-006
  0.14510000000000001          1.8752690778056558E-006
  0.14620000000000000          1.9250583070204085E-006
  0.14730000000000004          1.7314936612020615E-006
  0.14840000000000003          1.2402091110951666E-006
  0.14950000000000002          4.1559945007677486E-007
  0.15060000000000001         -7.5014405946207296E-007
  0.15170000000000000         -2.2285572736098528E-006
  0.15280000000000005         -3.9477712827234300E-006
  0.15390000000000004         -5.7874323126970193E-006
  0.15500000000000003         -7.5762048796262674E-006
  0.15610000000000002         -9.0921229113163604E-006
  0.15720000000000001         -1.0065713354433847E-005
  0.15830000000000000         -1.0185430229493514E-005
  0.15940000000000004         -9.1045384276260399E-006
  0.16050000000000003         -6.4482138042503627E-006
  0.16160000000000002         -1.8193170882380529E-006
  0.16270000000000001          5.1989130128967653E-006
  0.16380000000000000          1.5045092818772561E-005
  0.16490000000000005          2.8188654765177856E-005
  0.16600000000000004          4.5147162784893963E-005
  0.16710000000000003          6.6513316493362258E-005
  0.16820000000000002          9.2992601623567716E-005
  0.16930000000000001          1.2545212392037458E-004
  0.17040000000000000          1.6498075032318104E-004
  0.17150000000000004          2.1296032754767637E-004
  0.17260000000000003          2.7114750388458359E-004
  0.17370000000000002          3.4176558570734466E-004
  0.17480000000000001          4.2760594129766347E-004
  0.17590000000000000          5.3213872685534667E-004
  0.17700000000000005          6.5963313616304803E-004
  0.17810000000000004          8.1528792706761087E-004
  0.17920000000000003          1.0053735961341147E-003
  0.18030000000000002          1.2373881856820230E-003
  0.18140000000000001          1.5202292379528758E-003
  0.18250000000000000          1.8643847860965223E-003
  0.18360000000000004          2.2821464292586760E-003
  0.18470000000000003          2.7878474346270921E-003
  0.18580000000000002          3.3981284175817047E-003
  0.18690000000000001          4.1322324654899283E-003
  0.18800000000000000          5.0123306002175291E-003
  0.18910000000000005          6.0638772397379730E-003
  0.19020000000000004          7.3159938488722882E-003
  0.19130000000000003          8.8018772969799645E-003
  0.19240000000000002          1.0559227603879449E-002
  0.19350000000000001          1.2630687794707104E-002
  0.19460000000000005          1.5064286541691094E-002
  0.19570000000000004          1.7913872187291936E-002
  0.19680000000000003          2.1239524656848925E-002
  0.19790000000000002          2.5107929711489455E-002
  0.19900000000000001          2.9592697987324466E-002
  0.20010000000000000          3.4774609331337254E-002
  0.20120000000000005          4.0741761091018014E-002
  0.20230000000000004          4.7589597260389783E-002
  0.20340000000000003          5.5420793758463829E-002
  0.20450000000000002          6.4344973666866215E-002
  0.20560000000000000          7.4478225057924063E-002
  0.20670000000000005          8.5942393209056916E-002
  0.20780000000000004          9.8864118657776667E-002
  0.20890000000000003         0.11337359285931548
