 -0.12000000000000000          0.0000000000000000
 -0.11889999999999999          0.0000000000000000
 -0.11780000000000000          0.0000000000000000
 -0.11670000000000000          0.0000000000000000
 -0.11559999999999999          0.0000000000000000
 -0.11449999999999999          0.0000000000000000
 -0.11340000000000000          0.0000000000000000
 -0.11230000000000000          0.0000000000000000
 -0.11119999999999999          0.0000000000000000
 -0.11009999999999999         -1.7636965760120740E-019
 -0.10900000000000000         -2.1922075465796087E-018
 -0.10790000000000000         -1.3256773100942777E-017
 -0.10679999999999999         -5.0605751704358076E-017
 -0.10569999999999999         -1.3023869326750248E-016
 -0.10460000000000000         -2.1021889990513343E-016
 -0.10349999999999999         -8.8252564184362147E-017
 -0.10239999999999999          6.2715442525297619E-016
 -0.10130000000000000          2.1966316255095659E-015
 -0.10020000000000000          3.8723017214558064E-015
  -9.9099999999999994E-002     2.8900061431736676E-015
  -9.7999999999999990E-002    -5.1047824743566733E-015
  -9.6899999999999986E-002    -2.2087594289832272E-014
  -9.5799999999999996E-002    -4.0010863117742722E-014
  -9.4699999999999993E-002    -3.4819439105771900E-014
  -9.3599999999999989E-002     2.6486190134528127E-014
  -9.2499999999999999E-002     1.5555377044415001E-013
  -9.1399999999999995E-002     2.9569434166281961E-013
  -9.0299999999999991E-002     2.9508768611499394E-013
  -8.9200000000000002E-002    -4.0755702425398915E-014
  -8.8099999999999984E-002    -7.8105347944226733E-013
  -8.6999999999999994E-002    -1.6416760830012073E-012
  -8.5899999999999990E-002    -1.8812725492248352E-012
  -8.4799999999999986E-002    -5.6646066804107610E-013
  -8.3699999999999997E-002     2.6915480378563705E-012
  -8.2599999999999993E-002     6.8151385336908365E-012
  -8.1499999999999989E-002     8.8966821308173008E-012
  -8.0399999999999999E-002     5.2553454027264992E-012
  -7.9299999999999995E-002    -5.8568242039512957E-012
  -7.8199999999999992E-002    -2.1064858396210223E-011
  -7.7100000000000002E-002    -3.0783027688686556E-011
  -7.5999999999999984E-002    -2.2916354690095549E-011
  -7.4899999999999994E-002     8.3132148915737109E-012
  -7.3799999999999991E-002     5.2563069984812065E-011
  -7.2699999999999987E-002     8.0789768507186305E-011
  -7.1599999999999997E-002     5.7664306857232784E-011
  -7.0499999999999993E-002    -3.1064124132384160E-011
  -6.9399999999999989E-002    -1.4981920512047946E-010
  -6.8300000000000000E-002    -2.0785808068755301E-010
  -6.7199999999999996E-002    -9.9548743093899035E-011
  -6.6099999999999992E-002     2.1134976357764938E-010
  -6.5000000000000002E-002     6.0423570906545413E-010
  -6.3899999999999985E-002     7.8368210176684711E-010
  -6.2799999999999995E-002     3.9640441757244864E-010
  -6.1699999999999991E-002    -7.1720011181450157E-010
  -6.0599999999999994E-002    -2.2463398523775486E-009
  -5.9499999999999990E-002    -3.3097560249596927E-009
  -5.8399999999999994E-002    -2.7270326958470590E-009
  -5.7299999999999990E-002     3.0505962563413487E-010
  -5.6199999999999986E-002     5.3804691671735788E-009
  -5.5099999999999996E-002     1.0407346630719817E-008
  -5.3999999999999992E-002     1.2033735798417303E-008
  -5.2899999999999989E-002     7.1816403302780436E-009
  -5.1799999999999985E-002    -4.7730153608052377E-009
  -5.0699999999999995E-002    -2.0324276659264364E-008
  -4.9599999999999991E-002    -3.2041686146327293E-008
  -4.8499999999999988E-002    -3.1419478136240927E-008
  -4.7399999999999998E-002    -1.3699874169567484E-008
  -4.6299999999999994E-002     1.7632188426459482E-008
  -4.5199999999999990E-002     4.9782455154426605E-008
  -4.4099999999999986E-002     6.5144542495959110E-008
  -4.2999999999999997E-002     5.0657535181899541E-008
  -4.1899999999999993E-002     7.7398688954808159E-009
  -4.0799999999999989E-002    -4.3667390219610836E-008
  -3.9699999999999985E-002    -7.2098320710709609E-008
  -3.8599999999999995E-002    -5.2338113870757978E-008
  -3.7499999999999992E-002     1.3838696383858414E-008
  -3.6399999999999988E-002     8.7222182888101681E-008
  -3.5299999999999984E-002     1.0297183669817186E-007
  -3.4199999999999994E-002     6.5946826070121749E-009
  -3.3099999999999991E-002    -1.9971293937333874E-007
  -3.1999999999999987E-002    -4.2746165085032615E-007
  -3.0899999999999997E-002    -5.1706702163278772E-007
  -2.9799999999999993E-002    -3.0872769917038020E-007
  -2.8699999999999989E-002     2.5177086802244707E-007
  -2.7599999999999986E-002     1.0246018206881547E-006
  -2.6499999999999996E-002     1.6682339126785504E-006
  -2.5399999999999992E-002     1.7516979317368074E-006
  -2.4299999999999988E-002     9.6768748342511788E-007
  -2.3199999999999985E-002    -6.4136113451114558E-007
  -2.2099999999999995E-002    -2.5728277758214549E-006
  -2.0999999999999991E-002    -3.9754466999565918E-006
  -1.9899999999999987E-002    -3.9952157822638882E-006
  -1.8799999999999983E-002    -2.2346293225415645E-006
  -1.7699999999999994E-002     9.0168243653037900E-007
  -1.6599999999999990E-002     4.2075469667872835E-006
  -1.5499999999999986E-002     6.1245541513777648E-006
  -1.4399999999999996E-002     5.5111596564808183E-006
  -1.3299999999999992E-002     2.3765404765247906E-006
  -1.2199999999999989E-002    -1.8600912501847013E-006
  -1.1099999999999985E-002    -4.8724929839500660E-006
  -9.9999999999999950E-003    -4.6116787996203281E-006
  -8.8999999999999913E-003    -6.5843317429570320E-007
  -7.7999999999999875E-003     5.0255458166629038E-006
  -6.6999999999999837E-003     8.5922054733000330E-006
  -5.5999999999999939E-003     6.1431728486311214E-006
  -4.4999999999999901E-003    -3.7717723986157596E-006
  -3.3999999999999864E-003    -1.8284285414852325E-005
  -2.2999999999999826E-003    -3.0294456590760540E-005
  -1.1999999999999927E-003    -3.1116114649240620E-005
  -9.9999999999988987E-005    -1.4980832970327639E-005
   1.0000000000000148E-003     1.6588370238865002E-005
   2.1000000000000185E-003     5.3057628499291345E-005
   3.2000000000000084E-003     7.7600678731829206E-005
   4.3000000000000121E-003     7.4083044155246586E-005
   5.4000000000000159E-003     3.5732874344366456E-005
   6.5000000000000058E-003    -2.8716420309712860E-005
   7.6000000000000234E-003    -9.5379053616936936E-005
   8.7000000000000133E-003    -1.3355155582488244E-004
   9.8000000000000032E-003    -1.1960048376440135E-004
   1.0900000000000021E-002    -5.0414233537576412E-005
   1.2000000000000011E-002     5.0747331896190294E-005
   1.3100000000000001E-002     1.4076292752679916E-004
   1.4200000000000018E-002     1.7475968908313455E-004
   1.5300000000000008E-002     1.2872167559751840E-004
   1.6400000000000026E-002     1.5580695287658092E-005
   1.7500000000000016E-002    -1.1506327881924824E-004
   1.8600000000000005E-002    -1.9672881066591519E-004
   1.9700000000000023E-002    -1.7865527692173769E-004
   2.0800000000000013E-002    -5.6242707808122844E-005
   2.1900000000000003E-002     1.1758457291091381E-004
   2.3000000000000020E-002     2.5020529571385952E-004
   2.4100000000000010E-002     2.5274335899445020E-004
   2.5200000000000000E-002     9.0916077631200589E-005
   2.6300000000000018E-002    -1.8280408217016212E-004
   2.7400000000000008E-002    -4.3730434479972020E-004
   2.8500000000000025E-002    -5.1578490661382474E-004
   2.9600000000000015E-002    -3.1509541457853940E-004
   3.0700000000000005E-002     1.4496662077964479E-004
   3.1800000000000023E-002     7.0119180759544992E-004
   3.2900000000000013E-002     1.0965672611876530E-003
   3.4000000000000002E-002     1.0890403479912718E-003
   3.5100000000000020E-002     5.7578645395611825E-004
   3.6200000000000010E-002    -3.2705373328615885E-004
   3.7300000000000028E-002    -1.2977364678855507E-003
   3.8400000000000017E-002    -1.9255436273891008E-003
   3.9500000000000007E-002    -1.8905256702093241E-003
   4.0600000000000025E-002    -1.1277211290846216E-003
   4.1700000000000015E-002     1.0778630115031596E-004
   4.2800000000000005E-002     1.3221095136422834E-003
   4.3900000000000022E-002     1.9911818917372893E-003
   4.5000000000000012E-002     1.8111934865211448E-003
   4.6100000000000002E-002     8.7175439128959076E-004
   4.7200000000000020E-002    -3.4570086004139319E-004
   4.8300000000000010E-002    -1.1678265107209023E-003
   4.9400000000000027E-002    -1.0546700869253599E-003
   5.0500000000000017E-002     9.6107762193865443E-005
   5.1600000000000007E-002     1.8228708083725613E-003
   5.2700000000000025E-002     3.2413496005284179E-003
   5.3800000000000014E-002     3.4224292721869894E-003
   5.4900000000000004E-002     1.8531821342820381E-003
   5.6000000000000022E-002    -1.2341149055858697E-003
   5.7100000000000012E-002    -4.8439254042476265E-003
   5.8200000000000002E-002    -7.5604318799513612E-003
   5.9300000000000019E-002    -8.1327269153260683E-003
   6.0400000000000009E-002    -6.0530056734161902E-003
   6.1500000000000027E-002    -1.8549441720558399E-003
   6.2600000000000017E-002     3.0344442788251495E-003
   6.3700000000000007E-002     6.8590320539200708E-003
   6.4800000000000024E-002     8.2826671786189968E-003
   6.5900000000000014E-002     6.9851907217307954E-003
   6.7000000000000004E-002     3.8152245198892500E-003
   6.8100000000000022E-002     4.0170109792236376E-004
   6.9200000000000012E-002    -1.6195299177789559E-003
   7.0300000000000029E-002    -1.4107174750719895E-003
   7.1400000000000019E-002     6.2302328986137807E-004
   7.2500000000000009E-002     2.9904536111359588E-003
   7.3600000000000027E-002     3.8341929232864488E-003
   7.4700000000000016E-002     1.8955503424165677E-003
   7.5800000000000006E-002    -2.7371201618091520E-003
   7.6900000000000024E-002    -8.4841195564668501E-003
   7.8000000000000014E-002    -1.2853509575228718E-002
   7.9100000000000004E-002    -1.3519815802251469E-002
   8.0200000000000021E-002    -9.4240570297051476E-003
   8.1300000000000011E-002    -1.3801440017094529E-003
   8.2400000000000029E-002     8.1177428023648419E-003
   8.3500000000000019E-002     1.5827913991811691E-002
   8.4600000000000009E-002     1.9028036532918121E-002
   8.5700000000000026E-002     1.6550021563064784E-002
   8.6800000000000016E-002     9.1268914188309003E-003
   8.7900000000000006E-002    -1.0733669626139858E-003
   8.9000000000000024E-002    -1.1460999603978362E-002
   9.0100000000000013E-002    -2.0063056615771371E-002
   9.1200000000000003E-002    -2.6075775518770595E-002
   9.2300000000000021E-002    -2.9691968946690222E-002
   9.3400000000000011E-002    -3.1360444286212798E-002
   9.4500000000000028E-002    -3.0945968034089739E-002
   9.5600000000000018E-002    -2.7317061725583361E-002
   9.6700000000000008E-002    -1.8656531012232760E-002
   9.7800000000000026E-002    -3.3833200090901340E-003
   9.8900000000000016E-002     1.8789407946678716E-002
  0.10000000000000001          4.6252997870732775E-002
  0.10110000000000002          7.5745838216730796E-002
  0.10220000000000001         0.10339329022977702
  0.10330000000000003         0.12606648869982376
  0.10440000000000002         0.14239326999098864
  0.10550000000000001         0.15293244060204894
  0.10660000000000003         0.15949107031449389
  0.10770000000000002         0.16407600179135201
  0.10880000000000001         0.16823021705390817
  0.10990000000000003         0.17333162365407820
  0.11100000000000002         0.18187454845663462
  0.11210000000000001         0.19908829057901631
  0.11320000000000002         0.23384714929275918
  0.11430000000000001         0.29796888204381228
  0.11540000000000003         0.40369589388781851
  0.11650000000000002         0.56011288878718213
  0.11760000000000001         0.76999824769474223
  0.11870000000000003          1.0287042662113879
  0.11980000000000002          1.3259665770420399
  0.12090000000000001          1.6503025982926463
  0.12200000000000003          1.9944301660737136
  0.12310000000000001          2.3595344173247303
  0.12420000000000003          2.7565945386856350
  0.12530000000000002          3.2042516127423983
  0.12640000000000001          3.7243004679329617
  0.12750000000000003          4.3370549400106215
  0.12860000000000002          5.0589557898703506
  0.12970000000000001          5.9037281082510562
  0.13080000000000003          6.8865955830457288
  0.13190000000000002          8.0293689751023383
  0.13300000000000001          9.3634995356243493
  0.13410000000000000          10.928862055967210
  0.13520000000000004          12.767882979393882
  0.13630000000000003          14.916840999753234
  0.13740000000000002          17.397699492517980
  0.13850000000000001          20.213911088692484
  0.13960000000000000          23.352151143898041
  0.14070000000000005          26.789513442629090
  0.14180000000000004          30.503424303165179
  0.14290000000000003          34.480437485905576
  0.14400000000000002          38.720651752046770
  0.14510000000000001          43.236447771032111
  0.14620000000000000          48.046628451324871
  0.14730000000000004          53.168739078465627
  0.14840000000000003          58.612581488959329
  0.14950000000000002          64.376698054750136
  0.15060000000000001          70.447601115295996
  0.15170000000000000          76.799839446808747
  0.15280000000000005          83.394510512048882
  0.15390000000000004          90.174783251424756
  0.15500000000000003          97.058863922240008
  0.15610000000000002          103.93260690434556
  0.15720000000000001          110.64468629785181
  0.15830000000000000          117.00650723767912
  0.15940000000000004          122.79722652126588
  0.16050000000000003          127.77231988471397
  0.16160000000000002          131.67308597089803
  0.16270000000000001          134.23482943813784
  0.16380000000000000          135.19295067878190
  0.16490000000000005          134.28787548563037
  0.16600000000000004          131.27063414125826
  0.16710000000000003          125.91035660427845
  0.16820000000000002          118.00323239120929
  0.16930000000000001          107.38058274110017
  0.17040000000000000          93.912833882165486
  0.17150000000000004          77.507130974607207
  0.17260000000000003          58.098911858043209
  0.17370000000000002          35.640835192547407
  0.17480000000000001          10.094463796520307
  0.17590000000000000         -18.570148003151886
  0.17700000000000005         -50.364466909516295
  0.17810000000000004         -85.262580979591448
  0.17920000000000003         -123.17836509416283
  0.18030000000000002         -163.94500407123954
  0.18140000000000001         -207.30164304202276
  0.18250000000000000         -252.88832673496009
  0.18360000000000004         -300.24654783450609
  0.18470000000000003         -348.82068259249695
  0.18580000000000002         -397.95651032769138
  0.18690000000000001         -446.89651673856696
  0.18800000000000000         -494.77597389470037
  0.18910000000000005         -540.62651283834555
  0.19020000000000004         -583.39335730581831
  0.19130000000000003         -621.96844337363029
  0.19240000000000002         -655.23594856087584
  0.19350000000000001         -682.12195263087017
  0.19460000000000005         -701.63842030579360
  0.19570000000000004         -712.91431373375951
  0.19680000000000003         -715.21225913891021
  0.19790000000000002         -707.93513513014204
  0.19900000000000001         -690.63031090514062
  0.20010000000000000         -662.99835497257334
  0.20120000000000005         -624.90830430531605
  0.20230000000000004         -576.41544948564524
  0.20340000000000003         -517.77331091812823
  0.20450000000000002         -449.43151568833895
  0.20560000000000000         -372.01602954914841
  0.20670000000000005         -286.29567753241889
  0.20780000000000004         -193.14562206998048
  0.20890000000000003         -93.521099416989998
