 -0.12000000000000000          0.0000000000000000
 -0.11889999999999999          0.0000000000000000
 -0.11780000000000000          0.0000000000000000
 -0.11670000000000000          0.0000000000000000
 -0.11559999999999999          0.0000000000000000
 -0.11449999999999999          0.0000000000000000
 -0.11340000000000000          0.0000000000000000
 -0.11230000000000000          0.0000000000000000
 -0.11119999999999999          0.0000000000000000
 -0.11009999999999999          0.0000000000000000
 -0.10900000000000000          5.8730712870503616E-183
 -0.10790000000000000          8.0434776515766677E-141
 -0.10679999999999999         -1.7252677518503826E-115
 -0.10569999999999999         -2.7672137939773552E-090
 -0.10460000000000000         -5.3904269436107111E-066
 -0.10349999999999999         -2.4265532259484121E-042
 -0.10239999999999999         -4.2554914422554949E-041
 -0.10130000000000000         -3.4196673501248032E-040
 -0.10020000000000000         -1.5733278138442824E-039
  -9.9099999999999994E-002    -3.8235150338795093E-039
  -9.7999999999999990E-002     9.3062139622879770E-040
  -9.6899999999999986E-002     4.6693954107893441E-038
  -9.5799999999999996E-002     1.8845893996919211E-037
  -9.4699999999999993E-002     3.3919326251368102E-037
  -9.3599999999999989E-002    -2.2123673981486458E-037
  -9.2499999999999999E-002    -3.2674146165390161E-036
  -9.1399999999999995E-002    -9.7914588324283951E-036
  -9.0299999999999991E-002    -1.2075529425758990E-035
  -8.9200000000000002E-002     1.8944347374050876E-035
  -8.8099999999999984E-002     1.2753134048879935E-034
  -8.6999999999999994E-002     2.9247382931956001E-034
  -8.5899999999999990E-002     2.3560700439135076E-034
  -8.4799999999999986E-002    -7.2408400012370530E-034
  -8.3699999999999997E-002    -3.2125210325827842E-033
  -8.2599999999999993E-002    -5.9712591423798104E-033
  -8.1499999999999989E-002    -2.9714713356589470E-033
  -8.0399999999999999E-002     1.6749606007807491E-032
  -7.9299999999999995E-002     5.8350018918716512E-032
  -7.8199999999999992E-002     9.3304530051816361E-032
  -7.7100000000000002E-002     2.8416269691296285E-032
  -7.5999999999999984E-002    -2.7241205208269345E-031
  -7.4899999999999994E-002    -8.2643325865239954E-031
  -7.3799999999999991E-002    -1.2066971089896912E-030
  -7.2699999999999987E-002    -2.8051486263480643E-031
  -7.1599999999999997E-002     3.3717629746274935E-030
  -7.0499999999999993E-002     9.6082578912762645E-030
  -6.9399999999999989E-002     1.3569684273312668E-029
  -6.8300000000000000E-002     3.7576283135859414E-030
  -6.7199999999999996E-002    -3.3070976796820100E-029
  -6.6099999999999992E-002    -9.4571887782986160E-029
  -6.5000000000000002E-002    -1.3594507308619467E-028
  -6.3899999999999985E-002    -5.6044783807682799E-029
  -6.2799999999999995E-002     2.5966779245882805E-028
  -6.1699999999999991E-002     7.9997048100619553E-028
  -6.0599999999999994E-002     1.2203191362859457E-027
  -5.9499999999999990E-002     7.3468476614184977E-028
  -5.8399999999999994E-002    -1.5839212544028097E-027
  -5.7299999999999990E-002    -5.8253302604458598E-027
  -5.6199999999999986E-002    -9.7660016811256055E-027
  -5.5099999999999996E-002    -7.9766445176920940E-027
  -5.3999999999999992E-002     6.4967336096028349E-027
  -5.2899999999999989E-002     3.6068919646333586E-026
  -5.1799999999999985E-002     6.8948261528399936E-026
  -5.0699999999999995E-002     7.1953896088390714E-026
  -4.9599999999999991E-002    -2.4635674185933455E-027
  -4.8499999999999988E-002    -1.8324276605919991E-025
  -4.7399999999999998E-002    -4.2294509502997624E-025
  -4.6299999999999994E-002    -5.4485393287588970E-025
  -4.5199999999999990E-002    -2.5777466403442008E-025
  -4.4099999999999986E-002     6.8987278753527755E-025
  -4.2999999999999997E-002     2.1996252538480502E-024
  -4.1899999999999993E-002     3.4772910402078084E-024
  -4.0799999999999989E-002     2.9546149531951281E-024
  -3.9699999999999985E-002    -1.1233379740810522E-024
  -3.8599999999999995E-002    -9.2277548366714032E-024
  -3.7499999999999992E-002    -1.8569917757834934E-023
  -3.6399999999999988E-002    -2.1899277550448083E-023
  -3.5299999999999984E-002    -9.0602339176761884E-024
  -3.4199999999999994E-002     2.7059626737212474E-023
  -3.3099999999999991E-002     8.0757060013978571E-023
  -3.1999999999999987E-002     1.2448194781705540E-022
  -3.0899999999999997E-002     1.0922474937354808E-022
  -2.9799999999999993E-002    -1.6225806381490009E-023
  -2.8699999999999989E-002    -2.6422155079535184E-022
  -2.7599999999999986E-002    -5.5785156666052882E-022
  -2.6499999999999996E-002    -7.0360477672278426E-022
  -2.5399999999999992E-002    -4.3191364960639023E-022
  -2.4299999999999988E-002     4.6177658934573201E-022
  -2.3199999999999985E-002     1.8922145443755567E-021
  -2.2099999999999995E-002     3.2738242192265804E-021
  -2.0999999999999991E-002     3.5002703730629404E-021
  -1.9899999999999987E-002     1.3015836171096749E-021
  -1.8799999999999983E-002    -3.9537190658319239E-021
  -1.7699999999999994E-002    -1.1217111108560559E-020
  -1.6599999999999990E-002    -1.7036016790110756E-020
  -1.5499999999999986E-002    -1.5941308923621574E-020
  -1.4399999999999996E-002    -2.6006098292800191E-021
  -1.3299999999999992E-002     2.4324434474993661E-020
  -1.2199999999999989E-002     5.7917718397955667E-020
  -1.1099999999999985E-002     8.0949873644168230E-020
  -9.9999999999999950E-003     6.9150999987811754E-020
  -8.8999999999999913E-003     1.7570285823578493E-021
  -7.7999999999999875E-003    -1.2208862243628430E-019
  -6.6999999999999837E-003    -2.6737762242233451E-019
  -5.5999999999999939E-003    -3.5832491643159416E-019
  -4.4999999999999901E-003    -2.9566046638871676E-019
  -3.3999999999999864E-003    -1.1797998808228022E-021
  -2.2999999999999826E-003     5.1881005329572290E-019
  -1.1999999999999927E-003     1.1167917415395580E-018
  -9.9999999999988987E-005     1.4928417814199789E-018
   1.0000000000000148E-003     1.2661012863192371E-018
   2.1000000000000185E-003     1.4152255853054104E-019
   3.2000000000000084E-003    -1.8627482229256813E-018
   4.3000000000000121E-003    -4.2183453653777236E-018
   5.4000000000000159E-003    -5.8497834643324775E-018
   6.5000000000000058E-003    -5.3767135839656410E-018
   7.6000000000000234E-003    -1.6719262604129060E-018
   8.7000000000000133E-003     5.3774681934742109E-018
   9.8000000000000032E-003     1.4190511492917195E-017
   1.0900000000000021E-002     2.1296103291507251E-017
   1.2000000000000011E-002     2.1993148238451323E-017
   1.3100000000000001E-002     1.2007252921573489E-017
   1.4200000000000018E-002    -1.0138851085612376E-017
   1.5300000000000008E-002    -4.0820656845067125E-017
   1.6400000000000026E-002    -7.0217440749057797E-017
   1.7500000000000016E-002    -8.3570896638754013E-017
   1.8600000000000005E-002    -6.5405801256599244E-017
   1.9700000000000023E-002    -6.2628793341305662E-018
   2.0800000000000013E-002     8.9844111149462854E-017
   2.1900000000000003E-002     2.0018619084829334E-016
   2.3000000000000020E-002     2.8362584242605341E-016
   2.4100000000000010E-002     2.8897246490606401E-016
   2.5200000000000000E-002     1.7167072270458270E-016
   2.6300000000000018E-002    -8.4158059265747905E-017
   2.7400000000000008E-002    -4.4475992865465094E-016
   2.8500000000000025E-002    -8.1573714266350625E-016
   2.9600000000000015E-002    -1.0499208110036261E-015
   3.0700000000000005E-002    -9.7984509759894350E-016
   3.1800000000000023E-002    -4.7383172364437402E-016
   3.2900000000000013E-002     4.9458320639913105E-016
   3.4000000000000002E-002     1.7838340690745191E-015
   3.5100000000000020E-002     3.0549488864187895E-015
   3.6200000000000010E-002     3.8027772222668521E-015
   3.7300000000000028E-002     3.4655849588476822E-015
   3.8400000000000017E-002     1.6102996489536715E-015
   3.9500000000000007E-002    -1.8388345444314821E-015
   4.0600000000000025E-002    -6.3925543431477942E-015
   4.1700000000000015E-002    -1.0898098080755183E-014
   4.2800000000000005E-002    -1.3640632445094693E-014
   4.3900000000000022E-002    -1.2704418149806163E-014
   4.5000000000000012E-002    -6.5847730645130474E-015
   4.6100000000000002E-002     5.0567839183500069E-015
   4.7200000000000020E-002     2.0706583306604862E-014
   4.8300000000000010E-002     3.6667666031711994E-014
   4.9400000000000027E-002     4.7368174655099200E-014
   5.0500000000000017E-002     4.6486189890296860E-014
   5.1600000000000007E-002     2.8847642080656566E-014
   5.2700000000000025E-002    -7.2436601256561830E-015
   5.3800000000000014E-002    -5.7881171551198596E-014
   5.4900000000000004E-002    -1.1245985044592559E-013
   5.6000000000000022E-002    -1.5440204656405133E-013
   5.7100000000000012E-002    -1.6418011273186687E-013
   5.8200000000000002E-002    -1.2451736629508948E-013
   5.9300000000000019E-002    -2.6888609035042379E-014
   6.0400000000000009E-002     1.2228708688524624E-013
   6.1500000000000027E-002     2.9781929879044676E-013
   6.2600000000000017E-002     4.5629200312492852E-013
   6.3700000000000007E-002     5.4231241813221778E-013
   6.4800000000000024E-002     5.0052540692972028E-013
   6.5900000000000014E-002     2.9181327366147987E-013
   6.7000000000000004E-002    -8.9548680450450777E-014
   6.8100000000000022E-002    -6.0222277250264875E-013
   6.9200000000000012E-002    -1.1524270889130126E-012
   7.0300000000000029E-002    -1.6008675746709035E-012
   7.1400000000000019E-002    -1.7840353175708579E-012
   7.2500000000000009E-002    -1.5489353440496017E-012
   7.3600000000000027E-002    -7.9675987448588469E-013
   7.4700000000000016E-002     4.7245632617835330E-013
   7.5800000000000006E-002     2.1247852868935106E-012
   7.6900000000000024E-002     3.8785283331698770E-012
   7.8000000000000014E-002     5.3217441515704657E-012
   7.9100000000000004E-002     5.9673647146669895E-012
   8.0200000000000021E-002     5.3453727330850691E-012
   8.1300000000000011E-002     3.1228016831624193E-012
   8.2400000000000029E-002    -7.6707833822073548E-013
   8.3500000000000019E-002    -6.0132033553098595E-012
   8.4600000000000009E-002    -1.1864326691110140E-011
   8.5700000000000026E-002    -1.7146484499317941E-011
   8.6800000000000016E-002    -2.0383079120680260E-011
   8.7900000000000006E-002    -2.0025013021481820E-011
   8.9000000000000024E-002    -1.4776728912680099E-011
   9.0100000000000013E-002    -3.9789364436651532E-012
   9.1200000000000003E-002     1.2015653942490235E-011
   9.2300000000000021E-002     3.1556125887177881E-011
   9.3400000000000011E-002     5.1587278772289481E-011
   9.4500000000000028E-002     6.7806910814216827E-011
   9.5600000000000018E-002     7.5143645317103684E-011
   9.6700000000000008E-002     6.8566695844086052E-011
   9.7800000000000026E-002     4.4175526137377043E-011
   9.8900000000000016E-002     4.4233623602110987E-013
  0.10000000000000001         -6.0595656048605781E-011
  0.10110000000000002         -1.3245896388622485E-010
  0.10220000000000001         -2.0395781945286844E-010
  0.10330000000000003         -2.5980608212456679E-010
  0.10440000000000002         -2.8230295174733778E-010
  0.10550000000000001         -2.5411137428944383E-010
  0.10660000000000003         -1.6194421786096092E-010
  0.10770000000000002         -7.1728271156753632E-013
  0.10880000000000001          2.2251484390920201E-010
  0.10990000000000003          4.8570354068179105E-010
  0.11100000000000002          7.5095408325571801E-010
  0.11210000000000001          9.6649130959491981E-010
  0.11320000000000002          1.0719580163974224E-009
  0.11430000000000001          1.0070777815732068E-009
  0.11540000000000003          7.2309169033966488E-010
  0.11650000000000002          1.9569749747772798E-010
  0.11760000000000001         -5.6241256119298796E-010
  0.11870000000000003         -1.4917818155110896E-009
  0.11980000000000002         -2.4817290322787654E-009
  0.12090000000000001         -3.3735320937475236E-009
  0.12200000000000003         -3.9729408385513037E-009
  0.12310000000000001         -4.0726121791208653E-009
  0.12420000000000003         -3.4835875127554414E-009
  0.12530000000000002         -2.0732129451184278E-009
  0.12640000000000001          1.9485870804829808E-010
  0.12750000000000003          3.2244865431698258E-009
  0.12860000000000002          6.7616083256783585E-009
  0.12970000000000001          1.0386698199373836E-008
  0.13080000000000003          1.3531419064568690E-008
  0.13190000000000002          1.5523735394812114E-008
  0.13300000000000001          1.5662519562075438E-008
  0.13410000000000000          1.3318446281355214E-008
  0.13520000000000004          8.0531149894919554E-009
  0.13630000000000003         -2.5655365001544039E-010
  0.13740000000000002         -1.1305811804964359E-008
  0.13850000000000001         -2.4281371793820448E-008
  0.13960000000000000         -3.7832898056400032E-008
  0.14070000000000005         -5.0114791329673030E-008
  0.14180000000000004         -5.8910869148479679E-008
  0.14290000000000003         -6.1845961207351615E-008
  0.14400000000000002         -5.6677266138461906E-008
  0.14510000000000001         -4.1645551760302478E-008
  0.14620000000000000         -1.5853347103991179E-008
  0.14730000000000004          2.0374098531877163E-008
  0.14840000000000003          6.5197279671495935E-008
  0.14950000000000002          1.1509534214461304E-007
  0.15060000000000001          1.6487479205330435E-007
  0.15170000000000000          2.0789445470277233E-007
  0.15280000000000005          2.3652899743591503E-007
  0.15390000000000004          2.4286886754815226E-007
  0.15500000000000003          2.1962548074183408E-007
  0.15610000000000002          1.6117949284166358E-007
  0.15720000000000001          6.4680182089204526E-008
  0.15830000000000000         -6.8921081552054506E-008
  0.15940000000000004         -2.3403697828268935E-007
  0.16050000000000003         -4.1994866182514949E-007
  0.16160000000000002         -6.1077776893880333E-007
  0.16270000000000001         -7.8603007649918268E-007
  0.16380000000000000         -9.2177367009904769E-007
  0.16490000000000005         -9.9245899788745150E-007
  0.16600000000000004         -9.7332191547660156E-007
  0.16710000000000003         -8.4323905354682926E-007
  0.16820000000000002         -5.8783424682227686E-007
  0.16930000000000001         -2.0257288251372566E-007
  0.17040000000000000          3.0446452100946734E-007
  0.17150000000000004          9.1046054773618359E-007
  0.17260000000000003          1.5767158725019971E-006
  0.17370000000000002          2.2487684715012555E-006
  0.17480000000000001          2.8579956213527283E-006
  0.17590000000000000          3.3248200397287887E-006
  0.17700000000000005          3.5635222654878398E-006
  0.17810000000000004          3.4885292119809640E-006
  0.17920000000000003          3.0219151582539489E-006
  0.18030000000000002          2.1017290950515304E-006
  0.18140000000000001          6.9066450235294560E-007
  0.18250000000000000         -1.2154733392220764E-006
  0.18360000000000004         -3.5800611880155880E-006
  0.18470000000000003         -6.3192309339274256E-006
  0.18580000000000002         -9.2971419193931864E-006
  0.18690000000000001         -1.2323218169609573E-005
  0.18800000000000000         -1.5151411824692272E-005
  0.18910000000000005         -1.7481310099370611E-005
  0.19020000000000004         -1.8960633858091535E-005
  0.19130000000000003         -1.9188398486829702E-005
  0.19240000000000002         -1.7717740751388370E-005
  0.19350000000000001         -1.4057177246466434E-005
  0.19460000000000005         -7.6688674911844621E-006
  0.19570000000000004          2.0376793518278749E-006
  0.19680000000000003          1.5718083249705375E-005
  0.19790000000000002          3.4113388040965066E-005
  0.19900000000000001          5.8079743978412321E-005
  0.20010000000000000          8.8628945307713352E-005
  0.20120000000000005          1.2698115979230742E-004
  0.20230000000000004          1.7463105541610485E-004
  0.20340000000000003          2.3342842226392553E-004
  0.20450000000000002          3.0567432904390825E-004
  0.20560000000000000          3.9423386371768821E-004
  0.20670000000000005          5.0266659932654209E-004
  0.20780000000000004          6.3537610404635432E-004
  0.20890000000000003          7.9778007426107092E-004
