 -0.12000000000000000          0.0000000000000000
 -0.11889999999999999          0.0000000000000000
 -0.11780000000000000          0.0000000000000000
 -0.11670000000000000          0.0000000000000000
 -0.11559999999999999          0.0000000000000000
 -0.11449999999999999          0.0000000000000000
 -0.11340000000000000          0.0000000000000000
 -0.11230000000000000          0.0000000000000000
 -0.11119999999999999          0.0000000000000000
 -0.11009999999999999          0.0000000000000000
 -0.10900000000000000          0.0000000000000000
 -0.10790000000000000          0.0000000000000000
 -0.10679999999999999          0.0000000000000000
 -0.10569999999999999          0.0000000000000000
 -0.10460000000000000          0.0000000000000000
 -0.10349999999999999          7.9540176532174498E-206
 -0.10239999999999999          6.8810007900917313E-181
 -0.10130000000000000         -1.7347210195742748E-155
 -0.10020000000000000          8.3731689777104085E-131
  -9.9099999999999994E-002     1.3989947362050635E-105
  -9.7999999999999990E-002     3.4832763929908215E-081
  -9.6899999999999986E-002     2.1197726575146646E-057
  -9.5799999999999996E-002     4.6833206629747077E-056
  -9.4699999999999993E-002     4.8217998662859023E-055
  -9.3599999999999989E-002     2.9617575015092515E-054
  -9.2499999999999999E-002     1.1101411100015382E-053
  -9.1399999999999995E-002     1.8258521133437121E-053
  -9.0299999999999991E-002    -5.6581723524944262E-053
  -8.9200000000000002E-002    -4.9451811446646553E-052
  -8.8099999999999984E-002    -1.6003221310860677E-051
  -8.6999999999999994E-002    -1.8489097906785657E-051
  -8.5899999999999990E-002     7.2064273163305101E-051
  -8.4799999999999986E-002     4.3506773647963786E-050
  -8.3699999999999997E-002     1.0466664771547684E-049
  -8.2599999999999993E-002     5.2943360468542251E-050
  -8.1499999999999989E-002    -5.4946386614930665E-049
  -8.0399999999999999E-002    -2.2201939192983142E-048
  -7.9299999999999995E-002    -3.8913582803237167E-048
  -7.8199999999999992E-002     7.8731885760237061E-049
  -7.7100000000000002E-002     2.5071505414379058E-047
  -7.5999999999999984E-002     7.4109844202300179E-047
  -7.4899999999999994E-002     9.3733623852596026E-047
  -7.3799999999999991E-002    -9.9473509135101581E-047
  -7.2699999999999987E-002    -7.6718337655602170E-046
  -7.1599999999999997E-002    -1.7829358945953618E-045
  -7.0499999999999993E-002    -1.5885094036622556E-045
  -6.9399999999999989E-002     3.5799712825605492E-045
  -6.8300000000000000E-002     1.7298837919692459E-044
  -6.7199999999999996E-002     3.3353071379647535E-044
  -6.6099999999999992E-002     2.0117826750817852E-044
  -6.5000000000000002E-002    -8.2153177481939393E-044
  -6.3899999999999985E-002    -3.0752986585498668E-043
  -6.2799999999999995E-002    -5.1477977876252010E-043
  -6.1699999999999991E-002    -2.0345423703250871E-043
  -6.0599999999999994E-002     1.4081316083869548E-042
  -5.9499999999999990E-002     4.5228790752968176E-042
  -5.8399999999999994E-002     6.8637118630301324E-042
  -5.7299999999999990E-002     1.8713199629494596E-042
  -5.6199999999999986E-002    -1.9323500853613111E-041
  -5.5099999999999996E-002    -5.6927840932404802E-041
  -5.3999999999999992E-002    -8.1755149646230905E-041
  -5.2899999999999989E-002    -1.9667810636084963E-041
  -5.1799999999999985E-002     2.2025342335183991E-040
  -5.0699999999999995E-002     6.2741888191503218E-040
  -4.9599999999999991E-002     8.8844025553628201E-040
  -4.8499999999999988E-002     2.6077143820452924E-040
  -4.7399999999999998E-002    -2.1229371744047695E-039
  -4.6299999999999994E-002    -6.1401949453003704E-039
  -4.5199999999999990E-002    -8.8928726361874689E-039
  -4.4099999999999986E-002    -3.6758103110289299E-039
  -4.2999999999999997E-002     1.7333499698030087E-038
  -4.1899999999999993E-002     5.3706524732309941E-038
  -4.0799999999999989E-002     8.2055880423487619E-038
  -3.9699999999999985E-002     4.7289085493327640E-038
  -3.8599999999999995E-002    -1.1744959175450935E-037
  -3.7499999999999992E-002    -4.1977462023745355E-037
  -3.6399999999999988E-002    -6.9483655522286300E-037
  -3.5299999999999984E-002    -5.2967930000906842E-037
  -3.4199999999999994E-002     6.1349825586237083E-037
  -3.3099999999999991E-002     2.9104086370902319E-036
  -3.1999999999999987E-002     5.3602788650874792E-036
  -3.0899999999999997E-002     5.1477520113098824E-036
  -2.9799999999999993E-002    -1.7556401516497173E-036
  -2.8699999999999989E-002    -1.7581272399080596E-035
  -2.7599999999999986E-002    -3.7318892768725056E-035
  -2.6499999999999996E-002    -4.3662130065313815E-035
  -2.5399999999999992E-002    -8.8298015053893178E-036
  -2.4299999999999988E-002     8.8865894703091460E-035
  -2.3199999999999985E-002     2.3147814149226528E-034
  -2.2099999999999995E-002     3.2466908237643154E-034
  -2.0999999999999991E-002     1.9406837358866551E-034
  -1.9899999999999987E-002    -3.3573874351713432E-034
  -1.8799999999999983E-002    -1.2530052384657145E-033
  -1.7699999999999994E-002    -2.1164057851978380E-033
  -1.6599999999999990E-002    -1.9428739983417020E-033
  -1.5499999999999986E-002     4.8711635487280746E-034
  -1.4399999999999996E-002     5.6835049621886127E-033
  -1.3299999999999992E-002     1.2008496272428841E-032
  -1.2199999999999989E-002     1.4576920888347085E-032
  -1.1099999999999985E-002     6.0116351766775013E-033
  -9.9999999999999950E-003    -1.9412705499418507E-032
  -8.8999999999999913E-003    -5.8164265105468071E-032
  -7.7999999999999875E-003    -8.9565682353476211E-032
  -6.6999999999999837E-003    -7.4805606201950231E-032
  -5.5999999999999939E-003     2.8138919101732146E-032
  -4.4999999999999901E-003     2.2917232945939520E-031
  -3.3999999999999864E-003     4.5959666183955866E-031
  -2.2999999999999826E-003     5.4430159499959760E-031
  -1.1999999999999927E-003     2.3863490705272950E-031
  -9.9999999999988987E-005    -6.3151320270026719E-031
   1.0000000000000148E-003    -1.9375711495966402E-030
   2.1000000000000185E-003    -3.0279558345592173E-030
   3.2000000000000084E-003    -2.7232435464129378E-030
   4.3000000000000121E-003     2.4122058144356887E-031
   5.4000000000000159E-003     6.2337396671662594E-030
   6.5000000000000058E-003     1.3474559357084397E-029
   7.6000000000000234E-003     1.7280945696442701E-029
   8.7000000000000133E-003     1.0934594339873132E-029
   9.8000000000000032E-003    -1.0914276145516052E-029
   1.0900000000000021E-002    -4.6550875843455392E-029
   1.2000000000000011E-002    -8.1530543244009200E-029
   1.3100000000000001E-002    -8.7573160001293902E-029
   1.4200000000000018E-002    -3.1256515289482410E-029
   1.5300000000000008E-002     1.0497634949008261E-028
   1.6400000000000026E-002     2.9416473193289244E-028
   1.7500000000000016E-002     4.4335457958104830E-028
   1.8600000000000005E-002     4.0216394857327801E-028
   1.9700000000000023E-002     2.2247073509626613E-029
   2.0800000000000013E-002    -7.3083972876594397E-028
   2.1900000000000003E-002    -1.6492458081310174E-027
   2.3000000000000020E-002    -2.2171678020882774E-027
   2.4100000000000010E-002    -1.7100741334060506E-027
   2.5200000000000000E-002     4.7035745283912631E-028
   2.6300000000000018E-002     4.2628620669761557E-027
   2.7400000000000008E-002     8.4233090763331582E-027
   2.8500000000000025E-002     1.0385414387996401E-026
   2.9600000000000015E-002     6.9188216235233806E-027
   3.0700000000000005E-002    -4.2157491801386223E-027
   3.1800000000000023E-002    -2.1934178809140587E-026
   3.2900000000000013E-002    -3.9850130754365556E-026
   3.4000000000000002E-002    -4.6251283395071054E-026
   3.5100000000000020E-002    -2.7575927402907559E-026
   3.6200000000000010E-002     2.4182813198191553E-026
   3.7300000000000028E-002     1.0195521474469205E-025
   3.8400000000000017E-002     1.7649239956815632E-025
   3.9500000000000007E-002     1.9803548144691632E-025
   4.0600000000000025E-002     1.1219839537754118E-025
   4.1700000000000015E-002    -1.0949426009419874E-025
   4.2800000000000005E-002    -4.3280345736017702E-025
   4.3900000000000022E-002    -7.3592513036792589E-025
   4.5000000000000012E-002    -8.2026493653300290E-025
   4.6100000000000002E-002    -4.7527611429580940E-025
   4.7200000000000020E-002     4.0413310890100319E-025
   4.8300000000000010E-002     1.6815271781885957E-024
   4.9400000000000027E-002     2.8918833644479909E-024
   5.0500000000000017E-002     3.2872939003435139E-024
   5.1600000000000007E-002     2.0767987890394109E-024
   5.2700000000000025E-002    -1.1504720989880996E-024
   5.3800000000000014E-002    -5.9412939440151415E-024
   5.4900000000000004E-002    -1.0667703902841941E-023
   5.6000000000000022E-002    -1.2672813199608633E-023
   5.7100000000000012E-002    -9.0768764064057918E-024
   5.8200000000000002E-002     1.7922143749179001E-024
   5.9300000000000019E-002     1.8742118826166804E-023
   6.0400000000000009E-002     3.6589546045043797E-023
   6.1500000000000027E-002     4.6479718703746633E-023
   6.2600000000000017E-002     3.8329516082800395E-023
   6.3700000000000007E-002     5.3425386303808149E-024
   6.4800000000000024E-002    -5.0563080002803962E-023
   6.5900000000000014E-002    -1.1468699861361609E-022
   6.7000000000000004E-002    -1.5966183464803191E-022
   6.8100000000000022E-002    -1.5198362217347946E-022
   6.9200000000000012E-002    -6.5168736161941252E-023
   7.0300000000000029E-002     1.0342134244899451E-022
   7.1400000000000019E-002     3.1837087428864975E-022
   7.2500000000000009E-002     5.0282765570723777E-022
   7.3600000000000027E-002     5.5307882945874658E-022
   7.4700000000000016E-002     3.7321232069950176E-022
   7.5800000000000006E-002    -7.6398765695634731E-023
   7.6900000000000024E-002    -7.3245073198792999E-022
   7.8000000000000014E-002    -1.4060701965306572E-021
   7.9100000000000004E-002    -1.8056969608149942E-021
   8.0200000000000021E-002    -1.6163824307087057E-021
   8.1300000000000011E-002    -6.2631280602567311E-022
   8.2400000000000029E-002     1.1332533937252995E-021
   8.3500000000000019E-002     3.2887159755511477E-021
   8.4600000000000009E-002     5.1250869119402800E-021
   8.5700000000000026E-002     5.7293093773369317E-021
   8.6800000000000016E-002     4.2763612937886424E-021
   8.7900000000000006E-002     4.0069085322571422E-022
   8.9000000000000024E-002    -5.4608786719326271E-021
   9.0100000000000013E-002    -1.1900603023250271E-020
   9.1200000000000003E-002    -1.6678125905732079E-020
   9.2300000000000021E-002    -1.7229624214050345E-020
   9.3400000000000011E-002    -1.1496153747061206E-020
   9.4500000000000028E-002     1.1151814481225769E-021
   9.5600000000000018E-002     1.8934670948196435E-020
   9.6700000000000008E-002     3.7736926303782008E-020
   9.7800000000000026E-002     5.1228274413311792E-020
   9.8900000000000016E-002     5.2418977367412416E-020
  0.10000000000000001          3.5728029699182938E-020
  0.10110000000000002         -6.1352114398303620E-022
  0.10220000000000001         -5.2523118741668165E-020
  0.10330000000000003         -1.0914913854877125E-019
  0.10440000000000002         -1.5373749877631954E-019
  0.10550000000000001         -1.6663647989059295E-019
  0.10660000000000003         -1.3029908512146795E-019
  0.10770000000000002         -3.5535024570765760E-020
  0.10880000000000001          1.1233973046705229E-019
  0.10990000000000003          2.8926278641111019E-019
  0.11100000000000002          4.5204688558912599E-019
  0.11210000000000001          5.4350077655672798E-019
  0.11320000000000002          5.0380723878829753E-019
  0.11430000000000001          2.8746115299575088E-019
  0.11540000000000003         -1.1681926154438878E-019
  0.11650000000000002         -6.6778389153159995E-019
  0.11760000000000001         -1.2610722478159002E-018
  0.11870000000000003         -1.7329316983195303E-018
  0.11980000000000002         -1.8834622668596177E-018
  0.12090000000000001         -1.5210799418922055E-018
  0.12200000000000003         -5.2422603872725923E-019
  0.12310000000000001          1.0906514700195852E-018
  0.12420000000000003          3.1125831178915400E-018
  0.12530000000000002          5.1130968349231296E-018
  0.12640000000000001          6.4783433206445746E-018
  0.12750000000000003          6.5106785443722519E-018
  0.12860000000000002          4.5994682903702763E-018
  0.12970000000000001          4.4025706542237061E-019
  0.13080000000000003         -5.7415651369472096E-018
  0.13190000000000002         -1.3026078053657846E-017
  0.13300000000000001         -1.9765791055345547E-017
  0.13410000000000000         -2.3748918073665072E-017
  0.13520000000000004         -2.2594019494680767E-017
  0.13630000000000003         -1.4359735595294184E-017
  0.13740000000000002          1.7138010184052408E-018
  0.13850000000000001          2.4485776968265038E-017
  0.13960000000000000          5.0427434156081374E-017
  0.14070000000000005          7.3596687689368003E-017
  0.14180000000000004          8.6270171133891595E-017
  0.14290000000000003          8.0327457837421908E-017
  0.14400000000000002          4.9316530086317600E-017
  0.14510000000000001         -9.0817994112650827E-018
  0.14620000000000000         -9.0691499359631981E-017
  0.14730000000000004         -1.8325334047024246E-016
  0.14840000000000003         -2.6634505923196298E-016
  0.14950000000000002         -3.1343702658481408E-016
  0.15060000000000001         -2.9640054944114495E-016
  0.15170000000000000         -1.9227425334323688E-016
  0.15280000000000005          8.5648401947213856E-018
  0.15390000000000004          2.9437359289214732E-016
  0.15500000000000003          6.2627562888168257E-016
  0.15610000000000002          9.3712622242446499E-016
  0.15720000000000001          1.1371381300343603E-015
  0.15830000000000000          1.1275315492365054E-015
  0.15940000000000004          8.2196116475131380E-016
  0.16050000000000003          1.7344612437234001E-016
  0.16160000000000002         -7.9771544540340276E-016
  0.16270000000000001         -1.9815640239104922E-015
  0.16380000000000000         -3.1693216060514598E-015
  0.16490000000000005         -4.0649155263645612E-015
  0.16600000000000004         -4.3225120039301726E-015
  0.16710000000000003         -3.6111707169145604E-015
  0.16820000000000002         -1.7016432424937802E-015
  0.16930000000000001          1.4368777598237509E-015
  0.17040000000000000          5.5493116164527181E-015
  0.17150000000000004          1.0040982633758006E-014
  0.17260000000000003          1.3983489394314166E-014
  0.17370000000000002          1.6201872253461703E-014
  0.17480000000000001          1.5454094818890017E-014
  0.17590000000000000          1.0696606355298282E-014
  0.17700000000000005          1.4075237328325843E-015
  0.17810000000000004         -1.2084982194191161E-014
  0.17920000000000003         -2.8342389012322753E-014
  0.18030000000000002         -4.4708899805867657E-014
  0.18140000000000001         -5.7440411562723527E-014
  0.18250000000000000         -6.2129691223020768E-014
  0.18360000000000004         -5.4444415160902438E-014
  0.18470000000000003         -3.1131559164656355E-014
  0.18580000000000002          8.8341890392748194E-015
  0.18690000000000001          6.3156821514709896E-014
  0.18800000000000000          1.2543997881776877E-013
  0.18910000000000005          1.8500914813541345E-013
  0.19020000000000004          2.2759689854634860E-013
  0.19130000000000003          2.3706357143689401E-013
  0.19240000000000002          1.9816821644649784E-013
  0.19350000000000001          1.0018794681981364E-013
  0.19460000000000005         -5.9067115946143932E-014
  0.19570000000000004         -2.6954151204448389E-013
  0.19680000000000003         -5.0641028626633416E-013
  0.19790000000000002         -7.2969966911134052E-013
  0.19900000000000001         -8.8690986985767908E-013
  0.20010000000000000         -9.1918927435219705E-013
  0.20120000000000005         -7.7108371183473020E-013
  0.20230000000000004         -4.0317239625218546E-013
  0.20340000000000003          1.9391795345671841E-013
  0.20450000000000002          9.8643203254471904E-013
  0.20560000000000000          1.8882713345690599E-012
  0.20670000000000005          2.7588397655042439E-012
  0.20780000000000004          3.4108712229244741E-012
  0.20890000000000003          3.6302328116107804E-012
