 -0.12000000000000000          0.0000000000000000
 -0.11889999999999999          0.0000000000000000
 -0.11780000000000000          0.0000000000000000
 -0.11670000000000000          0.0000000000000000
 -0.11559999999999999          0.0000000000000000
 -0.11449999999999999          0.0000000000000000
 -0.11340000000000000          0.0000000000000000
 -0.11230000000000000          0.0000000000000000
 -0.11119999999999999          0.0000000000000000
 -0.11009999999999999          0.0000000000000000
 -0.10900000000000000         -1.2793865708807659E-136
 -0.10790000000000000         -1.8595900882371507E-110
 -0.10679999999999999          5.0624606904365996E-086
 -0.10569999999999999          8.6741058795080340E-061
 -0.10460000000000000          1.5192541239538550E-036
 -0.10349999999999999          2.2033243610414243E-035
 -0.10239999999999999          1.4175003354305608E-034
 -0.10130000000000000          4.7574994545788273E-034
 -0.10020000000000000          4.6297868687559602E-034
  -9.9099999999999994E-002    -3.3487406543398055E-033
  -9.7999999999999990E-002    -1.8057703909890187E-032
  -9.6899999999999986E-002    -3.8714518206933909E-032
  -9.5799999999999996E-002     4.4613670282168638E-033
  -9.4699999999999993E-002     2.9449681931227827E-031
  -9.3599999999999989E-002     9.3757475551948595E-031
  -9.2499999999999999E-002     1.1563286707004821E-030
  -9.1399999999999995E-002    -1.8705676261236044E-030
  -9.0299999999999991E-002    -1.1971497964959250E-029
  -8.9200000000000002E-002    -2.5599700735376288E-029
  -8.8099999999999984E-002    -1.4867535673528457E-029
  -8.6999999999999994E-002     7.8751006333007659E-029
  -8.5899999999999990E-002     2.8795894768873038E-028
  -8.4799999999999986E-002     4.5160137444798843E-028
  -8.3699999999999997E-002     1.9667555309661047E-029
  -8.2599999999999993E-002    -1.7833475997377082E-027
  -8.1499999999999989E-002    -4.8299903804627230E-027
  -8.0399999999999999E-002    -5.9276443797768856E-027
  -7.9299999999999995E-002     2.4474806050650799E-027
  -7.8199999999999992E-002     2.7776096788194716E-026
  -7.7100000000000002E-002     6.2767538022659884E-026
  -7.5999999999999984E-002     6.4560232316718417E-026
  -7.4899999999999994E-002    -4.7470800290592428E-026
  -7.3799999999999991E-002    -3.3168866851983759E-025
  -7.2699999999999987E-002    -6.7632736860961179E-025
  -7.1599999999999997E-002    -6.3414303899903622E-025
  -7.0499999999999993E-002     5.2586062689058312E-025
  -6.9399999999999989E-002     3.2179469275537122E-024
  -6.8300000000000000E-002     6.2976198841853228E-024
  -6.7199999999999996E-002     5.8838332569522105E-024
  -6.6099999999999992E-002    -3.9148279126178269E-024
  -6.5000000000000002E-002    -2.6130776210770384E-023
  -6.3899999999999985E-002    -5.1765147838988372E-023
  -6.2799999999999995E-002    -5.1777303960098283E-023
  -6.1699999999999991E-002     1.7188615036639666E-023
  -6.0599999999999994E-002     1.7924084004817366E-022
  -5.9499999999999990E-002     3.7801779868116306E-022
  -5.8399999999999994E-002     4.2298282736172379E-022
  -5.7299999999999990E-002     2.0386881597807483E-023
  -5.6199999999999986E-002    -1.0260443848829587E-021
  -5.5099999999999996E-002    -2.4416265073609781E-021
  -5.3999999999999992E-002    -3.1279733341467286E-021
  -5.2899999999999989E-002    -1.2613829228378787E-021
  -5.1799999999999985E-002     4.6643305375367233E-021
  -5.0699999999999995E-002     1.3757502901404954E-020
  -4.9599999999999991E-002     2.0521988982085284E-020
  -4.8499999999999988E-002     1.4709117041301620E-020
  -4.7399999999999998E-002    -1.4057008966469947E-020
  -4.6299999999999994E-002    -6.5802302572220351E-020
  -4.5199999999999990E-002    -1.1744176457761644E-019
  -4.4099999999999986E-002    -1.1773945975529604E-019
  -4.2999999999999997E-002    -3.8869450688854835E-021
  -4.1899999999999993E-002     2.5162348095733933E-019
  -4.0799999999999989E-002     5.7436353485673065E-019
  -3.9699999999999985E-002     7.4211678206226695E-019
  -3.8599999999999995E-002     4.2465821580809350E-019
  -3.7499999999999992E-002    -6.3547871198448712E-019
  -3.6399999999999988E-002    -2.3148937250737983E-018
  -3.5299999999999984E-002    -3.8141171932992212E-018
  -3.4199999999999994E-002    -3.6454356763227247E-018
  -3.3099999999999991E-002    -1.9796967027892716E-019
  -3.1999999999999987E-002     7.0286629864766682E-018
  -3.0899999999999997E-002     1.5902733084545100E-017
  -2.9799999999999993E-002     2.0829102194929547E-017
  -2.8699999999999989E-002     1.3934474020615594E-017
  -2.7599999999999986E-002    -1.0810941841470293E-017
  -2.6499999999999996E-002    -5.1116390117179767E-017
  -2.5399999999999992E-002    -9.0481441244040518E-017
  -2.4299999999999988E-002    -9.7959496771834001E-017
  -2.3199999999999985E-002    -3.8686618504880516E-017
  -2.2099999999999995E-002     1.0349137668987166E-016
  -2.0999999999999991E-002     2.9785787864942532E-016
  -1.9899999999999987E-002     4.4917047539854562E-016
  -1.8799999999999983E-002     4.1192373771851932E-016
  -1.7699999999999994E-002     5.2130474802948126E-017
  -1.6599999999999990E-002    -6.4920063157233040E-016
  -1.5499999999999986E-002    -1.4904236845307307E-015
  -1.4399999999999996E-002    -2.0126153753066081E-015
  -1.3299999999999992E-002    -1.6093390104339780E-015
  -1.2199999999999989E-002     1.8148427064452346E-016
  -1.1099999999999985E-002     3.2634652211414536E-015
  -9.9999999999999950E-003     6.6287344460100685E-015
  -8.8999999999999913E-003     8.3387168706277673E-015
  -7.7999999999999875E-003     6.0854960807301790E-015
  -6.6999999999999837E-003    -1.6205138571732434E-015
  -5.5999999999999939E-003    -1.3954006013377323E-014
  -4.4999999999999901E-003    -2.6688167676142482E-014
  -3.3999999999999864E-003    -3.2451695430345258E-014
  -2.2999999999999826E-003    -2.3043686925874673E-014
  -1.1999999999999927E-003     6.2651114704823974E-015
  -9.9999999999988987E-005     5.1737055222524707E-014
   1.0000000000000148E-003     9.7959602918273488E-014
   2.1000000000000185E-003     1.1934808078134495E-013
   3.2000000000000084E-003     8.8298504018377813E-014
   4.3000000000000121E-003    -1.0712348725028293E-014
   5.4000000000000159E-003    -1.6549398946701135E-013
   6.5000000000000058E-003    -3.2667037019346447E-013
   7.6000000000000234E-003    -4.1287286619354882E-013
   8.7000000000000133E-003    -3.3573082605432136E-013
   9.8000000000000032E-003    -4.1955656120755493E-014
   1.0900000000000021E-002     4.4051036500698361E-013
   1.2000000000000011E-002     9.7388550879143876E-013
   1.3100000000000001E-002     1.3226343696744009E-012
   1.4200000000000018E-002     1.2199088508443888E-012
   1.5300000000000008E-002     4.8134687202310963E-013
   1.6400000000000026E-002    -8.6711565380744911E-013
   1.7500000000000016E-002    -2.5021988336097794E-012
   1.8600000000000005E-002    -3.8158383759498549E-012
   1.9700000000000023E-002    -4.0639951590040727E-012
   2.0800000000000013E-002    -2.6402861282732014E-012
   2.1900000000000003E-002     5.9814614570784909E-013
   2.3000000000000020E-002     5.0759037055902804E-012
   2.4100000000000010E-002     9.4529482663735840E-012
   2.5200000000000000E-002     1.1882184267399159E-011
   2.6300000000000018E-002     1.0570323124268563E-011
   2.7400000000000008E-002     4.5153421839978127E-012
   2.8500000000000025E-002    -5.8169375430171766E-012
   2.9600000000000015E-002    -1.8160096522008636E-011
   3.0700000000000005E-002    -2.8686427995410365E-011
   3.1800000000000023E-002    -3.2890371035269343E-011
   3.2900000000000013E-002    -2.6969850154034038E-011
   3.4000000000000002E-002    -9.3499179779850531E-012
   3.5100000000000020E-002     1.8129093049771189E-011
   3.6200000000000010E-002     4.9816609908010908E-011
   3.7300000000000028E-002     7.6937449501673799E-011
   3.8400000000000017E-002     8.9369874390241184E-011
   3.9500000000000007E-002     7.8228188695093438E-011
   4.0600000000000025E-002     3.8722894010917065E-011
   4.1700000000000015E-002    -2.7351626184795871E-011
   4.2800000000000005E-002    -1.1014932297844527E-010
   4.3900000000000022E-002    -1.9187031554665680E-010
   4.5000000000000012E-002    -2.4880092397727833E-010
   4.6100000000000002E-002    -2.5543937800005846E-010
   4.7200000000000020E-002    -1.9051766602530624E-010
   4.8300000000000010E-002    -4.4249128377287459E-011
   4.9400000000000027E-002     1.7449613921190102E-010
   5.0500000000000017E-002     4.3304452760417558E-010
   5.1600000000000007E-002     6.7419092493750631E-010
   5.2700000000000025E-002     8.2214362913894319E-010
   5.3800000000000014E-002     7.9639064390373697E-010
   5.4900000000000004E-002     5.3278250696652160E-010
   5.6000000000000022E-002     8.5135087910345475E-012
   5.7100000000000012E-002    -7.3491100624399716E-010
   5.8200000000000002E-002    -1.5782812545371482E-009
   5.9300000000000019E-002    -2.3282426149429729E-009
   6.0400000000000009E-002    -2.7426901856796414E-009
   6.1500000000000027E-002    -2.5782387974428870E-009
   6.2600000000000017E-002    -1.6541078192927701E-009
   6.3700000000000007E-002     7.9009928059963593E-011
   6.4800000000000024E-002     2.4806701449874128E-009
   6.5900000000000014E-002     5.1899229849160240E-009
   6.7000000000000004E-002     7.6370486114522293E-009
   6.8100000000000022E-002     9.1075574394706359E-009
   6.9200000000000012E-002     8.8603388360876188E-009
   7.0300000000000029E-002     6.2919008295182206E-009
   7.1400000000000019E-002     1.1273042436290433E-009
   7.2500000000000009E-002    -6.3934877050976532E-009
   7.3600000000000027E-002    -1.5376000994465432E-008
   7.4700000000000016E-002    -2.4227676038539559E-008
   7.5800000000000006E-002    -3.0759025048439229E-008
   7.6900000000000024E-002    -3.2465415218183514E-008
   7.8000000000000014E-002    -2.6997043213158892E-008
   7.9100000000000004E-002    -1.2780855623243122E-008
   8.0200000000000021E-002     1.0295829327034322E-008
   8.1300000000000011E-002     4.0283254192878725E-008
   8.2400000000000029E-002     7.2828312626739095E-008
   8.3500000000000019E-002     1.0127743589695228E-007
   8.4600000000000009E-002     1.1736294169982308E-007
   8.5700000000000026E-002     1.1251974643784877E-007
   8.6800000000000016E-002     7.9745213719900272E-008
   8.7900000000000006E-002     1.5760443825082799E-008
   8.9000000000000024E-002    -7.6912847631605572E-008
   9.0100000000000013E-002    -1.8844496152471799E-007
   9.1200000000000003E-002    -3.0126820829417646E-007
   9.2300000000000021E-002    -3.9115633641720720E-007
   9.3400000000000011E-002    -4.3006354549499544E-007
   9.4500000000000028E-002    -3.9069459043216530E-007
   9.5600000000000018E-002    -2.5242924148052676E-007
   9.6700000000000008E-002    -7.8504445772369427E-009
   9.7800000000000026E-002     3.3121560275324121E-007
   9.8900000000000016E-002     7.2947870589947149E-007
  0.10000000000000001          1.1271801084850412E-006
  0.10110000000000002          1.4435281656513753E-006
  0.10220000000000001          1.5853448809795860E-006
  0.10330000000000003          1.4609563077399969E-006
  0.10440000000000002          9.9838747896190982E-007
  0.10550000000000001          1.6582559973239066E-007
  0.10660000000000003         -1.0087389197154271E-006
  0.10770000000000002         -2.4225873157325634E-006
  0.10880000000000001         -3.8922895780672740E-006
  0.10990000000000003         -5.1605583510535244E-006
  0.11100000000000002         -5.9187109046392815E-006
  0.11210000000000001         -5.8455734073402931E-006
  0.11320000000000002         -4.6610219576812507E-006
  0.11430000000000001         -2.1892714455590960E-006
  0.11540000000000003          1.5761005967814437E-006
  0.11650000000000002          6.4160527724240209E-006
  0.11760000000000001          1.1851142491170771E-005
  0.11870000000000003          1.7139953806001631E-005
  0.11980000000000002          2.1320989437814838E-005
  0.12090000000000001          2.3303760633168329E-005
  0.12200000000000003          2.2008318629845388E-005
  0.12310000000000001          1.6544398432767346E-005
  0.12420000000000003          6.4126328008068088E-006
  0.12530000000000002         -8.2977916394893829E-006
  0.12640000000000001         -2.6746689810004559E-005
  0.12750000000000003         -4.7249875469019485E-005
  0.12860000000000002         -6.7287847552195305E-005
  0.12970000000000001         -8.3641247183731228E-005
  0.13080000000000003         -9.2665837968074251E-005
  0.13190000000000002         -9.0703003622883246E-005
  0.13300000000000001         -7.4602006574836407E-005
  0.13410000000000000         -4.2309562101979597E-005
  0.13520000000000004          6.5368298077664878E-006
  0.13630000000000003          7.0090123946122654E-005
  0.13740000000000002          1.4393555779140466E-004
  0.13850000000000001          2.2097730250815497E-004
  0.13960000000000000          2.9164126900351232E-004
  0.14070000000000005          3.4444086219287347E-004
  0.14180000000000004          3.6691726530865186E-004
  0.14290000000000003          3.4692259985802279E-004
  0.14400000000000002          2.7416735137542780E-004
  0.14510000000000001          1.4190842272434243E-004
  0.14620000000000000         -5.1382551424791920E-005
  0.14730000000000004         -3.0055316824492966E-004
  0.14840000000000003         -5.9269146831306065E-004
  0.14950000000000002         -9.0659882444765153E-004
  0.15060000000000001         -1.2129348292593445E-003
  0.15170000000000000         -1.4750891964638911E-003
  0.15280000000000005         -1.6507544564698859E-003
  0.15390000000000004         -1.6940837798457308E-003
  0.15500000000000003         -1.5582299782074475E-003
  0.15610000000000002         -1.1979846248654472E-003
  0.15720000000000001         -5.7217981716634384E-004
  0.15830000000000000          3.5451277160331528E-004
  0.15940000000000004          1.6107450499739100E-003
  0.16050000000000003          3.2189360834364118E-003
  0.16160000000000002          5.1972397638586970E-003
  0.16270000000000001          7.5631786018409714E-003
  0.16380000000000000          1.0338966499751384E-002
  0.16490000000000005          1.3558418857349153E-002
  0.16600000000000004          1.7275232087589222E-002
  0.16710000000000003          2.1572320109625846E-002
  0.16820000000000002          2.6571834672565894E-002
  0.16930000000000001          3.2445478594355648E-002
  0.17040000000000000          3.9424751228928849E-002
  0.17150000000000004          4.7810843724699015E-002
  0.17260000000000003          5.7984022342405052E-002
  0.17370000000000002          7.0412490062615060E-002
  0.17480000000000001          8.5660883737964613E-002
  0.17590000000000000         0.10439872636691400
  0.17700000000000005         0.12740929055617947
  0.17810000000000004         0.15559942017938927
  0.17920000000000003         0.19001088721425397
  0.18030000000000002         0.23183382105467021
  0.18140000000000001         0.28242263761960767
  0.18250000000000000         0.34331472264156765
  0.18360000000000004         0.41625190128962120
  0.18470000000000003         0.50320447210749863
  0.18580000000000002         0.60639731508270589
  0.18690000000000001         0.72833731747770125
  0.18800000000000000         0.87184110929975445
  0.18910000000000005          1.0400618716465082
  0.19020000000000004          1.2365137813249740
  0.19130000000000003          1.4650924879617111
  0.19240000000000002          1.7300898882191693
  0.19350000000000001          2.0362013678311106
  0.19460000000000005          2.3885236266852359
  0.19570000000000004          2.7925411834981149
  0.19680000000000003          3.2540996702418679
  0.19790000000000002          3.7793640654681884
  0.19900000000000001          4.3747600724136531
  0.20010000000000000          5.0468969167005042
  0.20120000000000005          5.8024699190826885
  0.20230000000000004          6.6481412979568910
  0.20340000000000003          7.5903977894504706
  0.20450000000000002          8.6353838621902401
  0.20560000000000000          9.7887095760967568
  0.20670000000000005          11.055232516872056
  0.20780000000000004          12.438813753527494
  0.20890000000000003          13.942048431088528
