 -0.12000000000000000          0.0000000000000000
 -0.11889999999999999          0.0000000000000000
 -0.11780000000000000          0.0000000000000000
 -0.11670000000000000          0.0000000000000000
 -0.11559999999999999         -1.0121074473053144E-014
 -0.11449999999999999         -6.7327214937599466E-014
 -0.11340000000000000         -2.2661301435353879E-013
 -0.11230000000000000         -4.9419513032932937E-013
 -0.11119999999999999         -7.2716673173171008E-013
 -0.11009999999999999         -6.0282016551316072E-013
 -0.10900000000000000          2.2876291329218532E-013
 -0.10790000000000000          1.8167061441090314E-012
 -0.10679999999999999          3.6138361187444463E-012
 -0.10569999999999999          4.5271213385325102E-012
 -0.10460000000000000          3.4698023321667257E-012
 -0.10349999999999999          1.6489649370299230E-013
 -0.10239999999999999         -4.4285605833603651E-012
 -0.10130000000000000         -8.6516691053388025E-012
 -0.10020000000000000         -1.1575984892734332E-011
  -9.9099999999999994E-002    -1.4296358504890773E-011
  -9.7999999999999990E-002    -1.9533911523873905E-011
  -9.6899999999999986E-002    -2.8666941088583203E-011
  -9.5799999999999996E-002    -3.7247469773104798E-011
  -9.4699999999999993E-002    -3.2282543872728491E-011
  -9.3599999999999989E-002     4.6831739273522912E-012
  -9.2499999999999999E-002     8.6796266328633212E-011
  -9.1399999999999995E-002     2.0646557875198414E-010
  -9.0299999999999991E-002     3.2367282783547340E-010
  -8.9200000000000002E-002     3.6852091838377707E-010
  -8.8099999999999984E-002     2.6435550279797913E-010
  -8.6999999999999994E-002    -3.2512892788722583E-011
  -8.5899999999999990E-002    -4.9258695355366708E-010
  -8.4799999999999986E-002    -9.9537765072499197E-010
  -8.3699999999999997E-002    -1.3522475402032583E-009
  -8.2599999999999993E-002    -1.3710184829265519E-009
  -8.1499999999999989E-002    -9.4046437670594878E-010
  -8.0399999999999999E-002    -9.6026276779894134E-011
  -7.9299999999999995E-002     9.7083533465447997E-010
  -7.8199999999999992E-002     1.9744161260751391E-009
  -7.7100000000000002E-002     2.6461397868576515E-009
  -7.5999999999999984E-002     2.8426012536380583E-009
  -7.4899999999999994E-002     2.5905994800926015E-009
  -7.3799999999999991E-002     2.0367686873952884E-009
  -7.2699999999999987E-002     1.3217425807449824E-009
  -7.1599999999999997E-002     4.4995168166380972E-010
  -7.0499999999999993E-002    -7.5528262453536346E-010
  -6.9399999999999989E-002    -2.5546456762168839E-009
  -6.8300000000000000E-002    -5.0736613001668515E-009
  -6.7199999999999996E-002    -8.0658713480891172E-009
  -6.6099999999999992E-002    -1.0806151337171590E-008
  -6.5000000000000002E-002    -1.2228268620590431E-008
  -6.3899999999999985E-002    -1.1310958745929335E-008
  -6.2799999999999995E-002    -7.5760663465194142E-009
  -6.1699999999999991E-002    -1.4636782253424907E-009
  -6.0599999999999994E-002     5.6423815330683856E-009
  -5.9499999999999990E-002     1.1831220386078454E-008
  -5.8399999999999994E-002     1.5403745084676628E-008
  -5.7299999999999990E-002     1.5622399450072559E-008
  -5.6199999999999986E-002     1.3096900888847663E-008
  -5.5099999999999996E-002     9.5523772545197384E-009
  -5.3999999999999992E-002     7.0003641632432146E-009
  -5.2899999999999989E-002     6.6415198928327679E-009
  -5.1799999999999985E-002     8.0164347864869427E-009
  -5.0699999999999995E-002     8.8724468726128839E-009
  -4.9599999999999991E-002     5.9215490694577937E-009
  -4.8499999999999988E-002    -3.7551657487342005E-009
  -4.7399999999999998E-002    -2.1248942980008900E-008
  -4.6299999999999994E-002    -4.4992988755283120E-008
  -4.5199999999999990E-002    -7.0999070805840638E-008
  -4.4099999999999986E-002    -9.4110460166387382E-008
  -4.2999999999999997E-002    -1.0970835185712284E-007
  -4.1899999999999993E-002    -1.1503171824711803E-007
  -4.0799999999999989E-002    -1.0939124852414334E-007
  -3.9699999999999985E-002    -9.3051036887375064E-008
  -3.8599999999999995E-002    -6.5198329932161216E-008
  -3.7499999999999992E-002    -2.1905232758249910E-008
  -3.6399999999999988E-002     4.4953435320072411E-008
  -3.5299999999999984E-002     1.4729000885961974E-007
  -3.4199999999999994E-002     2.9910235300126233E-007
  -3.3099999999999991E-002     5.1437629030482118E-007
  -3.1999999999999987E-002     8.0578510132866459E-007
  -3.0899999999999997E-002     1.1851021232979956E-006
  -2.9799999999999993E-002     1.6654949762722397E-006
  -2.8699999999999989E-002     2.2650024362770529E-006
  -2.7599999999999986E-002     3.0099402694903305E-006
  -2.6499999999999996E-002     3.9370386065172841E-006
  -2.5399999999999992E-002     5.0937836050311064E-006
  -2.4299999999999988E-002     6.5374105480268137E-006
  -2.3199999999999985E-002     8.3337950653784593E-006
  -2.2099999999999995E-002     1.0557703630264824E-005
  -2.0999999999999991E-002     1.3295366935336259E-005
  -1.9899999999999987E-002     1.6649364035781723E-005
  -1.8799999999999983E-002     2.0744839110323915E-005
  -1.7699999999999994E-002     2.5735614195149177E-005
  -1.6599999999999990E-002     3.1809058575107180E-005
  -1.5499999999999986E-002     3.9189488251469305E-005
  -1.4399999999999996E-002     4.8140928297643964E-005
  -1.3299999999999992E-002     5.8970716890528534E-005
  -1.2199999999999989E-002     7.2035306585100579E-005
  -1.1099999999999985E-002     8.7748773481737428E-005
  -9.9999999999999950E-003     1.0659341997369655E-004
  -8.8999999999999913E-003     1.2913106470942011E-004
  -7.7999999999999875E-003     1.5601361102605168E-004
  -6.6999999999999837E-003     1.8799231252515514E-004
  -5.5999999999999939E-003     2.2592638712812501E-004
  -4.4999999999999901E-003     2.7079258333966098E-004
  -3.3999999999999864E-003     3.2369738882086408E-004
  -2.2999999999999826E-003     3.8589263786817162E-004
  -1.1999999999999927E-003     4.5879371980707347E-004
  -9.9999999999988987E-005     5.4399819463226914E-004
   1.0000000000000148E-003     6.4330215403931082E-004
   2.1000000000000185E-003     7.5871246386456518E-004
   3.2000000000000084E-003     8.9245477488890249E-004
   4.3000000000000121E-003     1.0469790375762583E-003
   5.4000000000000159E-003     1.2249652116816021E-003
   6.5000000000000058E-003     1.4293313085268625E-003
   7.6000000000000234E-003     1.6632439562049616E-003
   8.7000000000000133E-003     1.9301291787960646E-003
   9.8000000000000032E-003     2.2336792222761126E-003
   1.0900000000000021E-002     2.5778509988678977E-003
   1.2000000000000011E-002     2.9668532773254575E-003
   1.3100000000000001E-002     3.4051224460323274E-003
   1.4200000000000018E-002     3.8972892448119589E-003
   1.5300000000000008E-002     4.4481400363840162E-003
   1.6400000000000026E-002     5.0625753513167827E-003
   1.7500000000000016E-002     5.7455659547461036E-003
   1.8600000000000005E-002     6.5021037485848785E-003
   1.9700000000000023E-002     7.3371429027912693E-003
   2.0800000000000013E-002     8.2555267082395842E-003
   2.1900000000000003E-002     9.2618977973035060E-003
   2.3000000000000020E-002     1.0360592618958185E-002
   2.4100000000000010E-002     1.1555523884895141E-002
   2.5200000000000000E-002     1.2850055841540838E-002
   2.6300000000000018E-002     1.4246876255383244E-002
   2.7400000000000008E-002     1.5747866590002289E-002
   2.8500000000000025E-002     1.7353969407734305E-002
   2.9600000000000015E-002     1.9065050968853518E-002
   3.0700000000000005E-002     2.0879758024985793E-002
   3.1800000000000023E-002     2.2795370514840915E-002
   3.2900000000000013E-002     2.4807654975842565E-002
   3.4000000000000002E-002     2.6910725467251227E-002
   3.5100000000000020E-002     2.9096918719177880E-002
   3.6200000000000010E-002     3.1356688224508072E-002
   3.7300000000000028E-002     3.3678519249121047E-002
   3.8400000000000017E-002     3.6048864832056070E-002
   3.9500000000000007E-002     3.8452102919260885E-002
   4.0600000000000025E-002     4.0870516872059427E-002
   4.1700000000000015E-002     4.3284304597170309E-002
   4.2800000000000005E-002     4.5671623724778752E-002
   4.3900000000000022E-002     4.8008680174176213E-002
   4.5000000000000012E-002     5.0269864743830245E-002
   4.6100000000000002E-002     5.2427938039856112E-002
   4.7200000000000020E-002     5.4454259999760751E-002
   4.8300000000000010E-002     5.6319058300354066E-002
   4.9400000000000027E-002     5.7991730849436776E-002
   5.0500000000000017E-002     5.9441180630661783E-002
   5.1600000000000007E-002     6.0636184467062273E-002
   5.2700000000000025E-002     6.1545798595439793E-002
   5.3800000000000014E-002     6.2139801981255113E-002
   5.4900000000000004E-002     6.2389173350324317E-002
   5.6000000000000022E-002     6.2266591828506843E-002
   5.7100000000000012E-002     6.1746946419864265E-002
   5.8200000000000002E-002     6.0807838313025137E-002
   5.9300000000000019E-002     5.9430062597765877E-002
   6.0400000000000009E-002     5.7598060975183427E-002
   6.1500000000000027E-002     5.5300341862696008E-002
   6.2600000000000017E-002     5.2529866446843272E-002
   6.3700000000000007E-002     4.9284397605312634E-002
   6.4800000000000024E-002     4.5566804047121066E-002
   6.5900000000000014E-002     4.1385306924627122E-002
   6.7000000000000004E-002     3.6753653361176732E-002
   6.8100000000000022E-002     3.1691202610963649E-002
   6.9200000000000012E-002     2.6222915800583817E-002
   7.0300000000000029E-002     2.0379247401905023E-002
   7.1400000000000019E-002     1.4195942881359403E-002
   7.2500000000000009E-002     7.7137500461872711E-003
   7.3600000000000027E-002     9.7805085481940173E-004
   7.4700000000000016E-002    -5.9615827494962957E-003
   7.5800000000000006E-002    -1.3051908470542729E-002
   7.6900000000000024E-002    -2.0236608655981977E-002
   7.8000000000000014E-002    -2.7456957298271200E-002
   7.9100000000000004E-002    -3.4652549706461401E-002
   8.0200000000000021E-002    -4.1762079292051731E-002
   8.1300000000000011E-002    -4.8724142113642330E-002
   8.2400000000000029E-002    -5.5478049937516975E-002
   8.3500000000000019E-002    -6.1964636100789526E-002
   8.4600000000000009E-002    -6.8127043192907466E-002
   8.5700000000000026E-002    -7.3911484738426569E-002
   8.6800000000000016E-002    -7.9267972855598931E-002
   8.7900000000000006E-002    -8.4151000432575715E-002
   8.9000000000000024E-002    -8.8520161807402339E-002
   9.0100000000000013E-002    -9.2340693244926136E-002
   9.1200000000000003E-002    -9.5583915959433455E-002
   9.2300000000000021E-002    -9.8227570347511464E-002
   9.3400000000000011E-002   -0.10025603852616022
   9.4500000000000028E-002   -0.10166045991243181
   9.5600000000000018E-002   -0.10243874841693906
   9.6700000000000008E-002   -0.10259551868898104
   9.7800000000000026E-002   -0.10214192409142078
   9.8900000000000016E-002   -0.10109540394240657
  0.10000000000000001         -9.9479335569953586E-002
  0.10110000000000002         -9.7322589895906392E-002
  0.10220000000000001         -9.4658997006226903E-002
  0.10330000000000003         -9.1526737492330729E-002
  0.10440000000000002         -8.7967682318449286E-002
  0.10550000000000001         -8.4026705617941622E-002
  0.10660000000000003         -7.9750990642456193E-002
  0.10770000000000002         -7.5189341300329532E-002
  0.10880000000000001         -7.0391504167771179E-002
  0.10990000000000003         -6.5407502092442241E-002
  0.11100000000000002         -6.0286982035038829E-002
  0.11210000000000001         -5.5078585336795785E-002
  0.11320000000000002         -4.9829354797288589E-002
  0.11430000000000001         -4.4584196088455347E-002
  0.11540000000000003         -3.9385408966432986E-002
  0.11650000000000002         -3.4272296973144240E-002
  0.11760000000000001         -2.9280855720641440E-002
  0.11870000000000003         -2.4443533176914972E-002
  0.11980000000000002         -1.9789053312478305E-002
  0.12090000000000001         -1.5342297271004177E-002
  0.12200000000000003         -1.1124241601717530E-002
  0.12310000000000001         -7.1519574326846134E-003
  0.12420000000000003         -3.4386747784685215E-003
  0.12530000000000002          6.0883161350945428E-006
  0.12640000000000001          3.1763395093923983E-003
  0.12750000000000003          6.0693832354946900E-003
  0.12860000000000002          8.6855662419691622E-003
  0.12970000000000001          1.1028011853763410E-002
  0.13080000000000003          1.3102350190335002E-002
  0.13190000000000002          1.4916443857209990E-002
  0.13300000000000001          1.6480104140977246E-002
  0.13410000000000000          1.7804793713482744E-002
  0.13520000000000004          1.8903317736031454E-002
  0.13630000000000003          1.9789512913836498E-002
  0.13740000000000002          2.0477949354120166E-002
  0.13850000000000001          2.0983660010510961E-002
  0.13960000000000000          2.1321906709970972E-002
  0.14070000000000005          2.1507982798168686E-002
  0.14180000000000004          2.1557044465064540E-002
  0.14290000000000003          2.1483959504248015E-002
  0.14400000000000002          2.1303164955156273E-002
  0.14510000000000001          2.1028532101778376E-002
  0.14620000000000000          2.0673244831765414E-002
  0.14730000000000004          2.0249701383177682E-002
  0.14840000000000003          1.9769447867908754E-002
  0.14950000000000002          1.9243145453273543E-002
  0.15060000000000001          1.8680565017600681E-002
  0.15170000000000000          1.8090597582849852E-002
  0.15280000000000005          1.7481268654269605E-002
  0.15390000000000004          1.6859749793343627E-002
  0.15500000000000003          1.6232368580410515E-002
  0.15610000000000002          1.5604624506555691E-002
  0.15720000000000001          1.4981219954908656E-002
  0.15830000000000000          1.4366111450631032E-002
  0.15940000000000004          1.3762578846399812E-002
  0.16050000000000003          1.3173302975229289E-002
  0.16160000000000002          1.2600439278017359E-002
  0.16270000000000001          1.2045677633983226E-002
  0.16380000000000000          1.1510285784794995E-002
  0.16490000000000005          1.0995141776749406E-002
  0.16600000000000004          1.0500765742104217E-002
  0.16710000000000003          1.0027360701727201E-002
  0.16820000000000002          9.5748663172741371E-003
  0.16930000000000001          9.1430216533154880E-003
  0.17040000000000000          8.7314270557242498E-003
  0.17150000000000004          8.3395942052844046E-003
  0.17260000000000003          7.9669777171351586E-003
  0.17370000000000002          7.6129890523029898E-003
  0.17480000000000001          7.2770001969248242E-003
  0.17590000000000000          6.9583472112716887E-003
  0.17700000000000005          6.6563411739231290E-003
  0.17810000000000004          6.3702877849462049E-003
  0.17920000000000003          6.0995103525442610E-003
  0.18030000000000002          5.8433675414970992E-003
  0.18140000000000001          5.6012588343538278E-003
  0.18250000000000000          5.3726162509875955E-003
  0.18360000000000004          5.1568874704223510E-003
  0.18470000000000003          4.9535195636937809E-003
  0.18580000000000002          4.7619518823874621E-003
  0.18690000000000001          4.5816215482091137E-003
  0.18800000000000000          4.4119780814301270E-003
  0.18910000000000005          4.2524985804572894E-003
  0.19020000000000004          4.1026942090292753E-003
  0.19130000000000003          3.9621029550376491E-003
  0.19240000000000002          3.8302705908694226E-003
  0.19350000000000001          3.7067279672016854E-003
  0.19460000000000005          3.5909750698110989E-003
  0.19570000000000004          3.4824794925370607E-003
  0.19680000000000003          3.3806905009872881E-003
  0.19790000000000002          3.2850628714013934E-003
  0.19900000000000001          3.1950805696637457E-003
  0.20010000000000000          3.1102709737568976E-003
  0.20120000000000005          3.0302052380922978E-003
  0.20230000000000004          2.9544869934906930E-003
  0.20340000000000003          2.8827366110369050E-003
  0.20450000000000002          2.8145794185073700E-003
  0.20560000000000000          2.7496432842262102E-003
  0.20670000000000005          2.6875656847663264E-003
  0.20780000000000004          2.6280055958791131E-003
  0.20890000000000003          2.5706536625553188E-003
