 -0.12000000000000000          0.0000000000000000
 -0.11889999999999999          0.0000000000000000
 -0.11780000000000000          0.0000000000000000
 -0.11670000000000000          0.0000000000000000
 -0.11559999999999999          2.8946280595699082E-066
 -0.11449999999999999         -4.0749011100903904E-040
 -0.11340000000000000          4.6090762603184571E-015
 -0.11230000000000000          3.6177072567925888E-014
 -0.11119999999999999          1.2798695253700711E-013
 -0.11009999999999999          2.2597977947896343E-013
 -0.10900000000000000         -1.7594510764136171E-015
 -0.10790000000000000         -1.1591168534291215E-012
 -0.10679999999999999         -3.3481457987243894E-012
 -0.10569999999999999         -4.4536722641373625E-012
 -0.10460000000000000          1.0761792854318043E-012
 -0.10349999999999999          1.9519495054470141E-011
 -0.10239999999999999          4.8246213445606732E-011
 -0.10130000000000000          6.2194638002326183E-011
 -0.10020000000000000          1.0353405421142487E-011
  -9.9099999999999994E-002    -1.5670433673936570E-010
  -9.7999999999999990E-002    -4.1813674784252841E-010
  -9.6899999999999986E-002    -6.0091079337691465E-010
  -9.5799999999999996E-002    -3.6460419171382043E-010
  -9.4699999999999993E-002     6.4412844040929849E-010
  -9.3599999999999989E-002     2.4270830450561764E-009
  -9.2499999999999999E-002     4.1918644869679732E-009
  -9.1399999999999995E-002     4.1824173455936226E-009
  -9.0299999999999991E-002     2.3604714754784716E-010
  -8.9200000000000002E-002    -8.6972248632815790E-009
  -8.8099999999999984E-002    -2.0462843987565092E-008
  -8.6999999999999994E-002    -2.8271075572111665E-008
  -8.5899999999999990E-002    -2.1701212879757177E-008
  -8.4799999999999986E-002     8.5221818662894918E-009
  -8.3699999999999997E-002     6.2458028456086027E-008
  -8.2599999999999993E-002     1.2288950235418257E-007
  -8.1499999999999989E-002     1.5307275466942167E-007
  -8.0399999999999999E-002     1.0623587501935226E-007
  -7.9299999999999995E-002    -5.1057590757799847E-008
  -7.8199999999999992E-002    -3.0729608923186861E-007
  -7.7100000000000002E-002    -5.8071246245716592E-007
  -7.5999999999999984E-002    -7.1999398708256759E-007
  -7.4899999999999994E-002    -5.4678468845063300E-007
  -7.3799999999999991E-002     5.9792289640244200E-008
  -7.2699999999999987E-002     1.0603476318402270E-006
  -7.1599999999999997E-002     2.1807340133910308E-006
  -7.0499999999999993E-002     2.9206866610951926E-006
  -6.9399999999999989E-002     2.6830838769716939E-006
  -6.8300000000000000E-002     1.0165635093109185E-006
  -6.7199999999999996E-002    -2.0957999454542092E-006
  -6.6099999999999992E-002    -6.0196945407390094E-006
  -6.5000000000000002E-002    -9.4551389465694229E-006
  -6.3899999999999985E-002    -1.0710054253743133E-005
  -6.2799999999999995E-002    -8.2478991333506890E-006
  -6.1699999999999991E-002    -1.3709513833021712E-006
  -6.0599999999999994E-002     9.1987481455021493E-006
  -5.9499999999999990E-002     2.1102458943227984E-005
  -5.8399999999999994E-002     3.0673017493322081E-005
  -5.7299999999999990E-002     3.3817487880950651E-005
  -5.6199999999999986E-002     2.7255366810445712E-005
  -5.5099999999999996E-002     9.7504849033933969E-006
  -5.3999999999999992E-002    -1.7070120762255994E-005
  -5.2899999999999989E-002    -4.8612655052762644E-005
  -5.1799999999999985E-002    -7.8007422045817308E-005
  -5.0699999999999995E-002    -9.7416359672504715E-005
  -4.9599999999999991E-002    -9.9595004916128320E-005
  -4.8499999999999988E-002    -7.9313408090609703E-005
  -4.7399999999999998E-002    -3.4370635471639141E-005
  -4.6299999999999994E-002     3.3835546856250581E-005
  -4.5199999999999990E-002     1.2001793070261909E-004
  -4.4099999999999986E-002     2.1475845572736208E-004
  -4.2999999999999997E-002     3.0421961567273788E-004
  -4.1899999999999993E-002     3.7000019084935335E-004
  -4.0799999999999989E-002     3.8963697458222672E-004
  -3.9699999999999985E-002     3.3841491302807495E-004
  -3.8599999999999995E-002     1.9302579923164575E-004
  -3.7499999999999992E-002    -6.2818015510968575E-005
  -3.6399999999999988E-002    -4.3135039982003504E-004
  -3.5299999999999984E-002    -8.9347931061602116E-004
  -3.4199999999999994E-002    -1.4028719326934539E-003
  -3.3099999999999991E-002    -1.8830077235049180E-003
  -3.1999999999999987E-002    -2.2283774170413439E-003
  -3.0899999999999997E-002    -2.3102206537721952E-003
  -2.9799999999999993E-002    -1.9862522169414765E-003
  -2.8699999999999989E-002    -1.1129523820363793E-003
  -2.7599999999999986E-002     4.4162432317390430E-004
  -2.6499999999999996E-002     2.7868323562564700E-003
  -2.5399999999999992E-002     6.0024101841044553E-003
  -2.4299999999999988E-002     1.0137202232856709E-002
  -2.3199999999999985E-002     1.5214678096229225E-002
  -2.2099999999999995E-002     2.1245429286382626E-002
  -2.0999999999999991E-002     2.8245910765663240E-002
  -1.9899999999999987E-002     3.6261895091915498E-002
  -1.8799999999999983E-002     4.5394596259609794E-002
  -1.7699999999999994E-002     5.5827340626871891E-002
  -1.6599999999999990E-002     6.7851051486939248E-002
  -1.5499999999999986E-002     8.1887550577437934E-002
  -1.4399999999999996E-002     9.8510490880297452E-002
  -1.3299999999999992E-002    0.11846428587429367
  -1.2199999999999989E-002    0.14268144721571024
  -1.1099999999999985E-002    0.17229828074923489
  -9.9999999999999950E-003    0.20866821448657027
  -8.8999999999999913E-003    0.25337165187404292
  -7.7999999999999875E-003    0.30822166251852845
  -6.6999999999999837E-003    0.37526625874112179
  -5.5999999999999939E-003    0.45679019030452012
  -4.4999999999999901E-003    0.55532135777593450
  -3.3999999999999864E-003    0.67364807625269540
  -2.2999999999999826E-003    0.81485265157145359
  -1.1999999999999927E-003    0.98236378136671287
  -9.9999999999988987E-005     1.1800257119031961
   1.0000000000000148E-003     1.4121771613947605
   2.1000000000000185E-003     1.6837293796910759
   3.2000000000000084E-003     2.0002316839129097
   4.3000000000000121E-003     2.3679148745485605
   5.4000000000000159E-003     2.7937074740591350
   6.5000000000000058E-003     3.2852251820676996
   7.6000000000000234E-003     3.8507383731439484
   8.7000000000000133E-003     4.4991242951239361
   9.8000000000000032E-003     5.2398092392292268
   1.0900000000000021E-002     6.0827019226591483
   1.2000000000000011E-002     7.0381141811343868
   1.3100000000000001E-002     8.1166606989579684
   1.4200000000000018E-002     9.3291274335279901
   1.5300000000000008E-002     10.686299248404206
   1.6400000000000026E-002     12.198740624232345
   1.7500000000000016E-002     13.876527928609669
   1.8600000000000005E-002     15.728936057696369
   1.9700000000000023E-002     17.764085039446758
   2.0800000000000013E-002     19.988552785396831
   2.1900000000000003E-002     22.406958731381849
   2.3000000000000020E-002     25.021520379395476
   2.4100000000000010E-002     27.831581859707047
   2.5200000000000000E-002     30.833111761685757
   2.6300000000000018E-002     34.018167659371379
   2.7400000000000008E-002     37.374327660651936
   2.8500000000000025E-002     40.884095086159839
   2.9600000000000015E-002     44.524290486177215
   3.0700000000000005E-002     48.265454294889658
   3.1800000000000023E-002     52.071291502017225
   3.2900000000000013E-002     55.898194562415526
   3.4000000000000002E-002     59.694880615476769
   3.5100000000000020E-002     63.402173459522047
   3.6200000000000010E-002     66.952950902652987
   3.7300000000000028E-002     70.272267050426606
   3.8400000000000017E-002     73.277650607169733
   3.9500000000000007E-002     75.879577658210323
   4.0600000000000025E-002     77.982122006825762
   4.1700000000000015E-002     79.483796471535058
   4.2800000000000005E-002     80.278610444021851
   4.3900000000000022E-002     80.257376924198425
   4.5000000000000012E-002     79.309301294903392
   4.6100000000000002E-002     77.323872024286132
   4.7200000000000020E-002     74.193051797400102
   4.8300000000000010E-002     69.813741247605677
   4.9400000000000027E-002     64.090463218512966
   5.0500000000000017E-002     56.938199373673207
   5.1600000000000007E-002     48.285306049935990
   5.2700000000000025E-002     38.076441472739788
   5.3800000000000014E-002     26.275447113272271
   5.4900000000000004E-002     12.868135589676678
   5.6000000000000022E-002    -2.1350596153533896
   5.7100000000000012E-002    -18.696623995504023
   5.8200000000000002E-002    -36.749757792676228
   5.9300000000000019E-002    -56.196512845319631
   6.0400000000000009E-002    -76.906371952752252
   6.1500000000000027E-002    -98.715380246473615
   6.2600000000000017E-002    -121.42593437197128
   6.3700000000000007E-002    -144.80731942785272
   6.4800000000000024E-002    -168.59705794092955
   6.5900000000000014E-002    -192.50310378636317
   6.7000000000000004E-002    -216.20688148810666
   6.8100000000000022E-002    -239.36714178880007
   6.9200000000000012E-002    -261.62458057959788
   7.0300000000000029E-002    -282.60715152732672
   7.1400000000000019E-002    -301.93599267512968
   7.2500000000000009E-002    -319.23188189920671
   7.3600000000000027E-002    -334.12213189692801
   7.4700000000000016E-002    -346.24782808512856
   7.5800000000000006E-002    -355.27129855893452
   7.6900000000000024E-002    -360.88368227629678
   7.8000000000000014E-002    -362.81243147019950
   7.9100000000000004E-002    -360.82855238815733
   8.0200000000000021E-002    -354.75336311129990
   8.1300000000000011E-002    -344.46453711972697
   8.2400000000000029E-002    -329.90121240800607
   8.3500000000000019E-002    -311.06797888319943
   8.4600000000000009E-002    -288.03760577072370
   8.5700000000000026E-002    -260.95242527790299
   8.6800000000000016E-002    -230.02433703712742
   8.7900000000000006E-002    -195.53343117228397
   8.9000000000000024E-002    -157.82524395860375
   9.0100000000000013E-002    -117.30666410354016
   9.1200000000000003E-002    -74.440510116097954
   9.2300000000000021E-002    -29.738811554707365
   9.3400000000000011E-002     16.245143090279079
   9.4500000000000028E-002     62.925880819875601
   9.5600000000000018E-002     109.69577002078162
   9.6700000000000008E-002     155.93576767275050
   9.7800000000000026E-002     201.02661143027620
   9.8900000000000016E-002     244.36015574202679
  0.10000000000000001          285.35055108293182
  0.10110000000000002          323.44498561010801
  0.10220000000000001          358.13374109641092
  0.10330000000000003          388.95935126230057
  0.10440000000000002          415.52468444667880
  0.10550000000000001          437.49980150380878
  0.10660000000000003          454.62746469300816
  0.10770000000000002          466.72719652128558
  0.10880000000000001          473.69781128349058
  0.10990000000000003          475.51836778656610
  0.11100000000000002          472.24752015276027
  0.11210000000000001          464.02127547743800
  0.11320000000000002          451.04920375438013
  0.11430000000000001          433.60918803663253
  0.11540000000000003          412.04085085805070
  0.11650000000000002          386.73784304652156
  0.11760000000000001          358.13922638858162
  0.11870000000000003          326.72021345047489
  0.11980000000000002          292.98253871737313
  0.12090000000000001          257.44472221535727
  0.12200000000000003          220.63245380447432
  0.12310000000000001          183.06928344040793
  0.12420000000000003          145.26776278909202
  0.12530000000000002          107.72115739609929
  0.12640000000000001          70.895840336675221
  0.12750000000000003          35.224483662274942
  0.12860000000000002          1.1001721176361481
  0.12970000000000001         -31.128438305691233
  0.13080000000000003         -61.160815519985675
  0.13190000000000002         -88.747040441595317
  0.13300000000000001         -113.68908565208865
  0.13410000000000000         -135.84093602898483
  0.13520000000000004         -155.10764967853990
  0.13630000000000003         -171.44348509467011
  0.13740000000000002         -184.84922949833225
  0.13850000000000001         -195.36885968836222
  0.13960000000000000         -203.08565873752553
  0.14070000000000005         -208.11790579346177
  0.14180000000000004         -210.61425373066550
  0.14290000000000003         -210.74890769046570
  0.14400000000000002         -208.71671232503593
  0.14510000000000001         -204.72824456793177
  0.14620000000000000         -199.00499397169793
  0.14730000000000004         -191.77469967796600
  0.14840000000000003         -183.26690788219989
  0.14950000000000002         -173.70881848275883
  0.15060000000000001         -163.32150051095374
  0.15170000000000000         -152.31656355403862
  0.15280000000000005         -140.89336602282884
  0.15390000000000004         -129.23681438257012
  0.15500000000000003         -117.51576250250235
  0.15610000000000002         -105.88196826802090
  0.15720000000000001         -94.469521822253583
  0.15830000000000000         -83.394640798277422
  0.15940000000000004         -72.755738806557915
  0.16050000000000003         -62.633708738896544
  0.16160000000000002         -53.092406837142413
  0.16270000000000001         -44.179358173108490
  0.16380000000000000         -35.926714887313302
  0.16490000000000005         -28.352481358874822
  0.16600000000000004         -21.461983247638166
  0.16710000000000003         -15.249515696588272
  0.16820000000000002         -9.7000762701375738
  0.16930000000000001         -4.7910806324977937
  0.17040000000000000        -0.49397402814348468
  0.17150000000000004          3.2243187546239249
  0.17260000000000003          6.4001298395243040
  0.17370000000000002          9.0719704724631161
  0.17480000000000001          11.279623368739301
  0.17590000000000000          13.063383099829016
  0.17700000000000005          14.463419597713481
  0.17810000000000004          15.519237444224999
  0.17920000000000003          16.269202486020994
  0.18030000000000002          16.750111665474808
  0.18140000000000001          16.996795636023908
  0.18250000000000000          17.041766005135678
  0.18360000000000004          16.914942642774168
  0.18470000000000003          16.643509661367180
  0.18580000000000002          16.251940799753182
  0.18690000000000001          15.762202977197139
  0.18800000000000000          15.194098916657659
  0.18910000000000005          14.565663784331509
  0.19020000000000004          13.893507277906874
  0.19130000000000003          13.193005368439279
  0.19240000000000002          12.478294729341174
  0.19350000000000001          11.762091916603387
  0.19460000000000005          11.055422751974065
  0.19570000000000004          10.367379955255382
  0.19680000000000003          9.7050154428517015
  0.19790000000000002          9.0734223820920743
  0.19900000000000001          8.4759919296740716
  0.20010000000000000          7.9147688877067717
  0.20120000000000005          7.3908028199482336
  0.20230000000000004          6.9044053429994525
  0.20340000000000003          6.4552713759528473
  0.20450000000000002          6.0424801902374767
  0.20560000000000000          5.6644366845952385
  0.20670000000000005          5.3188282350094065
  0.20780000000000004          5.0026560728739886
  0.20890000000000003          4.7123643080929387
