 -0.12000000000000000          0.0000000000000000
 -0.11889999999999999          0.0000000000000000
 -0.11780000000000000          0.0000000000000000
 -0.11670000000000000          0.0000000000000000
 -0.11559999999999999          0.0000000000000000
 -0.11449999999999999          0.0000000000000000
 -0.11340000000000000          0.0000000000000000
 -0.11230000000000000          0.0000000000000000
 -0.11119999999999999          0.0000000000000000
 -0.11009999999999999          0.0000000000000000
 -0.10900000000000000          0.0000000000000000
 -0.10790000000000000          0.0000000000000000
 -0.10679999999999999          0.0000000000000000
 -0.10569999999999999          0.0000000000000000
 -0.10460000000000000          0.0000000000000000
 -0.10349999999999999          0.0000000000000000
 -0.10239999999999999          5.8663937178917823E-049
 -0.10130000000000000          1.3529763816854605E-047
 -0.10020000000000000          1.5406994415256055E-046
  -9.9099999999999994E-002     1.1490953886638017E-045
  -9.7999999999999990E-002     6.2717844077947344E-045
  -9.6899999999999986E-002     2.6464852563115224E-044
  -9.5799999999999996E-002     8.8609671725889079E-044
  -9.4699999999999993E-002     2.3593200187555183E-043
  -9.3599999999999989E-002     4.8240034320034437E-043
  -9.2499999999999999E-002     6.4730920831602469E-043
  -9.1399999999999995E-002    -5.7270658989652258E-045
  -9.0299999999999991E-002    -3.2972534682950082E-042
  -8.9200000000000002E-002    -1.2530437894829576E-041
  -8.8099999999999984E-002    -3.1956191282170727E-041
  -8.6999999999999994E-002    -6.3376648802764495E-041
  -8.5899999999999990E-002    -9.5139393077780436E-041
  -8.4799999999999986E-002    -7.3685739295184178E-041
  -8.3699999999999997E-002     1.5365448274480562E-040
  -8.2599999999999993E-002     9.1025170786237423E-040
  -8.1499999999999989E-002     2.6642022847015509E-039
  -8.0399999999999999E-002     5.5959983148300421E-039
  -7.9299999999999995E-002     8.2641911940352537E-039
  -7.8199999999999992E-002     5.1137143596838453E-039
  -7.7100000000000002E-002    -1.6014012970959483E-038
  -7.5999999999999984E-002    -7.2067541241296725E-038
  -7.4899999999999994E-002    -1.7052111480185135E-037
  -7.3799999999999991E-002    -2.7439068145570840E-037
  -7.2699999999999987E-002    -2.5004980195851789E-037
  -7.1599999999999997E-002     1.6730464828029776E-037
  -7.0499999999999993E-002     1.3089659691352038E-036
  -6.9399999999999989E-002     3.2960481686452351E-036
  -6.8300000000000000E-002     5.4863576914494282E-036
  -6.7199999999999996E-002     5.7827587542585374E-036
  -6.6099999999999992E-002     3.1777241779990181E-037
  -6.5000000000000002E-002    -1.5548877990137858E-035
  -6.3899999999999985E-002    -4.3861894766268621E-035
  -6.2799999999999995E-002    -7.7964151283602411E-035
  -6.1699999999999991E-002    -9.5218687215105572E-035
  -6.0599999999999994E-002    -5.3225044675650271E-035
  -5.9499999999999990E-002     1.0256952298651751E-034
  -5.8399999999999994E-002     4.1080123737292582E-034
  -5.7299999999999990E-002     8.4062467071955140E-034
  -5.6199999999999986E-002     1.2199432306261970E-033
  -5.5099999999999996E-002     1.1748698765728576E-033
  -5.3999999999999992E-002     1.3917909363977827E-034
  -5.2899999999999989E-002    -2.4813567758103615E-033
  -5.1799999999999985E-002    -6.9041604570514902E-033
  -5.0699999999999995E-002    -1.2299370378382302E-032
  -4.9599999999999991E-002    -1.5990877129799391E-032
  -4.8499999999999988E-002    -1.2949391772221748E-032
  -4.7399999999999998E-002     3.6518015809423785E-033
  -4.6299999999999994E-002     3.9819183207658940E-032
  -4.5199999999999990E-002     9.5302590951026504E-032
  -4.4099999999999986E-002     1.5572688793650483E-031
  -4.2999999999999997E-002     1.8498082672078980E-031
  -4.1899999999999993E-002     1.2367685537863120E-031
  -4.0799999999999989E-002    -9.7919623802969908E-032
  -3.9699999999999985E-002    -5.2454929692883276E-031
  -3.8599999999999995E-002    -1.1167829537225985E-030
  -3.7499999999999992E-002    -1.6811042628096454E-030
  -3.6399999999999988E-002    -1.8233362526986915E-030
  -3.5299999999999984E-002    -9.7976383008895053E-031
  -3.4199999999999994E-002     1.4135324392672248E-030
  -3.3099999999999991E-002     5.5773053442051187E-030
  -3.1999999999999987E-002     1.0904632029935365E-029
  -3.0899999999999997E-002     1.5480442937108074E-029
  -2.9799999999999993E-002     1.5881731434979438E-029
  -2.8699999999999989E-002     7.6319269841065021E-030
  -2.7599999999999986E-002    -1.3333902961076471E-029
  -2.6499999999999996E-002    -4.8052873514960210E-029
  -2.5399999999999992E-002    -9.1102277476418886E-029
  -2.4299999999999988E-002    -1.2740520618675917E-028
  -2.3199999999999985E-002    -1.3114358463378526E-028
  -2.2099999999999995E-002    -6.9245117624192965E-029
  -2.0999999999999991E-002     8.8204375171076793E-029
  -1.9899999999999987E-002     3.4968021775978957E-028
  -1.8799999999999983E-002     6.7828296895853091E-028
  -1.7699999999999994E-002     9.6922789266974222E-028
  -1.6599999999999990E-002     1.0414443262650987E-027
  -1.5499999999999986E-002     6.6005351681226416E-028
  -1.4399999999999996E-002    -3.9441938336740132E-028
  -1.3299999999999992E-002    -2.2040439442540564E-027
  -1.2199999999999989E-002    -4.5538900672045928E-027
  -1.1099999999999985E-002    -6.7815018276871073E-027
  -9.9999999999999950E-003    -7.7163092219621213E-027
  -8.8999999999999913E-003    -5.8120437929846952E-027
  -7.7999999999999875E-003     4.3476566194890396E-028
  -6.6999999999999837E-003     1.1749037773407120E-026
  -5.5999999999999939E-003     2.7116338437411380E-026
  -4.4999999999999901E-003     4.2862223963379168E-026
  -3.3999999999999864E-003     5.2217014379712010E-026
  -2.2999999999999826E-003     4.5924084111256364E-026
  -1.1999999999999927E-003     1.4399910380596766E-026
  -9.9999999999988987E-005    -4.8348528942018801E-026
   1.0000000000000148E-003    -1.3944415951218620E-025
   2.1000000000000185E-003    -2.4174614208999154E-025
   3.2000000000000084E-003    -3.2051827101356169E-025
   4.3000000000000121E-003    -3.2501405249659575E-025
   5.4000000000000159E-003    -1.9781914426716649E-025
   6.5000000000000058E-003     1.0638192946476024E-025
   7.6000000000000234E-003     5.9360580648672269E-025
   8.7000000000000133E-003     1.2000229022921526E-024
   9.8000000000000032E-003     1.7680211045477787E-024
   1.0900000000000021E-002     2.0430597236110854E-024
   1.2000000000000011E-002     1.7069120544295819E-024
   1.3100000000000001E-002     4.5903443851006583E-025
   1.4200000000000018E-002    -1.8533453120405313E-024
   1.5300000000000008E-002    -5.0746425410334002E-024
   1.6400000000000026E-002    -8.5920834756224830E-024
   1.7500000000000016E-002    -1.1263984258260609E-023
   1.8600000000000005E-002    -1.1503039567262352E-023
   1.9700000000000023E-002    -7.5829975605927663E-024
   2.0800000000000013E-002     1.8044359207530050E-024
   2.1900000000000003E-002     1.6792844950862553E-023
   2.3000000000000020E-002     3.5540218103220736E-023
   2.4100000000000010E-002     5.3650732367994729E-023
   2.5200000000000000E-002     6.4165684591741310E-023
   2.6300000000000018E-002     5.8471558484838585E-023
   2.7400000000000008E-002     2.8351487391397557E-023
   2.8500000000000025E-002    -3.0865441257482182E-023
   2.9600000000000015E-002    -1.1651414387113120E-022
   3.0700000000000005E-002    -2.1510713453054582E-022
   3.1800000000000023E-002    -3.0053410031429758E-022
   3.2900000000000013E-002    -3.3554144283596289E-022
   3.4000000000000002E-002    -2.7787318245704638E-022
   3.5100000000000020E-002    -9.1654282048853552E-023
   3.6200000000000010E-002     2.3684560745496834E-022
   3.7300000000000028E-002     6.8188364177688142E-022
   3.8400000000000017E-002     1.1642532242671959E-021
   3.9500000000000007E-002     1.5471264743259666E-021
   4.0600000000000025E-002     1.6485215979657132E-021
   4.1700000000000015E-002     1.2753944778851521E-021
   4.2800000000000005E-002     2.7995862997184695E-022
   4.3900000000000022E-002    -1.3680733105962971E-021
   4.5000000000000012E-002    -3.5080955138600960E-021
   4.6100000000000002E-002    -5.7368823056320432E-021
   4.7200000000000020E-002    -7.4061849093561770E-021
   4.8300000000000010E-002    -7.6957891136047153E-021
   4.9400000000000027E-002    -5.7776746275127266E-021
   5.0500000000000017E-002    -1.0664042259560079E-021
   5.1600000000000007E-002     6.4780608642556518E-021
   5.2700000000000025E-002     1.6061351272001558E-020
   5.3800000000000014E-002     2.5873418069100327E-020
   5.4900000000000004E-002     3.3121400101745765E-020
   5.6000000000000022E-002     3.4369606500821950E-020
   5.7100000000000012E-002     2.6232528061197604E-020
   5.8200000000000002E-002     6.3847701628550853E-021
   5.9300000000000019E-002    -2.5256920117925216E-020
   6.0400000000000009E-002    -6.5440195734331442E-020
   6.1500000000000027E-002    -1.0692567585964534E-019
   6.2600000000000017E-002    -1.3866410037562792E-019
   6.3700000000000007E-002    -1.4712663686330880E-019
   6.4800000000000024E-002    -1.1893223181143392E-019
   6.5900000000000014E-002    -4.4616599926120138E-020
   6.7000000000000004E-002     7.6996905650062517E-020
   6.8100000000000022E-002     2.3476221360501427E-019
   6.9200000000000012E-002     4.0275567777683073E-019
   7.0300000000000029E-002     5.4073961978908458E-019
   7.1400000000000019E-002     5.9865143591836707E-019
   7.2500000000000009E-002     5.2560295526362603E-019
   7.3600000000000027E-002     2.8287452201614016E-019
   7.4700000000000016E-002    -1.4086931893647245E-019
   7.5800000000000006E-002    -7.1519709610482711E-019
   7.6900000000000024E-002    -1.3583952185896141E-018
   7.8000000000000014E-002    -1.9371691991172247E-018
   7.9100000000000004E-002    -2.2792357866708487E-018
   8.0200000000000021E-002    -2.2006315142561049E-018
   8.1300000000000011E-002    -1.5465830452960089E-018
   8.2400000000000029E-002    -2.4101144680202786E-019
   8.3500000000000019E-002     1.6641769664614124E-018
   8.4600000000000009E-002     3.9520255671583313E-018
   8.5700000000000026E-002     6.2290892591339120E-018
   8.6800000000000016E-002     7.9516978411123003E-018
   8.7900000000000006E-002     8.4973466724512476E-018
   8.9000000000000024E-002     7.2806458934846420E-018
   9.0100000000000013E-002     3.9026746611992457E-018
   9.1200000000000003E-002    -1.6889797699689360E-018
   9.2300000000000021E-002    -9.0624093778814303E-018
   9.3400000000000011E-002    -1.7224734148530792E-017
   9.4500000000000028E-002    -2.4644693398486352E-017
   9.5600000000000018E-002    -2.9402854094537791E-017
   9.6700000000000008E-002    -2.9478687415149674E-017
   9.7800000000000026E-002    -2.3156613928108019E-017
   9.8900000000000016E-002    -9.5015229121128935E-018
  0.10000000000000001          1.1176181275486541E-017
  0.10110000000000002          3.6968364808393770E-017
  0.10220000000000001          6.4239451892551327E-017
  0.10330000000000003          8.7815333628406217E-017
  0.10440000000000002          1.0154967475314980E-016
  0.10550000000000001          9.9266452027409844E-017
  0.10660000000000003          7.6001086446799661E-017
  0.10770000000000002          2.9380440256198292E-017
  0.10880000000000001         -3.9091000075411192E-017
  0.10990000000000003         -1.2311857391863290E-016
  0.11100000000000002         -2.1136385317526436E-016
  0.11210000000000001         -2.8808744310262138E-016
  0.11320000000000002         -3.3481987193628572E-016
  0.11430000000000001         -3.3303408376314421E-016
  0.11540000000000003         -2.6759905612293706E-016
  0.11650000000000002         -1.3059155584850612E-016
  0.11760000000000001          7.5132730918836958E-017
  0.11870000000000003          3.3331818852744014E-016
  0.11980000000000002          6.1335866922306028E-016
  0.12090000000000001          8.7162411085652072E-016
  0.12200000000000003          1.0554260928196961E-015
  0.12310000000000001          1.1096213051983627E-015
  0.12420000000000003          9.8540794849848131E-016
  0.12530000000000002          6.5040119486945482E-016
  0.12640000000000001          9.8649978686483325E-017
  0.12750000000000003         -6.4104674504213309E-016
  0.12860000000000002         -1.5002813840419637E-015
  0.12970000000000001         -2.3712669231287542E-015
  0.13080000000000003         -3.1133866622475492E-015
  0.13190000000000002         -3.5666324008564234E-015
  0.13300000000000001         -3.5716060268862749E-015
  0.13410000000000000         -2.9947140714193546E-015
  0.13520000000000004         -1.7560967708263847E-015
  0.13630000000000003          1.4316019345601590E-016
  0.13740000000000002          2.5987279576963210E-015
  0.13850000000000001          5.3901883309269025E-015
  0.13960000000000000          8.1819753652674315E-015
  0.14070000000000005          1.0541595983089973E-014
  0.14180000000000004          1.1977089873327777E-014
  0.14290000000000003          1.1993504269564896E-014
  0.14400000000000002          1.0165443441731210E-014
  0.14510000000000001          6.2197247267155799E-015
  0.14620000000000000          1.1914771697811683E-016
  0.14730000000000004         -7.8642385051633199E-015
  0.14840000000000003         -1.7099740156485303E-014
  0.14950000000000002         -2.6586266913336577E-014
  0.15060000000000001         -3.4990589769981412E-014
  0.15170000000000000         -4.0744422179763873E-014
  0.15280000000000005         -4.2203298397809685E-014
  0.15390000000000004         -3.7862252541434405E-014
  0.15500000000000003         -2.6613728936976814E-014
  0.15610000000000002         -8.0229161605542116E-015
  0.15720000000000001          1.7413883999996156E-014
  0.15830000000000000          4.8069558921152842E-014
  0.15940000000000004          8.1090205856869531E-014
  0.16050000000000003          1.1244570453995211E-013
  0.16160000000000002          1.3716074253662363E-013
  0.16270000000000001          1.4974406209717357E-013
  0.16380000000000000          1.4481079607318754E-013
  0.16490000000000005          1.1786457156489628E-013
  0.16600000000000004          6.6175140735790035E-014
  0.16710000000000003         -1.0342826386274589E-014
  0.16820000000000002         -1.0836923936103870E-013
  0.16930000000000001         -2.2067130215861243E-013
  0.17040000000000000         -3.3598583585842593E-013
  0.17150000000000004         -4.3941142401335342E-013
  0.17260000000000003         -5.1339456088819759E-013
  0.17370000000000002         -5.3933788399300552E-013
  0.17480000000000001         -4.9978470984566184E-013
  0.17590000000000000         -3.8104755668537436E-013
  0.17700000000000005         -1.7605700625227237E-013
  0.17810000000000004          1.1287856197976186E-013
  0.17920000000000003          4.7178011393251819E-013
  0.18030000000000002          8.7358780670301554E-013
  0.18140000000000001          1.2780452543411304E-012
  0.18250000000000000          1.6332338966222792E-012
  0.18360000000000004          1.8789992951503883E-012
  0.18470000000000003          1.9523390014637950E-012
  0.18580000000000002          1.7945973899682150E-012
  0.18690000000000001          1.3600504656770387E-012
  0.18800000000000000          6.2518510918354837E-013
  0.18910000000000005         -4.0228801359105300E-013
  0.19020000000000004         -1.6758651544727690E-012
  0.19130000000000003         -3.1054302555415670E-012
  0.19240000000000002         -4.5564962616175006E-012
  0.19350000000000001         -5.8546641149337721E-012
  0.19460000000000005         -6.7961248336940050E-012
  0.19570000000000004         -7.1645153281390858E-012
  0.19680000000000003         -6.7537572744412921E-012
  0.19790000000000002         -5.3957008348146702E-012
  0.19900000000000001         -2.9905262909226969E-012
  0.20010000000000000          4.6298576524265102E-013
  0.20120000000000005          4.8409164098221319E-012
  0.20230000000000004          9.8754698191502906E-012
  0.20340000000000003          1.5148211381731217E-011
  0.20450000000000002          2.0099116225704354E-011
  0.20560000000000000          2.4054397251449900E-011
  0.20670000000000005          2.6274671255602921E-011
  0.20780000000000004          2.6023095906515105E-011
  0.20890000000000003          2.2650763784475153E-011
