 -0.12000000000000000          0.0000000000000000
 -0.11889999999999999          0.0000000000000000
 -0.11780000000000000          0.0000000000000000
 -0.11670000000000000          0.0000000000000000
 -0.11559999999999999          0.0000000000000000
 -0.11449999999999999          0.0000000000000000
 -0.11340000000000000          0.0000000000000000
 -0.11230000000000000          0.0000000000000000
 -0.11119999999999999          0.0000000000000000
 -0.11009999999999999          0.0000000000000000
 -0.10900000000000000          0.0000000000000000
 -0.10790000000000000          0.0000000000000000
 -0.10679999999999999          0.0000000000000000
 -0.10569999999999999          0.0000000000000000
 -0.10460000000000000          0.0000000000000000
 -0.10349999999999999          0.0000000000000000
 -0.10239999999999999          1.0666170396166876E-045
 -0.10130000000000000          2.2466336496865905E-044
 -0.10020000000000000          2.3306126411350854E-043
  -9.9099999999999994E-002     1.5760759077251116E-042
  -9.7999999999999990E-002     7.7379041270584010E-042
  -9.6899999999999986E-002     2.8976765246251578E-041
  -9.5799999999999996E-002     8.4013815049700884E-041
  -9.4699999999999993E-002     1.8384496704059499E-040
  -9.3599999999999989E-002     2.6427928991357330E-040
  -9.2499999999999999E-002     3.5555010296754447E-041
  -9.1399999999999995E-002    -1.2228936906876452E-039
  -9.0299999999999991E-002    -4.7616997682142502E-039
  -8.9200000000000002E-002    -1.2025908280030416E-038
  -8.8099999999999984E-002    -2.3293643333317134E-038
  -8.6999999999999994E-002    -3.3834461249580613E-038
  -8.5899999999999990E-002    -2.3915982886812020E-038
  -8.4799999999999986E-002     6.2922626127896108E-038
  -8.3699999999999997E-002     3.5042323212663076E-037
  -8.2599999999999993E-002     1.0252080862689484E-036
  -8.1499999999999989E-002     2.1637929625295544E-036
  -8.0399999999999999E-002     3.1667452740677009E-036
  -7.9299999999999995E-002     1.6845145063054099E-036
  -7.8199999999999992E-002    -7.4126542051261520E-036
  -7.7100000000000002E-002    -3.1001395486952624E-035
  -7.5999999999999984E-002    -7.0914110459115084E-035
  -7.4899999999999994E-002    -1.0809238692371150E-034
  -7.3799999999999991E-002    -8.0761370628755879E-035
  -7.2699999999999987E-002     1.2501751516910225E-034
  -7.1599999999999997E-002     6.3380875799238069E-034
  -7.0499999999999993E-002     1.4419390981074482E-033
  -6.9399999999999989E-002     2.1709376282744266E-033
  -6.8300000000000000E-002     1.8114433222786518E-033
  -6.7199999999999996E-002    -1.2725322989893614E-033
  -6.6099999999999992E-002    -8.6638064945717930E-033
  -6.5000000000000002E-002    -2.0184648792587768E-032
  -6.3899999999999985E-002    -3.1293563527649980E-032
  -6.2799999999999995E-002    -3.0710539231138731E-032
  -6.1699999999999991E-002    -6.6134428068520733E-034
  -6.0599999999999994E-002     7.7013421625149385E-032
  -5.9499999999999990E-002     2.0624942866970112E-031
  -5.8399999999999994E-002     3.5417187021467753E-031
  -5.7299999999999990E-002     4.2732528132464182E-031
  -5.6199999999999986E-002     2.6234482759653195E-031
  -5.5099999999999996E-002    -3.4429638042078553E-031
  -5.3999999999999992E-002    -1.5387777703666316E-030
  -5.2899999999999989E-002    -3.2258329013608952E-030
  -5.1799999999999985E-002    -4.8156283372593407E-030
  -5.0699999999999995E-002    -4.9938442469784987E-030
  -4.9599999999999991E-002    -1.7179862101434816E-030
  -4.8499999999999988E-002     7.2479595875573749E-030
  -4.7399999999999998E-002     2.2936028327286490E-029
  -4.6299999999999994E-002     4.2822847357652712E-029
  -4.5199999999999990E-002     5.8056075812106483E-029
  -4.4099999999999986E-002     5.1806282343308665E-029
  -4.2999999999999997E-002     1.3826972644822026E-030
  -4.1899999999999993E-002    -1.1284446334113423E-028
  -4.0799999999999989E-002    -2.9005822607995866E-028
  -3.9699999999999985E-002    -4.8563208869433729E-028
  -3.8599999999999995E-002    -5.9115637820341849E-028
  -3.7499999999999992E-002    -4.3488236559121191E-028
  -3.6399999999999988E-002     1.7627874761112801E-028
  -3.5299999999999984E-002     1.3574892934974917E-027
  -3.4199999999999994E-002     2.9939584689682817E-027
  -3.3099999999999991E-002     4.5765377218278888E-027
  -3.1999999999999987E-002     5.1095107976816490E-027
  -3.0899999999999997E-002     3.2101453971778239E-027
  -2.9799999999999993E-002    -2.4805299465026176E-027
  -2.8699999999999989E-002    -1.2519114509629993E-026
  -2.7599999999999986E-002    -2.5600576299793594E-026
  -2.6499999999999996E-002    -3.7524824707267742E-026
  -2.5399999999999992E-002    -4.0746818859020757E-026
  -2.4299999999999988E-002    -2.5258506068870661E-026
  -2.3199999999999985E-002     1.8461454347005021E-026
  -2.2099999999999995E-002     9.4081212943162768E-026
  -2.0999999999999991E-002     1.9219059213914587E-025
  -1.9899999999999987E-002     2.8322003074942275E-025
  -1.8799999999999983E-002     3.1423951688465243E-025
  -1.7699999999999994E-002     2.1475125349936794E-025
  -1.6599999999999990E-002    -8.3448646962356298E-026
  -1.5499999999999986E-002    -6.0998918840643378E-025
  -1.4399999999999996E-002    -1.3072342664656852E-024
  -1.3299999999999992E-002    -1.9829922078736875E-024
  -1.2199999999999989E-002    -2.2894552884000149E-024
  -1.1099999999999985E-002    -1.7607479124772837E-024
  -9.9999999999999950E-003     6.1098104704530801E-026
  -8.8999999999999913E-003     3.4012026752544250E-024
  -7.7999999999999875E-003     7.9566326973521188E-024
  -6.6999999999999837E-003     1.2614771141662818E-023
  -5.5999999999999939E-003     1.5325775520163107E-023
  -4.4999999999999901E-003     1.3303107254323787E-023
  -3.3999999999999864E-003     3.7056025935541178E-024
  -2.2999999999999826E-003    -1.5147293990746201E-023
  -1.1999999999999927E-003    -4.2169385519543980E-023
  -9.9999999999988987E-005    -7.1918685976120678E-023
   1.0000000000000148E-003    -9.3709733242365484E-023
   2.1000000000000185E-003    -9.2293871444553315E-023
   3.2000000000000084E-003    -5.0928181143756098E-023
   4.3000000000000121E-003     4.2754032992785088E-023
   5.4000000000000159E-003     1.8850943651526810E-022
   6.5000000000000058E-003     3.6458342481550771E-022
   7.6000000000000234E-003     5.2127816976987843E-022
   8.7000000000000133E-003     5.8129836805817599E-022
   9.8000000000000032E-003     4.5142563604296218E-022
   1.0900000000000021E-002     4.8644580435777518E-023
   1.2000000000000011E-002    -6.5982216076578344E-022
   1.3100000000000001E-002    -1.6090462318151549E-021
   1.4200000000000018E-002    -2.5952805873677484E-021
   1.5300000000000008E-002    -3.2616234653465589E-021
   1.6400000000000026E-002    -3.1337236884517735E-021
   1.7500000000000016E-002    -1.7242777345266359E-021
   1.8600000000000005E-002     1.2896317181598303E-021
   1.9700000000000023E-002     5.8377173848757819E-021
   2.0800000000000013E-002     1.1230343490298347E-020
   2.1900000000000003E-002     1.6021309291719009E-020
   2.3000000000000020E-002     1.8064823712568597E-020
   2.4100000000000010E-002     1.4863384041565927E-020
   2.5200000000000000E-002     4.2547109107005694E-021
   2.6300000000000018E-002    -1.4607667468705531E-020
   2.7400000000000008E-002    -4.0156098155732702E-020
   2.8500000000000025E-002    -6.7511044842230454E-020
   2.9600000000000015E-002    -8.8213869000767735E-020
   3.0700000000000005E-002    -9.1046114016349729E-020
   3.1800000000000023E-002    -6.4275641954107971E-020
   3.2900000000000013E-002     6.2592827835291000E-022
   3.4000000000000002E-002     1.0422545422876809E-019
   3.5100000000000020E-002     2.3435436469521882E-019
   3.6200000000000010E-002     3.6291816167536642E-019
   3.7300000000000028E-002     4.4624190072811184E-019
   3.8400000000000017E-002     4.3079370379973253E-019
   3.9500000000000007E-002     2.6533947812530514E-019
   4.0600000000000025E-002    -8.0984707871220694E-020
   4.1700000000000015E-002    -5.9742823772979938E-019
   4.2800000000000005E-002    -1.2124551221125737E-018
   4.3900000000000022E-002    -1.7839665880113246E-018
   4.5000000000000012E-002    -2.1069828724683094E-018
   4.6100000000000002E-002    -1.9453567489352304E-018
   4.7200000000000020E-002    -1.0897388941995572E-018
   4.8300000000000010E-002     5.6318579556585287E-019
   4.9400000000000027E-002     2.9242950882377627E-018
   5.0500000000000017E-002     5.6416510964108156E-018
   5.1600000000000007E-002     8.0755581585194735E-018
   5.2700000000000025E-002     9.3486062192003559E-018
   5.3800000000000014E-002     8.4915152300701354E-018
   5.4900000000000004E-002     4.6866339201942923E-018
   5.6000000000000022E-002    -2.4171677400557790E-018
   5.7100000000000012E-002    -1.2377520331988487E-017
   5.8200000000000002E-002    -2.3709312210452455E-017
   5.9300000000000019E-002    -3.3821033754602633E-017
   6.0400000000000009E-002    -3.9239467366135945E-017
   6.1500000000000027E-002    -3.6188678316252954E-017
   6.2600000000000017E-002    -2.1517548076442629E-017
   6.3700000000000007E-002     6.1311180988410345E-018
   6.4800000000000024E-002     4.5131436540931433E-017
   6.5900000000000014E-002     8.9987894159639068E-017
   6.7000000000000004E-002     1.3112757052432938E-016
   6.8100000000000022E-002     1.5571844393921921E-016
   6.9200000000000012E-002     1.4972421819135619E-016
   7.0300000000000029E-002     1.0115567637637802E-016
   7.1400000000000019E-002     4.1385347677718609E-018
   7.2500000000000009E-002    -1.3695395414002825E-016
   7.3600000000000027E-002    -3.0437046994630965E-016
   7.4700000000000016E-002    -4.6607287724025865E-016
   7.5800000000000006E-002    -5.7815944488402237E-016
   7.6900000000000024E-002    -5.9129168690649959E-016
   7.8000000000000014E-002    -4.6102464132551962E-016
   7.9100000000000004E-002    -1.6091460877197879E-016
   8.0200000000000021E-002     3.0383146770787647E-016
   8.1300000000000011E-002     8.8534756676502512E-016
   8.2400000000000029E-002     1.4884189759513038E-015
   8.3500000000000019E-002     1.9755599572549511E-015
   8.4600000000000009E-002     2.1841647712849009E-015
   8.5700000000000026E-002     1.9559510323070643E-015
   8.6800000000000016E-002     1.1760645712900039E-015
   8.7900000000000006E-002    -1.8397578703737250E-016
   8.9000000000000024E-002    -2.0282074474473652E-015
   9.0100000000000013E-002    -4.1135584294351732E-015
   9.1200000000000003E-002    -6.0530859908706112E-015
   9.2300000000000021E-002    -7.3531496598793777E-015
   9.3400000000000011E-002    -7.4874408322103708E-015
   9.4500000000000028E-002    -6.0033941677088268E-015
   9.5600000000000018E-002    -2.6478070978392442E-015
   9.6700000000000008E-002     2.5099283330903701E-015
   9.7800000000000026E-002     8.9847507342580942E-015
   9.8900000000000016E-002     1.5842687476642135E-014
  0.10000000000000001          2.1753138318993198E-014
  0.10110000000000002          2.5141740831747221E-014
  0.10220000000000001          2.4442053866721073E-014
  0.10330000000000003          1.8423185653015087E-014
  0.10440000000000002          6.5483436647005117E-015
  0.10550000000000001         -1.0699657711500432E-014
  0.10660000000000003         -3.1601006980518090E-014
  0.10770000000000002         -5.3163804275120757E-014
  0.10880000000000001         -7.1329723600532838E-014
  0.10990000000000003         -8.1447683387142971E-014
  0.11100000000000002         -7.8998278897641516E-014
  0.11210000000000001         -6.0499157333916694E-014
  0.11320000000000002         -2.4468895090927603E-014
  0.11430000000000001          2.7715782678457631E-014
  0.11540000000000003          9.1256994849191743E-014
  0.11650000000000002          1.5784755110431901E-013
  0.11760000000000001          2.1619660665448654E-013
  0.11870000000000003          2.5323149808842835E-013
  0.11980000000000002          2.5593301226724461E-013
  0.12090000000000001          2.1364051797541077E-013
  0.12200000000000003          1.2054490377581692E-013
  0.12310000000000001         -2.2008153996423261E-014
  0.12420000000000003         -2.0383431273063379E-013
  0.12530000000000002         -4.0526887568577787E-013
  0.12640000000000001         -5.9791515373780661E-013
  0.12750000000000003         -7.4698798031422313E-013
  0.12860000000000002         -8.1525681786728679E-013
  0.12970000000000001         -7.6835325319960470E-013
  0.13080000000000003         -5.8095536338002246E-013
  0.13190000000000002         -2.4312779772702101E-013
  0.13300000000000001          2.3408484130910908E-013
  0.13410000000000000          8.1480962317620046E-013
  0.13520000000000004          1.4372218324473809E-012
  0.13630000000000003          2.0159726480660746E-012
  0.13740000000000002          2.4486960141890256E-012
  0.13850000000000001          2.6266864825938496E-012
  0.13960000000000000          2.4492899434798380E-012
  0.14070000000000005          1.8409293616520546E-012
  0.14180000000000004          7.6905952968940643E-013
  0.14290000000000003         -7.3921517289464278E-013
  0.14400000000000002         -2.5845317868029674E-012
  0.14510000000000001         -4.5895022404981770E-012
  0.14620000000000000         -6.5024559590244826E-012
  0.14730000000000004         -8.0127917175963102E-012
  0.14840000000000003         -8.7790294666254737E-012
  0.14950000000000002         -8.4692010003768455E-012
  0.15060000000000001         -6.8113860117046669E-012
  0.15170000000000000         -3.6501274606270786E-012
  0.15280000000000005          9.9762524599832531E-013
  0.15390000000000004          6.8951854019567349E-012
  0.15500000000000003          1.3556675697057067E-011
  0.15610000000000002          2.0244802078256749E-011
  0.15720000000000001          2.6003925486380282E-011
  0.15830000000000000          2.9733665279359145E-011
  0.15940000000000004          3.0303874603762084E-011
  0.16050000000000003          2.6706123001842598E-011
  0.16160000000000002          1.8230309719378350E-011
  0.16270000000000001          4.6484531179852049E-012
  0.16380000000000000         -1.3618027707050696E-011
  0.16490000000000005         -3.5375107762569759E-011
  0.16600000000000004         -5.8605675563077956E-011
  0.16710000000000003         -8.0517901022494072E-011
  0.16820000000000002         -9.7711940749804315E-011
  0.16930000000000001         -1.0647362797305700E-010
  0.17040000000000000         -1.0318916057205847E-010
  0.17150000000000004         -8.4857363345991544E-011
  0.17260000000000003         -4.9657430971906901E-011
  0.17370000000000002          2.4877525995287850E-012
  0.17480000000000001          6.9427109486550562E-011
  0.17590000000000000          1.4645862353215382E-010
  0.17700000000000005          2.2625146816439521E-010
  0.17810000000000004          2.9908592862112157E-010
  0.17920000000000003          3.5346234765661729E-010
  0.18030000000000002          3.7709709374428715E-010
  0.18140000000000001          3.5828008377955812E-010
  0.18250000000000000          2.8751744764071263E-010
  0.18360000000000004          1.5932873150130434E-010
  0.18470000000000003         -2.5983810931473980E-011
  0.18580000000000002         -2.6081911906048960E-010
  0.18690000000000001         -5.2926619783255818E-010
  0.18800000000000000         -8.0685263215560599E-010
  0.18910000000000005         -1.0612803183436691E-009
  0.19020000000000004         -1.2543144832594509E-009
  0.19130000000000003         -1.3448947914110906E-009
  0.19240000000000002         -1.2934070378178794E-009
  0.19350000000000001         -1.0668981500298866E-009
  0.19460000000000005         -6.4484861135235367E-010
  0.19570000000000004         -2.4952287638701223E-011
  0.19680000000000003          7.7178511254378140E-010
  0.19790000000000002          1.6974084140500773E-009
  0.19900000000000001          2.6756362112080567E-009
  0.20010000000000000          3.6034766181834848E-009
  0.20120000000000005          4.3563972810519345E-009
  0.20230000000000004          4.7973361904538075E-009
  0.20340000000000003          4.7894666506024230E-009
  0.20450000000000002          4.2121785202578192E-009
  0.20560000000000000          2.9792415265522592E-009
  0.20670000000000005          1.0576202991805049E-009
  0.20780000000000004         -1.5150300247947181E-009
  0.20890000000000003         -4.6164829243688333E-009
