 -0.12000000000000000          0.0000000000000000
 -0.11889999999999999          0.0000000000000000
 -0.11780000000000000          0.0000000000000000
 -0.11670000000000000          0.0000000000000000
 -0.11559999999999999          0.0000000000000000
 -0.11449999999999999          0.0000000000000000
 -0.11340000000000000          0.0000000000000000
 -0.11230000000000000         -1.5581698330788394E-077
 -0.11119999999999999         -1.1722071676885231E-052
 -0.11009999999999999          1.8290189965527903E-027
 -0.10900000000000000          2.0251539870684800E-026
 -0.10790000000000000          1.0309082165590833E-025
 -0.10679999999999999          2.9264446654302437E-025
 -0.10569999999999999          3.5614386891156150E-025
 -0.10460000000000000         -7.2920627326812064E-025
 -0.10349999999999999         -4.6489978580571320E-024
 -0.10239999999999999         -1.0798710482213565E-023
 -0.10130000000000000         -9.2872053173897951E-024
 -0.10020000000000000          2.4022789785433398E-023
  -9.9099999999999994E-002     1.1181818566751953E-022
  -9.7999999999999990E-002     2.1845603237095399E-022
  -9.6899999999999986E-002     1.6910178041595052E-022
  -9.5799999999999996E-002    -3.4957709281420361E-022
  -9.4699999999999993E-002    -1.5253437995209503E-021
  -9.3599999999999989E-002    -2.8065459879872019E-021
  -9.2499999999999999E-002    -2.2749582202188182E-021
  -9.1399999999999995E-002     3.0126412657447965E-021
  -9.0299999999999991E-002     1.4480719069185411E-020
  -8.9200000000000002E-002     2.7198249470651607E-020
  -8.8099999999999984E-002     2.5727817826410515E-020
  -8.6999999999999994E-002    -1.2668813904733686E-020
  -8.5899999999999990E-002    -1.0039526901040386E-019
  -8.4799999999999986E-002    -2.0824964768792582E-019
  -8.3699999999999997E-002    -2.3880647769622116E-019
  -8.2599999999999993E-002    -4.1641829189705427E-020
  -8.1499999999999989E-002     4.9170269851803595E-019
  -8.0399999999999999E-002     1.2548690474479661E-018
  -7.9299999999999995E-002     1.7620770977260150E-018
  -7.8199999999999992E-002     1.1692597879297202E-018
  -7.7100000000000002E-002    -1.3267817312423383E-018
  -7.5999999999999984E-002    -5.6744151674150981E-018
  -7.4899999999999994E-002    -1.0051508868634014E-017
  -7.3799999999999991E-002    -1.0573014509299919E-017
  -7.2699999999999987E-002    -2.5103179370223991E-018
  -7.1599999999999997E-002     1.6543683137980477E-017
  -7.0499999999999993E-002     4.2364132356115451E-017
  -6.9399999999999989E-002     6.1099378003169466E-017
  -6.8300000000000000E-002     5.1150566277272819E-017
  -6.7199999999999996E-002    -7.3033773026888456E-018
  -6.6099999999999992E-002    -1.1590793539730444E-016
  -6.5000000000000002E-002    -2.4135536715839319E-016
  -6.3899999999999985E-002    -3.1000533703770950E-016
  -6.2799999999999995E-002    -2.2641742659509402E-016
  -6.1699999999999991E-002     7.9156289901203717E-017
  -6.0599999999999994E-002     5.8526522252444662E-016
  -5.9499999999999990E-002     1.1259488475553915E-015
  -5.8399999999999994E-002     1.3917342397860839E-015
  -5.7299999999999990E-002     1.0195763906747833E-015
  -5.6199999999999986E-002    -2.2693370419360498E-016
  -5.5099999999999996E-002    -2.2387399554649942E-015
  -5.3999999999999992E-002    -4.4068554327103068E-015
  -5.2899999999999989E-002    -5.6541817017389180E-015
  -5.1799999999999985E-002    -4.7358092851298971E-015
  -5.0699999999999995E-002    -7.8708656410374709E-016
  -4.9599999999999991E-002     6.0387126404166623E-015
  -4.8499999999999988E-002     1.4114927849166687E-014
  -4.7399999999999998E-002     2.0363280372995140E-014
  -4.6299999999999994E-002     2.0938959910647371E-014
  -4.5199999999999990E-002     1.2536274088962603E-014
  -4.4099999999999986E-002    -6.0030967077526527E-015
  -4.2999999999999997E-002    -3.2308156100035484E-014
  -4.1899999999999993E-002    -5.9900070765899628E-014
  -4.0799999999999989E-002    -7.8843587902722551E-014
  -3.9699999999999985E-002    -7.7753710738149100E-014
  -3.8599999999999995E-002    -4.6938044087508099E-014
  -3.7499999999999992E-002     1.7831837529590490E-014
  -3.6399999999999988E-002     1.1162421599024716E-013
  -3.5299999999999984E-002     2.1759228177116333E-013
  -3.4199999999999994E-002     3.0622870046421640E-013
  -3.3099999999999991E-002     3.3791883509386031E-013
  -3.1999999999999987E-002     2.7009966314152424E-013
  -3.0899999999999997E-002     6.9742460863033533E-014
  -2.9799999999999993E-002    -2.6970669744119229E-013
  -2.8699999999999989E-002    -7.1040682495169938E-013
  -2.7599999999999986E-002    -1.1577002089382327E-012
  -2.6499999999999996E-002    -1.4616733540960795E-012
  -2.5399999999999992E-002    -1.4404484535795408E-012
  -2.4299999999999988E-002    -9.2815666199076395E-013
  -2.3199999999999985E-002     1.5822983708775152E-013
  -2.2099999999999995E-002     1.7496570475110290E-012
  -2.0999999999999991E-002     3.5782741987077616E-012
  -1.9899999999999987E-002     5.1798737646427811E-012
  -1.8799999999999983E-002     5.9637246633909549E-012
  -1.7699999999999994E-002     5.3496328525799643E-012
  -1.6599999999999990E-002     2.9480955071457154E-012
  -1.5499999999999986E-002    -1.2620906685487612E-012
  -1.4399999999999996E-002    -6.8145391058737967E-012
  -1.3299999999999992E-002    -1.2742768263359745E-011
  -1.2199999999999989E-002    -1.7698167874837424E-011
  -1.1099999999999985E-002    -2.0186823636390123E-011
  -9.9999999999999950E-003    -1.8879608718187864E-011
  -8.8999999999999913E-003    -1.2929325364513799E-011
  -7.7999999999999875E-003    -2.2283085195061424E-012
  -6.6999999999999837E-003     1.2441836730867236E-011
  -5.5999999999999939E-003     2.9389411942895139E-011
  -4.4999999999999901E-003     4.6118382661376183E-011
  -3.3999999999999864E-003     5.9548274046284157E-011
  -2.2999999999999826E-003     6.6339208562920455E-011
  -1.1999999999999927E-003     6.3320353385893738E-011
  -9.9999999999988987E-005     4.8016352151534105E-011
   1.0000000000000148E-003     1.9240883349877849E-011
   2.1000000000000185E-003    -2.2318938727690283E-011
   3.2000000000000084E-003    -7.3651881561129632E-011
   4.3000000000000121E-003    -1.2925454109061383E-010
   5.4000000000000159E-003    -1.8137184749077471E-010
   6.5000000000000058E-003    -2.2069611031314012E-010
   7.6000000000000234E-003    -2.3746559565747901E-010
   8.7000000000000133E-003    -2.2280234945791646E-010
   9.8000000000000032E-003    -1.7007947712555743E-010
   1.0900000000000021E-002    -7.6134478728705730E-011
   1.2000000000000011E-002     5.7765574341440326E-011
   1.3100000000000001E-002     2.2519978854185429E-010
   1.4200000000000018E-002     4.1405634654099583E-010
   1.5300000000000008E-002     6.0618579449376985E-010
   1.6400000000000026E-002     7.7740533557803589E-010
   1.7500000000000016E-002     8.9820453020937004E-010
   1.8600000000000005E-002     9.3561155302990770E-010
   1.9700000000000023E-002     8.5659648346656542E-010
   2.0800000000000013E-002     6.3306552721173981E-010
   2.1900000000000003E-002     2.4799205635924975E-010
   2.3000000000000020E-002    -2.9830683902713873E-010
   2.4100000000000010E-002    -9.8309890495962493E-010
   2.5200000000000000E-002    -1.7587290707212059E-009
   2.6300000000000018E-002    -2.5536341062788547E-009
   2.7400000000000008E-002    -3.2771297803306209E-009
   2.8500000000000025E-002    -3.8274350726423122E-009
   2.9600000000000015E-002    -4.1018075006131062E-009
   3.0700000000000005E-002    -4.0074656359052529E-009
   3.1800000000000023E-002    -3.4722000808202943E-009
   3.2900000000000013E-002    -2.4540658759762885E-009
   3.4000000000000002E-002    -9.5002960736848163E-010
   3.5100000000000020E-002     9.9635808385802930E-010
   3.6200000000000010E-002     3.2884123334279817E-009
   3.7300000000000028E-002     5.7715904549078368E-009
   3.8400000000000017E-002     8.2319310525134669E-009
   3.9500000000000007E-002     1.0399369461526461E-008
   4.0600000000000025E-002     1.1957524812439332E-008
   4.1700000000000015E-002     1.2560906081698985E-008
   4.2800000000000005E-002     1.1859502501656980E-008
   4.3900000000000022E-002     9.5297434943337376E-009
   4.5000000000000012E-002     5.3101534653017124E-009
   4.6100000000000002E-002    -9.6015758351374340E-010
   4.7200000000000020E-002    -9.3018023713399183E-009
   4.8300000000000010E-002    -1.9555451868128214E-008
   4.9400000000000027E-002    -3.1343073267499925E-008
   5.0500000000000017E-002    -4.4030734683640140E-008
   5.1600000000000007E-002    -5.6693443896474025E-008
   5.2700000000000025E-002    -6.8082025824006593E-008
   5.3800000000000014E-002    -7.6591058593538088E-008
   5.4900000000000004E-002    -8.0225339139645840E-008
   5.6000000000000022E-002    -7.6560501724387827E-008
   5.7100000000000012E-002    -6.2691761555821124E-008
   5.8200000000000002E-002    -3.5163792054319160E-008
   5.9300000000000019E-002     1.0125323186973054E-008
   6.0400000000000009E-002     7.8052541403281657E-008
   6.1500000000000027E-002     1.7443661645861019E-007
   6.2600000000000017E-002     3.0624927176922914E-007
   6.3700000000000007E-002     4.8187841242374934E-007
   6.4800000000000024E-002     7.1145374197795904E-007
   6.5900000000000014E-002     1.0072484358780455E-006
   6.7000000000000004E-002     1.3841733179543094E-006
   6.8100000000000022E-002     1.8603814115945852E-006
   6.9200000000000012E-002     2.4580005589837408E-006
   7.0300000000000029E-002     3.2040106377813710E-006
   7.1400000000000019E-002     4.1312810094511312E-006
   7.2500000000000009E-002     5.2797845219421885E-006
   7.3600000000000027E-002     6.6980073571802338E-006
   7.4700000000000016E-002     8.4445789000039164E-006
   7.5800000000000006E-002     1.0590151253142144E-005
   7.6900000000000024E-002     1.3219562260682566E-005
   7.8000000000000014E-002     1.6434317593458624E-005
   7.9100000000000004E-002     2.0355426392524361E-005
   8.0200000000000021E-002     2.5126622259224186E-005
   8.1300000000000011E-002     3.0917998901089335E-005
   8.2400000000000029E-002     3.7930089149650035E-005
   8.3500000000000019E-002     4.6398417784631535E-005
   8.4600000000000009E-002     5.6598561332194000E-005
   8.5700000000000026E-002     6.8851749081002748E-005
   8.6800000000000016E-002     8.3531036027874908E-005
   8.7900000000000006E-002     1.0106806845331013E-004
   8.9000000000000024E-002     1.2196044649577426E-004
   9.0100000000000013E-002     1.4677966764703077E-004
   9.1200000000000003E-002     1.7617961376090012E-004
   9.2300000000000021E-002     2.1090552458439087E-004
   9.3400000000000011E-002     2.5180338354556053E-004
   9.4500000000000028E-002     2.9982962451979080E-004
   9.5600000000000018E-002     3.5606104762954871E-004
   9.6700000000000008E-002     4.2170480379362466E-004
   9.7800000000000026E-002     4.9810826961285400E-004
   9.8900000000000016E-002     5.8676858732459184E-004
  0.10000000000000001          6.8934159311813826E-004
  0.10110000000000002          8.0764980678793867E-004
  0.10220000000000001          9.4368911155573768E-004
  0.10330000000000003          1.0996337173913237E-003
  0.10440000000000002          1.2778389735589874E-003
  0.10550000000000001          1.4808415733848352E-003
  0.10660000000000003          1.7113566731347784E-003
  0.10770000000000002          1.9722714261313449E-003
  0.10880000000000001          2.2666344146994666E-003
  0.10990000000000003          2.5976404509021151E-003
  0.11100000000000002          2.9686102180986537E-003
  0.11210000000000001          3.3829642439135894E-003
  0.11320000000000002          3.8441907336019170E-003
  0.11430000000000001          4.3558068510066040E-003
  0.11540000000000003          4.9213131112707956E-003
  0.11650000000000002          5.5441406449569103E-003
  0.11760000000000001          6.2275912089234256E-003
  0.11870000000000003          6.9747699583657058E-003
  0.11980000000000002          7.7885111594903121E-003
  0.12090000000000001          8.6712972130716520E-003
  0.12200000000000003          9.6251715709366019E-003
  0.12310000000000001          1.0651646351744051E-002
  0.12420000000000003          1.1751605689712178E-002
  0.12530000000000002          1.2925206073196444E-002
  0.12640000000000001          1.4171775147365045E-002
  0.12750000000000003          1.5489710669732513E-002
  0.12860000000000002          1.6876381523638885E-002
  0.12970000000000001          1.8328032913786239E-002
  0.13080000000000003          1.9839698082057339E-002
  0.13190000000000002          2.1405119073444365E-002
  0.13300000000000001          2.3016679226548046E-002
  0.13410000000000000          2.4665350136422973E-002
  0.13520000000000004          2.6340655823331980E-002
  0.13630000000000003          2.8030656736541738E-002
  0.13740000000000002          2.9721956038449338E-002
  0.13850000000000001          3.1399730369501611E-002
  0.13960000000000000          3.3047787005241192E-002
  0.14070000000000005          3.4648648989711567E-002
  0.14180000000000004          3.6183669456656194E-002
  0.14290000000000003          3.7633175913041855E-002
  0.14400000000000002          3.8976644738605980E-002
  0.14510000000000001          4.0192905540388471E-002
  0.14620000000000000          4.1260374300521686E-002
  0.14730000000000004          4.2157313496008250E-002
  0.14840000000000003          4.2862116590616402E-002
  0.14950000000000002          4.3353613542695346E-002
  0.15060000000000001          4.3611393270595579E-002
  0.15170000000000000          4.3616138386205434E-002
  0.15280000000000005          4.3349966950025659E-002
  0.15390000000000004          4.2796775515495093E-002
  0.15500000000000003          4.1942577317096351E-002
  0.15610000000000002          4.0775829127776039E-002
  0.15720000000000001          3.9287740089023186E-002
  0.15830000000000000          3.7472555729390386E-002
  0.15940000000000004          3.5327810458685403E-002
  0.16050000000000003          3.2854542069383208E-002
  0.16160000000000002          3.0057462195378574E-002
  0.16270000000000001          2.6945077263290304E-002
  0.16380000000000000          2.3529755212389755E-002
  0.16490000000000005          1.9827734146541535E-002
  0.16600000000000004          1.5859070107033382E-002
  0.16710000000000003          1.1647522306226987E-002
  0.16820000000000002          7.2203754145971173E-003
  0.16930000000000001          2.6081998088730305E-003
  0.17040000000000000         -2.1554479840790674E-003
  0.17150000000000004         -7.0343811261073174E-003
  0.17260000000000003         -1.1990189860517888E-002
  0.17370000000000002         -1.6982694620152779E-002
  0.17480000000000001         -2.1970437997461283E-002
  0.17590000000000000         -2.6911207792169472E-002
  0.17700000000000005         -3.1762582503819373E-002
  0.17810000000000004         -3.6482489896217288E-002
  0.17920000000000003         -4.1029768684763157E-002
  0.18030000000000002         -4.5364723060347854E-002
  0.18140000000000001         -4.9449659732857018E-002
  0.18250000000000000         -5.3249397486271312E-002
  0.18360000000000004         -5.6731739866201294E-002
  0.18470000000000003         -5.9867902499283115E-002
  0.18580000000000002         -6.2632887574811932E-002
  0.18690000000000001         -6.5005799113058968E-002
  0.18800000000000000         -6.6970093752931795E-002
  0.18910000000000005         -6.8513762919330354E-002
  0.19020000000000004         -6.9629443426024534E-002
  0.19130000000000003         -7.0314454891895514E-002
  0.19240000000000002         -7.0570763826748123E-002
  0.19350000000000001         -7.0404875850151483E-002
  0.19460000000000005         -6.9827659154331922E-002
  0.19570000000000004         -6.8854103883420309E-002
  0.19680000000000003         -6.7503023451811889E-002
  0.19790000000000002         -6.5796704881111084E-002
  0.19900000000000001         -6.3760515978691340E-002
  0.20010000000000000         -6.1422477650943955E-002
  0.20120000000000005         -5.8812809912392280E-002
  0.20230000000000004         -5.5963460285413352E-002
  0.20340000000000003         -5.2907623319437130E-002
  0.20450000000000002         -4.9679259887547518E-002
  0.20560000000000000         -4.6312624708588587E-002
  0.20670000000000005         -4.2841810156716197E-002
  0.20780000000000004         -3.9300313839138637E-002
  0.20890000000000003         -3.5720636655892909E-002
