 -0.12000000000000000          0.0000000000000000
 -0.11889999999999999          0.0000000000000000
 -0.11780000000000000          0.0000000000000000
 -0.11670000000000000          0.0000000000000000
 -0.11559999999999999          0.0000000000000000
 -0.11449999999999999          0.0000000000000000
 -0.11340000000000000          0.0000000000000000
 -0.11230000000000000          0.0000000000000000
 -0.11119999999999999          0.0000000000000000
 -0.11009999999999999          0.0000000000000000
 -0.10900000000000000          0.0000000000000000
 -0.10790000000000000         -7.4368203969102167E-025
 -0.10679999999999999         -1.1032978545937206E-023
 -0.10569999999999999         -7.9712421086670901E-023
 -0.10460000000000000         -3.6632209311085401E-022
 -0.10349999999999999         -1.1616118896426646E-021
 -0.10239999999999999         -2.5004568535564978E-021
 -0.10130000000000000         -2.8373615123122316E-021
 -0.10020000000000000          2.9023757480403681E-021
  -9.9099999999999994E-002     2.2739470649375182E-020
  -9.7999999999999990E-002     5.7901023955622198E-020
  -9.6899999999999986E-002     7.9794622722727267E-020
  -9.5799999999999996E-002     7.5500821508542774E-021
  -9.4699999999999993E-002    -2.6755599431703697E-019
  -9.3599999999999989E-002    -7.4908066161578795E-019
  -9.2499999999999999E-002    -1.0966806979051722E-018
  -9.1399999999999995E-002    -4.6989545284168283E-019
  -9.0299999999999991E-002     2.1396806469572664E-018
  -8.9200000000000002E-002     6.7200742197032985E-018
  -8.8099999999999984E-002     1.0476278939929602E-017
  -8.6999999999999994E-002     7.0336242142000825E-018
  -8.5899999999999990E-002    -1.0850791735083229E-017
  -8.4799999999999986E-002    -4.3489780630639494E-017
  -8.3699999999999997E-002    -7.4096874945096508E-017
  -8.2599999999999993E-002    -6.5417086660268862E-017
  -8.1499999999999989E-002     2.4341819252612012E-017
  -8.0399999999999999E-002     2.0124490750995411E-016
  -7.9299999999999995E-002     3.8779288457242492E-016
  -7.8199999999999992E-002     4.1114424630063056E-016
  -7.7100000000000002E-002     7.8192023756208076E-017
  -7.5999999999999984E-002    -6.5242096997514751E-016
  -7.4899999999999994E-002    -1.4834432109929447E-015
  -7.3799999999999991E-002    -1.7543230207853346E-015
  -7.2699999999999987E-002    -7.5530729408454825E-016
  -7.1599999999999997E-002     1.6274357026057737E-015
  -7.0499999999999993E-002     4.2892940244712478E-015
  -6.9399999999999989E-002     4.9581228396879594E-015
  -6.8300000000000000E-002     1.4704817756254879E-015
  -6.7199999999999996E-002    -5.9215556377124950E-015
  -6.6099999999999992E-002    -1.2622845485524022E-014
  -6.5000000000000002E-002    -1.0442389274020874E-014
  -6.3899999999999985E-002     7.2862703696921919E-015
  -6.2799999999999995E-002     3.7282848711032852E-014
  -6.1699999999999991E-002     5.9804240718263220E-014
  -6.0599999999999994E-002     4.2003483284699808E-014
  -5.9499999999999990E-002    -4.3153541408243626E-014
  -5.8399999999999994E-002    -1.8605081896480134E-013
  -5.7299999999999990E-002    -3.1490973140738158E-013
  -5.6199999999999986E-002    -3.0217716387041447E-013
  -5.5099999999999996E-002    -2.3247802893070295E-014
  -5.3999999999999992E-002     5.3981569249325744E-013
  -5.2899999999999989E-002     1.1987767791481571E-012
  -5.1799999999999985E-002     1.5449278703442642E-012
  -5.0699999999999995E-002     1.0905651393069899E-012
  -4.9599999999999991E-002    -4.3513226276727852E-013
  -4.8499999999999988E-002    -2.7537248658917072E-012
  -4.7399999999999998E-002    -4.8858518007511519E-012
  -4.6299999999999994E-002    -5.3941959096012128E-012
  -4.5199999999999990E-002    -3.0723704868280604E-012
  -4.4099999999999986E-002     2.1591548354476556E-012
  -4.2999999999999997E-002     8.6614528172108328E-012
  -4.1899999999999993E-002     1.3345341516845335E-011
  -4.0799999999999989E-002     1.3018584777395548E-011
  -3.9699999999999985E-002     6.3669647497917190E-012
  -3.8599999999999995E-002    -4.5435321370669751E-012
  -3.7499999999999992E-002    -1.4532348060241438E-011
  -3.6399999999999988E-002    -1.7930340430077511E-011
  -3.5299999999999984E-002    -1.2667245618164847E-011
  -3.4199999999999994E-002    -3.3502693826197617E-012
  -3.3099999999999991E-002    -3.5823123986060432E-013
  -3.1999999999999987E-002    -1.3481656131751906E-011
  -3.0899999999999997E-002    -4.2093537646749793E-011
  -2.9799999999999993E-002    -6.7693938640392347E-011
  -2.8699999999999989E-002    -5.6279591476599802E-011
  -2.7599999999999986E-002     2.5053642792459192E-011
  -2.6499999999999996E-002     1.8084898082768391E-010
  -2.5399999999999992E-002     3.6276557227191777E-010
  -2.4299999999999988E-002     4.6688988618167510E-010
  -2.3199999999999985E-002     3.6746895940895820E-010
  -2.2099999999999995E-002    -1.5105313216150397E-011
  -2.0999999999999991E-002    -6.3794711561361005E-010
  -1.9899999999999987E-002    -1.2950868891647849E-009
  -1.8799999999999983E-002    -1.6550489419744361E-009
  -1.7699999999999994E-002    -1.3895255247309871E-009
  -1.6599999999999990E-002    -3.5570861840415194E-010
  -1.5499999999999986E-002     1.2531604763665340E-009
  -1.4399999999999996E-002     2.8888288893455732E-009
  -1.3299999999999992E-002     3.8189149003380227E-009
  -1.2199999999999989E-002     3.4530844281141319E-009
  -1.1099999999999985E-002     1.6849662158766917E-009
  -9.9999999999999950E-003    -9.4539756620467407E-010
  -8.8999999999999913E-003    -3.4170947176797532E-009
  -7.7999999999999875E-003    -4.7143504780008356E-009
  -6.6999999999999837E-003    -4.4205731579239369E-009
  -5.5999999999999939E-003    -3.0685848967812960E-009
  -4.4999999999999901E-003    -1.9355036419278870E-009
  -3.3999999999999864E-003    -2.2311858291013947E-009
  -2.2999999999999826E-003    -4.0223788333075626E-009
  -1.1999999999999927E-003    -5.5540287996879574E-009
  -9.9999999999988987E-005    -3.6364192565962785E-009
   1.0000000000000148E-003     4.6666367546678180E-009
   2.1000000000000185E-003     1.9583034008145451E-008
   3.2000000000000084E-003     3.6692322034620531E-008
   4.3000000000000121E-003     4.7022289086612929E-008
   5.4000000000000159E-003     4.0087153459954964E-008
   6.5000000000000058E-003     9.3444998256117432E-009
   7.6000000000000234E-003    -4.2129736220934663E-008
   8.7000000000000133E-003    -9.8959580346656974E-008
   9.8000000000000032E-003    -1.3649078536935789E-007
   1.0900000000000021E-002    -1.2997201484494961E-007
   1.2000000000000011E-002    -6.7053173794029136E-008
   1.3100000000000001E-002     4.2030134154484082E-008
   1.4200000000000018E-002     1.6273779993720752E-007
   1.5300000000000008E-002     2.4637482635229036E-007
   1.6400000000000026E-002     2.5006296286197948E-007
   1.7500000000000016E-002     1.5862206665568125E-007
   1.8600000000000005E-002    -2.6507102791380317E-009
   1.9700000000000023E-002    -1.7314248430151907E-007
   2.0800000000000013E-002    -2.8122528288968341E-007
   2.1900000000000003E-002    -2.7866364815017945E-007
   2.3000000000000020E-002    -1.6841208022476931E-007
   2.4100000000000010E-002    -8.9913856638268456E-009
   2.5200000000000000E-002     1.1185822230249576E-007
   2.6300000000000018E-002     1.2544961764173407E-007
   2.7400000000000008E-002     2.8504070931283477E-008
   2.8500000000000025E-002    -1.0115559148862186E-007
   2.9600000000000015E-002    -1.3745018201666490E-007
   3.0700000000000005E-002     1.9273865157660871E-008
   3.1800000000000023E-002     3.6004521183020700E-007
   3.2900000000000013E-002     7.2708069046635245E-007
   3.4000000000000002E-002     8.5536133747336705E-007
   3.5100000000000020E-002     4.9932435954732483E-007
   3.6200000000000010E-002    -4.0167389246449027E-007
   3.7300000000000028E-002    -1.6036811260299097E-006
   3.8400000000000017E-002    -2.5702510283116810E-006
   3.9500000000000007E-002    -2.6553753996168257E-006
   4.0600000000000025E-002    -1.4133276781075979E-006
   4.1700000000000015E-002     1.0916823044194990E-006
   4.2800000000000005E-002     4.1409291499497681E-006
   4.3900000000000022E-002     6.5061563355261245E-006
   4.5000000000000012E-002     6.8912636215770688E-006
   4.6100000000000002E-002     4.5265820633141965E-006
   4.7200000000000020E-002    -3.4183097090618476E-007
   4.8300000000000010E-002    -6.3325355973534391E-006
   4.9400000000000027E-002    -1.1316146226568004E-005
   5.0500000000000017E-002    -1.3222573256731286E-005
   5.1600000000000007E-002    -1.0954595132779434E-005
   5.2700000000000025E-002    -4.9837471896446888E-006
   5.3800000000000014E-002     2.7100428751280672E-006
   5.4900000000000004E-002     9.4188403033112055E-006
   5.6000000000000022E-002     1.2914387812217839E-005
   5.7100000000000012E-002     1.2523899961119620E-005
   5.8200000000000002E-002     9.4954249994657634E-006
   5.9300000000000019E-002     6.3580012250142916E-006
   6.0400000000000009E-002     5.4741329660988803E-006
   6.1500000000000027E-002     7.4589927007624544E-006
   6.2600000000000017E-002     1.0343403141799671E-005
   6.3700000000000007E-002     1.0123779259148098E-005
   6.4800000000000024E-002     2.7113043685588816E-006
   6.5900000000000014E-002    -1.3476126909474294E-005
   6.7000000000000004E-002    -3.5558869251306752E-005
   6.8100000000000022E-002    -5.6106766791492600E-005
   6.9200000000000012E-002    -6.5433780525328081E-005
   7.0300000000000029E-002    -5.5661795583947844E-005
   7.1400000000000019E-002    -2.4897698592737754E-005
   7.2500000000000009E-002     2.0527102566872420E-005
   7.3600000000000027E-002     6.7229730156044109E-005
   7.4700000000000016E-002     9.9409168639247908E-005
   7.5800000000000006E-002     1.0528713243171351E-004
   7.6900000000000024E-002     8.2547808671934071E-005
   7.8000000000000014E-002     4.0032603890839562E-005
   7.9100000000000004E-002    -5.6048635475373292E-006
   8.0200000000000021E-002    -3.7261050720490810E-005
   8.1300000000000011E-002    -4.5594358071023445E-005
   8.2400000000000029E-002    -3.4059754295866518E-005
   8.3500000000000019E-002    -1.7796212227615724E-005
   8.4600000000000009E-002    -1.6119764517192903E-005
   8.5700000000000026E-002    -4.1627965995532012E-005
   8.6800000000000016E-002    -9.1129718187068384E-005
   8.7900000000000006E-002    -1.4349946549895685E-004
   8.9000000000000024E-002    -1.6682728392474508E-004
   9.0100000000000013E-002    -1.3288481383326786E-004
   9.1200000000000003E-002    -3.2899850289317794E-005
   9.2300000000000021E-002     1.1300885263391144E-004
   9.3400000000000011E-002     2.5848493583722918E-004
   9.4500000000000028E-002     3.4643205561390029E-004
   9.5600000000000018E-002     3.3206555112193426E-004
   9.6700000000000008E-002     2.0394237746185133E-004
   9.7800000000000026E-002    -6.8391079208308913E-006
   9.8900000000000016E-002    -2.3468168162680042E-004
  0.10000000000000001         -4.0277946867221039E-004
  0.10110000000000002         -4.5249844750680349E-004
  0.10220000000000001         -3.6623278731319963E-004
  0.10330000000000003         -1.7335846107627176E-004
  0.10440000000000002          6.3773110589901780E-005
  0.10550000000000001          2.7759842091295666E-004
  0.10660000000000003          4.2382479804080824E-004
  0.10770000000000002          4.9672073891671414E-004
  0.10880000000000001          5.2326758588257813E-004
  0.10990000000000003          5.3859584601415956E-004
  0.11100000000000002          5.5507441284335414E-004
  0.11210000000000001          5.4192229763894313E-004
  0.11320000000000002          4.2853973048851015E-004
  0.11430000000000001          1.3401325221930408E-004
  0.11540000000000003         -3.8785924304162903E-004
  0.11650000000000002         -1.1078952213235049E-003
  0.11760000000000001         -1.9055644475847718E-003
  0.11870000000000003         -2.5889149971978359E-003
  0.11980000000000002         -2.9464173333560392E-003
  0.12090000000000001         -2.8124467265519450E-003
  0.12200000000000003         -2.1214316903693056E-003
  0.12310000000000001         -9.3004166059940921E-004
  0.12420000000000003          5.9959406953794035E-004
  0.12530000000000002          2.2460532275366068E-003
  0.12640000000000001          3.7829214695368593E-003
  0.12750000000000003          5.0188444907168436E-003
  0.12860000000000002          5.8108040557664420E-003
  0.12970000000000001          6.0538245577704992E-003
  0.13080000000000003          5.6636921499243374E-003
  0.13190000000000002          4.5730585275220231E-003
  0.13300000000000001          2.7530896943188613E-003
  0.13410000000000000          2.5648177854647791E-004
  0.13520000000000004         -2.7383561414800182E-003
  0.13630000000000003         -5.9090445008336866E-003
  0.13740000000000002         -8.8171787024811932E-003
  0.13850000000000001         -1.0984525078020441E-002
  0.13960000000000000         -1.1998202884784266E-002
  0.14070000000000005         -1.1611541973888377E-002
  0.14180000000000004         -9.8076125916003107E-003
  0.14290000000000003         -6.8071077826779708E-003
  0.14400000000000002         -3.0240442621922059E-003
  0.14510000000000001          1.0093103787513060E-003
  0.14620000000000000          4.7216385518692875E-003
  0.14730000000000004          7.5686183851712717E-003
  0.14840000000000003          9.0861233282295024E-003
  0.14950000000000002          8.9452925857521157E-003
  0.15060000000000001          7.0252366900182541E-003
  0.15170000000000000          3.5039862726888721E-003
  0.15280000000000005         -1.0560801151489072E-003
  0.15390000000000004         -5.6716877955954549E-003
  0.15500000000000003         -8.9952814182814710E-003
  0.15610000000000002         -9.4854666227857012E-003
  0.15720000000000001         -5.6703694939492484E-003
  0.15830000000000000          3.5592268737867773E-003
  0.15940000000000004          1.8712755035945963E-002
  0.16050000000000003          3.9594542446751778E-002
  0.16160000000000002          6.5365063837813375E-002
  0.16270000000000001          9.4748234245407348E-002
  0.16380000000000000         0.12631932509335078
  0.16490000000000005         0.15879424589048252
  0.16600000000000004         0.19126393103820197
  0.16710000000000003         0.22336447169287241
  0.16820000000000002         0.25541838502978736
  0.16930000000000001         0.28859877138202855
  0.17040000000000000         0.32514369750517802
  0.17150000000000004         0.36859239070559724
  0.17260000000000003         0.42395611639651948
  0.17370000000000002         0.49770921863572698
  0.17480000000000001         0.59751254772149676
  0.17590000000000000         0.73166066749290859
  0.17700000000000005         0.90834780823943506
  0.17810000000000004          1.1349324488197803
  0.17920000000000003          1.4174081151963642
  0.18030000000000002          1.7602429729903981
  0.18140000000000001          2.1666489422676158
  0.18250000000000000          2.6392230652437121
  0.18360000000000004          3.1808164852519316
  0.18470000000000003          3.7954604777942755
  0.18580000000000002          4.4892149862025965
  0.18690000000000001          5.2708738180564891
  0.18800000000000000          6.1525187916937556
  0.18910000000000005          7.1499284761571262
  0.19020000000000004          8.2828092941317149
  0.19130000000000003          9.5747534554654923
  0.19240000000000002          11.052784835802541
  0.19350000000000001          12.746371628049895
  0.19460000000000005          14.685877073219523
  0.19570000000000004          16.900562765620492
  0.19680000000000003          19.416399614044334
  0.19790000000000002          22.254020677386496
  0.19900000000000001          25.427131196049771
  0.20010000000000000          28.941577740268883
  0.20120000000000005          32.795113026365719
  0.20230000000000004          36.977737287955875
  0.20340000000000003          41.472403050031147
  0.20450000000000002          46.255856441103191
  0.20560000000000000          51.299433899512735
  0.20670000000000005          56.569692061334415
  0.20780000000000004          62.028775649702055
  0.20890000000000003          67.634405620933691
