 -0.12000000000000000          0.0000000000000000
 -0.11889999999999999          0.0000000000000000
 -0.11780000000000000          0.0000000000000000
 -0.11670000000000000          0.0000000000000000
 -0.11559999999999999          0.0000000000000000
 -0.11449999999999999          1.4695803400284828E-017
 -0.11340000000000000          1.1631088248254709E-016
 -0.11230000000000000          4.6038561288960950E-016
 -0.11119999999999999          1.1745812723320924E-015
 -0.11009999999999999          2.0380170558565441E-015
 -0.10900000000000000          2.1337210895042834E-015
 -0.10790000000000000         -4.4748380308330706E-017
 -0.10679999999999999         -5.6051401727195966E-015
 -0.10569999999999999         -1.3631432398373893E-014
 -0.10460000000000000         -2.0134987625449565E-014
 -0.10349999999999999         -1.9113100157876687E-014
 -0.10239999999999999         -6.0462457465128829E-015
 -0.10130000000000000          1.8252271913032022E-014
 -0.10020000000000000          4.7226356793410251E-014
  -9.9099999999999994E-002     7.3905303071826635E-014
  -9.7999999999999990E-002     9.8920331247943533E-014
  -9.6899999999999986E-002     1.3212021119004973E-013
  -9.5799999999999996E-002     1.7823213534233528E-013
  -9.4699999999999993E-002     2.0715633282551409E-013
  -9.3599999999999989E-002     1.2813937789715157E-013
  -9.2499999999999999E-002    -1.9775395870965866E-013
  -9.1399999999999995E-002    -8.7798055830962275E-013
  -9.0299999999999991E-002    -1.8493324222235650E-012
  -8.9200000000000002E-002    -2.7447152608317049E-012
  -8.8099999999999984E-002    -2.8770235531926581E-012
  -8.6999999999999994E-002    -1.4411276483364802E-012
  -8.5899999999999990E-002     2.0560261207639167E-012
  -8.4799999999999986E-002     7.2775346259914897E-012
  -8.3699999999999997E-002     1.2725985928842113E-011
  -8.2599999999999993E-002     1.5895771763371674E-011
  -8.1499999999999989E-002     1.4045973308190440E-011
  -8.0399999999999999E-002     5.4243564891692760E-012
  -7.9299999999999995E-002    -9.5458041778524329E-012
  -7.8199999999999992E-002    -2.7740613540194946E-011
  -7.7100000000000002E-002    -4.3908301176029626E-011
  -7.5999999999999984E-002    -5.2283053450770625E-011
  -7.4899999999999994E-002    -4.8605856161213152E-011
  -7.3799999999999991E-002    -3.1593648159544958E-011
  -7.2699999999999987E-002    -3.0940404048982585E-012
  -7.1599999999999997E-002     3.3118633350582037E-011
  -7.0499999999999993E-002     7.3052726399418007E-011
  -6.9399999999999989E-002     1.1334813052170441E-010
  -6.8300000000000000E-002     1.5024403022332931E-010
  -6.7199999999999996E-002     1.7688735323588468E-010
  -6.6099999999999992E-002     1.8078167788386324E-010
  -6.5000000000000002E-002     1.4410662579524409E-010
  -6.3899999999999985E-002     4.9022772996772678E-011
  -6.2799999999999995E-002    -1.1228401094406565E-010
  -6.1699999999999991E-002    -3.2631990805169588E-010
  -6.0599999999999994E-002    -5.5170334951749562E-010
  -5.9499999999999990E-002    -7.2307482468885814E-010
  -5.8399999999999994E-002    -7.6774259829432636E-010
  -5.7299999999999990E-002    -6.3134348092910447E-010
  -5.6199999999999986E-002    -3.0304445968284922E-010
  -5.5099999999999996E-002     1.7148431155154444E-010
  -5.3999999999999992E-002     6.9778843027212863E-010
  -5.2899999999999989E-002     1.1610423770651849E-009
  -5.1799999999999985E-002     1.4649419224532810E-009
  -5.0699999999999995E-002     1.5640041044259904E-009
  -4.9599999999999991E-002     1.4730644336659315E-009
  -4.8499999999999988E-002     1.2473576994531178E-009
  -4.7399999999999998E-002     9.4133152852765065E-010
  -4.6299999999999994E-002     5.6717920018744197E-010
  -4.5199999999999990E-002     7.7613881395232728E-011
  -4.4099999999999986E-002    -6.1199931792013358E-010
  -4.2999999999999997E-002    -1.5665775413298206E-009
  -4.1899999999999993E-002    -2.7645217531253419E-009
  -4.0799999999999989E-002    -4.0571962652257341E-009
  -3.9699999999999985E-002    -5.1837677009894104E-009
  -3.8599999999999995E-002    -5.8463513987960843E-009
  -3.7499999999999992E-002    -5.8190881766450722E-009
  -3.6399999999999988E-002    -5.0419457381128933E-009
  -3.5299999999999984E-002    -3.6495296612107141E-009
  -3.4199999999999994E-002    -1.9111657206665948E-009
  -3.3099999999999991E-002    -1.0163381744740422E-010
  -3.1999999999999987E-002     1.6378696302596117E-009
  -3.0899999999999997E-002     3.3734954851266075E-009
  -2.9799999999999993E-002     5.3336975058419088E-009
  -2.8699999999999989E-002     7.7450964556411494E-009
  -2.7599999999999986E-002     1.0611362273132609E-008
  -2.6499999999999996E-002     1.3538076423321715E-008
  -2.5399999999999992E-002     1.5701874069432561E-008
  -2.4299999999999988E-002     1.6008005423529555E-008
  -2.3199999999999985E-002     1.3397446737701214E-008
  -2.2099999999999995E-002     7.1906162639517334E-009
  -2.0999999999999991E-002    -2.6726815390929160E-009
  -1.9899999999999987E-002    -1.5599749179523981E-008
  -1.8799999999999983E-002    -3.0529855957655754E-008
  -1.7699999999999994E-002    -4.6245352718219348E-008
  -1.6599999999999990E-002    -6.1649540860747031E-008
  -1.5499999999999986E-002    -7.5857030840924627E-008
  -1.4399999999999996E-002    -8.8022862275531912E-008
  -1.3299999999999992E-002    -9.6957793052737413E-008
  -1.2199999999999989E-002    -1.0068136500911480E-007
  -1.1099999999999985E-002    -9.6098530093878575E-008
  -9.9999999999999950E-003    -7.8928192916122512E-008
  -8.8999999999999913E-003    -4.3885913456685168E-008
  -7.7999999999999875E-003     1.5013108895888549E-008
  -6.6999999999999837E-003     1.0424387561199209E-007
  -5.5999999999999939E-003     2.3084798755509479E-007
  -4.4999999999999901E-003     4.0287843088833071E-007
  -3.3999999999999864E-003     6.3014338862331732E-007
  -2.2999999999999826E-003     9.2506485083941729E-007
  -1.1999999999999927E-003     1.3034495948050457E-006
  -9.9999999999988987E-005     1.7850619288099295E-006
   1.0000000000000148E-003     2.3940468235823525E-006
   2.1000000000000185E-003     3.1593996908388291E-006
   3.2000000000000084E-003     4.1157391884961281E-006
   4.3000000000000121E-003     5.3045789188967809E-006
   5.4000000000000159E-003     6.7761415834392128E-006
   6.5000000000000058E-003     8.5915933347688016E-006
   7.6000000000000234E-003     1.0825485206491102E-005
   8.7000000000000133E-003     1.3568224796481471E-005
   9.8000000000000032E-003     1.6928551302382832E-005
   1.0900000000000021E-002     2.1036175491629309E-005
   1.2000000000000011E-002     2.6044874011567425E-005
   1.3100000000000001E-002     3.2136323545688097E-005
   1.4200000000000018E-002     3.9524821723557711E-005
   1.5300000000000008E-002     4.8462838752603455E-005
   1.6400000000000026E-002     5.9247185770177491E-005
   1.7500000000000016E-002     7.2225563328607415E-005
   1.8600000000000005E-002     8.7803386355651708E-005
   1.9700000000000023E-002     1.0645100376342622E-004
   2.0800000000000013E-002     1.2871161822152578E-004
   2.1900000000000003E-002     1.5521024785296919E-004
   2.3000000000000020E-002     1.8666391201882732E-004
   2.4100000000000010E-002     2.2389292638269349E-004
   2.5200000000000000E-002     2.6783289743331448E-004
   2.6300000000000018E-002     3.1954686544200065E-004
   2.7400000000000008E-002     3.8023714027636784E-004
   2.8500000000000025E-002     4.5125666844702113E-004
   2.9600000000000015E-002     5.3412011112410104E-004
   3.0700000000000005E-002     6.3051500649301327E-004
   3.1800000000000023E-002     7.4231329520626675E-004
   3.2900000000000013E-002     8.7158309789146836E-004
   3.4000000000000002E-002     1.0206000916934250E-003
   3.5100000000000020E-002     1.1918573718771675E-003
   3.6200000000000010E-002     1.3880725172948681E-003
   3.7300000000000028E-002     1.6121907886777914E-003
   3.8400000000000017E-002     1.8673838802376818E-003
   3.9500000000000007E-002     2.1570441790652551E-003
   4.0600000000000025E-002     2.4847747924205128E-003
   4.1700000000000015E-002     2.8543755104550438E-003
   4.2800000000000005E-002     3.2698244019876625E-003
   4.3900000000000022E-002     3.7352541038553773E-003
   4.5000000000000012E-002     4.2549213645871626E-003
   4.6100000000000002E-002     4.8331682945834510E-003
   4.7200000000000020E-002     5.4743741368674555E-003
   4.8300000000000010E-002     6.1828970688491995E-003
   4.9400000000000027E-002     6.9630062904409238E-003
   5.0500000000000017E-002     7.8188051515909133E-003
   5.1600000000000007E-002     8.7541461634864370E-003
   5.2700000000000025E-002     9.7725384774096525E-003
   5.3800000000000014E-002     1.0877048043015401E-002
   5.4900000000000004E-002     1.2070190473697616E-002
   5.6000000000000022E-002     1.3353816856542628E-002
   5.7100000000000012E-002     1.4728993353639445E-002
   5.8200000000000002E-002     1.6195876253470610E-002
   5.9300000000000019E-002     1.7753584850618686E-002
   6.0400000000000009E-002     1.9400074921410420E-002
   6.1500000000000027E-002     2.1132015567504051E-002
   6.2600000000000017E-002     2.2944671973861228E-002
   6.3700000000000007E-002     2.4831796449208344E-002
   6.4800000000000024E-002     2.6785530227269205E-002
   6.5900000000000014E-002     2.8796318967182034E-002
   6.7000000000000004E-002     3.0852845533062535E-002
   6.8100000000000022E-002     3.2941984132953878E-002
   6.9200000000000012E-002     3.5048779946420569E-002
   7.0300000000000029E-002     3.7156457842090915E-002
   7.1400000000000019E-002     3.9246462822869824E-002
   7.2500000000000009E-002     4.1298533788769173E-002
   7.3600000000000027E-002     4.3290811461756486E-002
   7.4700000000000016E-002     4.5199981088258255E-002
   7.5800000000000006E-002     4.7001450735946297E-002
   7.6900000000000024E-002     4.8669566265646509E-002
   7.8000000000000014E-002     5.0177863913330102E-002
   7.9100000000000004E-002     5.1499360523877186E-002
   8.0200000000000021E-002     5.2606879826931810E-002
   8.1300000000000011E-002     5.3473411087748696E-002
   8.2400000000000029E-002     5.4072494571147468E-002
   8.3500000000000019E-002     5.4378627046102301E-002
   8.4600000000000009E-002     5.4367680253485540E-002
   8.5700000000000026E-002     5.4017325667743282E-002
   8.6800000000000016E-002     5.3307459488121239E-002
   8.7900000000000006E-002     5.2220622010285454E-002
   8.9000000000000024E-002     5.0742404996918317E-002
   9.0100000000000013E-002     4.8861839448928690E-002
   9.1200000000000003E-002     4.6571754748064784E-002
   9.2300000000000021E-002     4.3869099158987769E-002
   9.3400000000000011E-002     4.0755211680778558E-002
   9.4500000000000028E-002     3.7236036375016421E-002
   9.5600000000000018E-002     3.3322272261286513E-002
   9.6700000000000008E-002     2.9029454045192738E-002
   9.7800000000000026E-002     2.4377960707659442E-002
   9.8900000000000016E-002     1.9392950012856406E-002
  0.10000000000000001          1.4104217405644678E-002
  0.10110000000000002          8.5459780538269994E-003
  0.10220000000000001          2.7565715315223649E-003
  0.10330000000000003         -3.2219097918780425E-003
  0.10440000000000002         -9.3440652451058787E-003
  0.10550000000000001         -1.5561697142889720E-002
  0.10660000000000003         -2.1824380407794497E-002
  0.10770000000000002         -2.8080080491742342E-002
  0.10880000000000001         -3.4275808905837132E-002
  0.10990000000000003         -4.0358305625606487E-002
  0.11100000000000002         -4.6274737675425309E-002
  0.11210000000000001         -5.1973402846753773E-002
  0.11320000000000002         -5.7404426650964263E-002
  0.11430000000000001         -6.2520439560189434E-002
  0.11540000000000003         -6.7277220937939253E-002
  0.11650000000000002         -7.1634296357794114E-002
  0.11760000000000001         -7.5555476457658852E-002
  0.11870000000000003         -7.9009327795325796E-002
  0.11980000000000002         -8.1969568702449688E-002
  0.12090000000000001         -8.4415385170512516E-002
  0.12200000000000003         -8.6331662947955662E-002
  0.12310000000000001         -8.7709132414206234E-002
  0.12420000000000003         -8.8544423029764716E-002
  0.12530000000000002         -8.8840025013965068E-002
  0.12640000000000001         -8.8604157898895988E-002
  0.12750000000000003         -8.7850548720596000E-002
  0.12860000000000002         -8.6598126216372404E-002
  0.12970000000000001         -8.4870640550444604E-002
  0.13080000000000003         -8.2696219952544975E-002
  0.13190000000000002         -8.0106875905087249E-002
  0.13300000000000001         -7.7137967509390670E-002
  0.13410000000000000         -7.3827634261882269E-002
  0.13520000000000004         -7.0216205624213657E-002
  0.13630000000000003         -6.6345596043305283E-002
  0.13740000000000002         -6.2258695375489011E-002
  0.13850000000000001         -5.7998766289383955E-002
  0.13960000000000000         -5.3608861203592581E-002
  0.14070000000000005         -4.9131270920467353E-002
  0.14180000000000004         -4.4607015201569053E-002
  0.14290000000000003         -4.0075382613963824E-002
  0.14400000000000002         -3.5573523984499894E-002
  0.14510000000000001         -3.1136101606258664E-002
  0.14620000000000000         -2.6794995351032424E-002
  0.14730000000000004         -2.2579066814498751E-002
  0.14840000000000003         -1.8513982834469440E-002
  0.14950000000000002         -1.4622099376814262E-002
  0.15060000000000001         -1.0922405436272223E-002
  0.15170000000000000         -7.4305244068295501E-003
  0.15280000000000005         -4.1587680137679600E-003
  0.15390000000000004         -1.1162362039692801E-003
  0.15500000000000003          1.6910440830345008E-003
  0.15610000000000002          4.2599476195237119E-003
  0.15720000000000001          6.5900521078004039E-003
  0.15830000000000000          8.6834158946710108E-003
  0.15940000000000004          1.0544336036739080E-002
  0.16050000000000003          1.2179091484604762E-002
  0.16160000000000002          1.3595677600424143E-002
  0.16270000000000001          1.4803539329126914E-002
  0.16380000000000000          1.5813310328106994E-002
  0.16490000000000005          1.6636563954943583E-002
  0.16600000000000004          1.7285579624146032E-002
  0.16710000000000003          1.7773125569463095E-002
  0.16820000000000002          1.8112257435662891E-002
  0.16930000000000001          1.8316131897503706E-002
  0.17040000000000000          1.8397835502673616E-002
  0.17150000000000004          1.8370230397380474E-002
  0.17260000000000003          1.8245819545156663E-002
  0.17370000000000002          1.8036633805612236E-002
  0.17480000000000001          1.7754141751370384E-002
  0.17590000000000000          1.7409180978096093E-002
  0.17700000000000005          1.7011907856551142E-002
  0.17810000000000004          1.6571761989827044E-002
  0.17920000000000003          1.6097442313723211E-002
  0.18030000000000002          1.5596893370020954E-002
  0.18140000000000001          1.5077301895795888E-002
  0.18250000000000000          1.4545104625410707E-002
  0.18360000000000004          1.4006007685496914E-002
  0.18470000000000003          1.3465016451461269E-002
  0.18580000000000002          1.2926473043010943E-002
  0.18690000000000001          1.2394097699203218E-002
  0.18800000000000000          1.1871030653373141E-002
  0.18910000000000005          1.1359872718120312E-002
  0.19020000000000004          1.0862724857964115E-002
  0.19130000000000003          1.0381228579932952E-002
  0.19240000000000002          9.9166092583082271E-003
  0.19350000000000001          9.4697233978861869E-003
  0.19460000000000005          9.0411088878582305E-003
  0.19570000000000004          8.6310354743036923E-003
  0.19680000000000003          8.2395518833631512E-003
  0.19790000000000002          7.8665266520430190E-003
  0.19900000000000001          7.5116814750309643E-003
  0.20010000000000000          7.1746179360907877E-003
  0.20120000000000005          6.8548399354276673E-003
  0.20230000000000004          6.5517743672137401E-003
  0.20340000000000003          6.2647916668177222E-003
  0.20450000000000002          5.9932263121522675E-003
  0.20560000000000000          5.7363960364143719E-003
  0.20670000000000005          5.4936180126506553E-003
  0.20780000000000004          5.2642207453546313E-003
  0.20890000000000003          5.0475514833518221E-003
