 -0.12000000000000000          0.0000000000000000
 -0.11889999999999999          0.0000000000000000
 -0.11780000000000000          0.0000000000000000
 -0.11670000000000000          0.0000000000000000
 -0.11559999999999999          0.0000000000000000
 -0.11449999999999999          0.0000000000000000
 -0.11340000000000000          0.0000000000000000
 -0.11230000000000000          0.0000000000000000
 -0.11119999999999999          0.0000000000000000
 -0.11009999999999999          0.0000000000000000
 -0.10900000000000000          0.0000000000000000
 -0.10790000000000000          0.0000000000000000
 -0.10679999999999999          0.0000000000000000
 -0.10569999999999999          0.0000000000000000
 -0.10460000000000000          0.0000000000000000
 -0.10349999999999999         -9.9448994099346449E-198
 -0.10239999999999999         -2.0493523370447429E-172
 -0.10130000000000000          3.3412996662118972E-146
 -0.10020000000000000          7.8461662218495131E-123
  -9.9099999999999994E-002    -1.4856223557284636E-096
  -9.7999999999999990E-002    -5.4947809794294382E-072
  -9.6899999999999986E-002    -5.7233851579561442E-048
  -9.5799999999999996E-002    -1.2580074763213494E-046
  -9.4699999999999993E-002    -1.2864047636137896E-045
  -9.3599999999999989E-002    -7.8225395970970193E-045
  -9.2499999999999999E-002    -2.8776929705842030E-044
  -9.1399999999999995E-002    -4.3983324706262392E-044
  -9.0299999999999991E-002     1.6636568751602828E-043
  -8.9200000000000002E-002     1.3355434264818109E-042
  -8.8099999999999984E-002     4.1523327497637387E-042
  -8.6999999999999994E-002     4.1927567753126578E-042
  -8.5899999999999990E-002    -2.1280222788106196E-041
  -8.4799999999999986E-002    -1.1763449553290020E-040
  -8.3699999999999997E-002    -2.6740985815168790E-040
  -8.2599999999999993E-002    -8.2864762220412286E-041
  -8.1499999999999989E-002     1.5921827901076075E-039
  -8.0399999999999999E-002     5.9559752961952929E-039
  -7.9299999999999995E-002     9.6314086555242716E-039
  -7.8199999999999992E-002    -4.8793170159152188E-039
  -7.7100000000000002E-002    -7.1513685612887492E-038
  -7.5999999999999984E-002    -1.9633030891579110E-037
  -7.4899999999999994E-002    -2.1919142670262541E-037
  -7.3799999999999991E-002     3.5530261027260788E-037
  -7.2699999999999987E-002     2.1625447292809953E-036
  -7.1599999999999997E-002     4.6504571054697579E-036
  -7.0499999999999993E-002     3.3423052877914150E-036
  -6.9399999999999989E-002    -1.1711647724071956E-035
  -6.8300000000000000E-002    -4.8331951192855988E-035
  -6.7199999999999996E-002    -8.5508186818075632E-035
  -6.6099999999999992E-002    -3.3985626311629840E-035
  -6.5000000000000002E-002     2.6039476796887214E-034
  -6.3899999999999985E-002     8.5403772422204319E-034
  -6.2799999999999995E-002     1.2976045568536600E-033
  -6.1699999999999991E-002     1.9653918035143940E-034
  -6.0599999999999994E-002    -4.4131749857008908E-033
  -5.9499999999999990E-002    -1.2524875750114684E-032
  -5.8399999999999994E-002    -1.7067341145510932E-032
  -5.7299999999999990E-002     7.5425848164973293E-035
  -5.6199999999999986E-002     6.0604867365476841E-032
  -5.5099999999999996E-002     1.5781349712745509E-031
  -5.3999999999999992E-002     2.0188151887012418E-031
  -5.2899999999999989E-002    -1.0945687011770243E-032
  -5.1799999999999985E-002    -6.9837626930563710E-031
  -5.0699999999999995E-002    -1.7492321634019106E-030
  -4.9599999999999991E-002    -2.1983586471214588E-030
  -4.8499999999999988E-002    -5.4638409655981953E-033
  -4.7399999999999998E-002     6.8837096165359805E-030
  -4.6299999999999994E-002     1.7307942093673618E-029
  -4.5199999999999990E-002     2.2257831668767066E-029
  -4.4099999999999986E-002     3.2144469976717275E-030
  -4.2999999999999997E-002    -5.8410546006963810E-029
  -4.1899999999999993E-002    -1.5398412938237083E-028
  -4.0799999999999989E-002    -2.0942276706589486E-028
  -3.9699999999999985E-002    -7.0879373845003339E-029
  -3.8599999999999995E-002     4.2322576264545958E-028
  -3.7499999999999992E-002     1.2329365615070680E-027
  -3.6399999999999988E-002     1.8195313399065320E-027
  -3.5299999999999984E-002     1.0097295061073565E-027
  -3.4199999999999994E-002    -2.5316689072708813E-027
  -3.3099999999999991E-002    -8.8394800067412484E-027
  -3.1999999999999987E-002    -1.4472795686405750E-026
  -3.0899999999999997E-002    -1.1237498543102544E-026
  -2.9799999999999993E-002     1.1202377019877178E-026
  -2.8699999999999989E-002     5.6032199897100089E-026
  -2.7599999999999986E-002     1.0439380327050682E-025
  -2.6499999999999996E-002     1.0425552854194605E-025
  -2.5399999999999992E-002    -1.8310570867493548E-026
  -2.4299999999999988E-002    -3.0589424201656726E-025
  -2.3199999999999985E-002    -6.7523772970879042E-025
  -2.2099999999999995E-002    -8.2978607046929675E-025
  -2.0999999999999991E-002    -2.8678197172142408E-025
  -1.9899999999999987E-002     1.3528261877193324E-024
  -1.8799999999999983E-002     3.8546095048074673E-024
  -1.7699999999999994E-002     5.7357177544274125E-024
  -1.6599999999999990E-002     4.1515206773787925E-024
  -1.5499999999999986E-002    -3.9393187485056347E-024
  -1.4399999999999996E-002    -1.8884071423280633E-023
  -1.3299999999999992E-002    -3.4475747619211340E-023
  -1.2199999999999989E-002    -3.5810900369313085E-023
  -1.1099999999999985E-002    -3.1568115745897318E-024
  -9.9999999999999950E-003     7.4590890202981885E-023
  -8.8999999999999913E-003     1.7835605888452339E-022
  -7.7999999999999875E-003     2.4036878834232980E-022
  -6.6999999999999837E-003     1.5005138034137217E-022
  -5.5999999999999939E-003    -1.9257027628582117E-022
  -4.4999999999999901E-003    -7.7075492294359092E-022
  -3.3999999999999864E-003    -1.3301168492128865E-021
  -2.2999999999999826E-003    -1.3370808468461146E-021
  -1.1999999999999927E-003    -1.4367657636476211E-022
  -9.9999999999988987E-005     2.5602741059817986E-021
   1.0000000000000148E-003     6.0943388037457756E-021
   2.1000000000000185E-003     8.2912563747245929E-021
   3.2000000000000084E-003     5.7584030747975249E-021
   4.3000000000000121E-003    -4.5237171317897631E-021
   5.4000000000000159E-003    -2.2227476881910728E-020
   6.5000000000000058E-003    -4.0416529756955009E-020
   7.6000000000000234E-003    -4.4435231252172435E-020
   8.7000000000000133E-003    -1.6059015392121115E-020
   9.8000000000000032E-003     5.5213286681255833E-020
   1.0900000000000021E-002     1.5581227184531189E-019
   1.2000000000000011E-002     2.3490448593163678E-019
   1.3100000000000001E-002     2.0796728330292999E-019
   1.4200000000000018E-002    -9.5342435872529068E-021
   1.5300000000000008E-002    -4.3606783160541721E-019
   1.6400000000000026E-002    -9.4631267457673061E-019
   1.7500000000000016E-002    -1.2307501162502402E-018
   1.8600000000000005E-002    -8.5785458239376347E-019
   1.9700000000000023E-002     5.1432453478023107E-019
   2.0800000000000013E-002     2.8005017366084993E-018
   2.1900000000000003E-002     5.1621314557180555E-018
   2.3000000000000020E-002     5.9430714068653663E-018
   2.4100000000000010E-002     3.1431483575539023E-018
   2.5200000000000000E-002    -4.4459512967507449E-018
   2.6300000000000018E-002    -1.5687216289900225E-017
   2.7400000000000008E-002    -2.5874821552780577E-017
   2.8500000000000025E-002    -2.6978181129263458E-017
   2.9600000000000015E-002    -1.0403515117727373E-017
   3.0700000000000005E-002     2.7563853099761022E-017
   3.1800000000000023E-002     7.9181106586491624E-017
   3.2900000000000013E-002     1.2108363007091803E-016
   3.4000000000000002E-002     1.1726045731787504E-016
   3.5100000000000020E-002     3.2814467124391171E-017
   3.6200000000000010E-002    -1.4217684950486206E-016
   3.7300000000000028E-002    -3.6654231961867293E-016
   3.8400000000000017E-002    -5.3488446644727992E-016
   3.9500000000000007E-002    -4.9570122005378151E-016
   4.0600000000000025E-002    -1.1254837977841368E-016
   4.1700000000000015E-002     6.3864925658946989E-016
   4.2800000000000005E-002     1.5707570900173739E-015
   4.3900000000000022E-002     2.2454257031029874E-015
   4.5000000000000012E-002     2.0586733265586398E-015
   4.6100000000000002E-002     4.8860406171267338E-016
   4.7200000000000020E-002    -2.5313666504484392E-015
   4.8300000000000010E-002    -6.2510670354547852E-015
   4.9400000000000027E-002    -8.9771100676970591E-015
   5.0500000000000017E-002    -8.4149818077777139E-015
   5.1600000000000007E-002    -2.5929596687195690E-015
   5.2700000000000025E-002     8.7830272736459691E-015
   5.3800000000000014E-002     2.3040334726245641E-014
   5.4900000000000004E-002     3.4092782919877847E-014
   5.6000000000000022E-002     3.3625826279160947E-014
   5.7100000000000012E-002     1.4280396805329463E-014
   5.8200000000000002E-002    -2.5683164495100640E-014
   5.9300000000000019E-002    -7.7890619245402667E-014
   6.0400000000000009E-002    -1.2207706588150103E-013
   6.1500000000000027E-002    -1.2961830666959430E-013
   6.2600000000000017E-002    -7.3633766467585615E-014
   6.3700000000000007E-002     5.5833831317796041E-014
   6.4800000000000024E-002     2.3658006000929796E-013
   6.5900000000000014E-002     4.0681686201309216E-013
   6.7000000000000004E-002     4.7378606739129374E-013
   6.8100000000000022E-002     3.4293969420016258E-013
   6.9200000000000012E-002    -3.5737424190432813E-014
   7.0300000000000029E-002    -6.1809965249854737E-013
   7.1400000000000019E-002    -1.2356543502155660E-012
   7.2500000000000009E-002    -1.6098019450870233E-012
   7.3600000000000027E-002    -1.4266543828809266E-012
   7.4700000000000016E-002    -4.6758466983730426E-013
   7.5800000000000006E-002     1.2382395179941071E-012
   7.6900000000000024E-002     3.2998660477739228E-012
   7.8000000000000014E-002     4.9607323696969921E-012
   7.9100000000000004E-002     5.2597455000210454E-012
   8.0200000000000021E-002     3.3624490924317295E-012
   8.1300000000000011E-002    -1.0065706305999368E-012
   8.2400000000000029E-002    -7.1746587010254201E-012
   8.3500000000000019E-002    -1.3364719753758714E-011
   8.4600000000000009E-002    -1.6941961424622759E-011
   8.5700000000000026E-002    -1.5134475898302427E-011
   8.6800000000000016E-002    -6.1283230660889356E-012
   8.7900000000000006E-002     9.7582490937148000E-012
   8.9000000000000024E-002     2.9267433252531789E-011
   9.0100000000000013E-002     4.6234501260958376E-011
   9.1200000000000003E-002     5.2782328030259059E-011
   9.2300000000000021E-002     4.1667507959936153E-011
   9.3400000000000011E-002     9.3221941550015022E-012
   9.4500000000000028E-002    -4.1291099766333376E-011
   9.5600000000000018E-002    -9.9137696592967880E-011
   9.6700000000000008E-002    -1.4592192053975677E-010
   9.7800000000000026E-002    -1.5980801411354400E-010
   9.8900000000000016E-002    -1.2177999342925313E-010
  0.10000000000000001         -2.3381201011372198E-011
  0.10110000000000002          1.2629315597655749E-010
  0.10220000000000001          2.9691431769020063E-010
  0.10330000000000003          4.3887305789748037E-010
  0.10440000000000002          4.9217422123008018E-010
  0.10550000000000001          4.0188271942260625E-010
  0.10660000000000003          1.3765571231864517E-010
  0.10770000000000002         -2.8709778021449663E-010
  0.10880000000000001         -8.0225968214616084E-010
  0.10990000000000003         -1.2803044218659380E-009
  0.11100000000000002         -1.5525976976101814E-009
  0.11210000000000001         -1.4443953104518663E-009
  0.11320000000000002         -8.2564805620019901E-010
  0.11430000000000001          3.3085826936226751E-010
  0.11540000000000003          1.8979895454119495E-009
  0.11650000000000002          3.5672191136938763E-009
  0.11760000000000001          4.8643643612859647E-009
  0.11870000000000003          5.2217822120213824E-009
  0.11980000000000002          4.1099715329360300E-009
  0.12090000000000001          1.2150980509462502E-009
  0.12200000000000003         -3.3708070113437805E-009
  0.12310000000000001         -8.9987650458859035E-009
  0.12420000000000003         -1.4413698459392768E-008
  0.12530000000000002         -1.7866738729503258E-008
  0.12640000000000001         -1.7425631212451991E-008
  0.12750000000000003         -1.1475909972284778E-008
  0.12860000000000002          6.5505986463549927E-010
  0.12970000000000001          1.8084838933374752E-008
  0.13080000000000003          3.7960427731567902E-008
  0.13190000000000002          5.5447324938318764E-008
  0.13300000000000001          6.4296948687009332E-008
  0.13410000000000000          5.8069098960505207E-008
  0.13520000000000004          3.1927665057124692E-008
  0.13630000000000003         -1.5270547946094383E-008
  0.13740000000000002         -7.9071306298166469E-008
  0.13850000000000001         -1.4832050771877440E-007
  0.13960000000000000         -2.0550383529301664E-007
  0.14070000000000005         -2.2902131949847758E-007
  0.14180000000000004         -1.9754865892621477E-007
  0.14290000000000003         -9.6121620878602266E-008
  0.14400000000000002          7.7036904261187903E-008
  0.14510000000000001          3.0451786785035741E-007
  0.14620000000000000          5.4652134102591984E-007
  0.14730000000000004          7.4243436604603658E-007
  0.14840000000000003          8.1868089047248146E-007
  0.14950000000000002          7.0324860436234007E-007
  0.15060000000000001          3.4568999845894428E-007
  0.15170000000000000         -2.6051378191883524E-007
  0.15280000000000005         -1.0581672966760840E-006
  0.15390000000000004         -1.9153452101776952E-006
  0.15500000000000003         -2.6294751612894231E-006
  0.15610000000000002         -2.9514200050958209E-006
  0.15720000000000001         -2.6312466944215167E-006
  0.15830000000000000         -1.4825113989511814E-006
  0.15940000000000004          5.4401036409819675E-007
  0.16050000000000003          3.2920872401686604E-006
  0.16160000000000002          6.3566013328478499E-006
  0.16270000000000001          9.0854862704340248E-006
  0.16380000000000000          1.0644260345067353E-005
  0.16490000000000005          1.0151566405942754E-005
  0.16600000000000004          6.8799418930071009E-006
  0.16710000000000003          4.9791353605962128E-007
  0.16820000000000002         -8.6896575234474453E-006
  0.16930000000000001         -1.9562054182233990E-005
  0.17040000000000000         -3.0130918947244279E-005
  0.17150000000000004         -3.7677925076275543E-005
  0.17260000000000003         -3.9121825979116355E-005
  0.17370000000000002         -3.1615458181289636E-005
  0.17480000000000001         -1.3319192111302004E-005
  0.17590000000000000          1.5764224722843056E-005
  0.17700000000000005          5.3065913191806910E-005
  0.17810000000000004          9.3049218149685880E-005
  0.17920000000000003          1.2734520420397267E-004
  0.18030000000000002          1.4559652286864986E-004
  0.18140000000000001          1.3708218886708298E-004
  0.18250000000000000          9.3045018092006599E-005
  0.18360000000000004          9.4560246593478929E-006
  0.18470000000000003         -1.1024516629106513E-004
  0.18580000000000002         -2.5305734253628021E-004
  0.18690000000000001         -3.9567819919338510E-004
  0.18800000000000000         -5.0578112319552633E-004
  0.18910000000000005         -5.4576786045933915E-004
  0.19020000000000004         -4.7908203493141310E-004
  0.19130000000000003         -2.7864388505230723E-004
  0.19240000000000002          6.3647502369686333E-005
  0.19350000000000001          5.2800204004956367E-004
  0.19460000000000005          1.0605368564880148E-003
  0.19570000000000004          1.5720816044828419E-003
  0.19680000000000003          1.9440438417087987E-003
  0.19790000000000002          2.0426320460283343E-003
  0.19900000000000001          1.7414501538997110E-003
  0.20010000000000000          9.5075148011202501E-004
  0.20120000000000005         -3.5032454400178627E-004
  0.20230000000000004         -2.0840934178858374E-003
  0.20340000000000003         -4.0542023287131607E-003
  0.20450000000000002         -5.9424703667945375E-003
  0.20560000000000000         -7.3292634889571317E-003
  0.20670000000000005         -7.7415277019313626E-003
  0.20780000000000004         -6.7285271310231461E-003
  0.20890000000000003         -3.9598957866229774E-003
