 -0.12000000000000000          0.0000000000000000
 -0.11889999999999999          0.0000000000000000
 -0.11780000000000000          0.0000000000000000
 -0.11670000000000000          0.0000000000000000
 -0.11559999999999999          0.0000000000000000
 -0.11449999999999999          0.0000000000000000
 -0.11340000000000000          0.0000000000000000
 -0.11230000000000000          0.0000000000000000
 -0.11119999999999999          0.0000000000000000
 -0.11009999999999999          0.0000000000000000
 -0.10900000000000000          0.0000000000000000
 -0.10790000000000000          4.1797551840729738E-133
 -0.10679999999999999          6.0752797383272048E-107
 -0.10569999999999999         -1.6539056135667069E-082
 -0.10460000000000000         -2.8338298870927032E-057
 -0.10349999999999999         -4.9634023406611406E-033
 -0.10239999999999999         -8.1277768801708599E-032
 -0.10130000000000000         -6.1037704389195829E-031
 -0.10020000000000000         -2.6166536890277697E-030
  -9.9099999999999994E-002    -5.8076278355843652E-030
  -9.7999999999999990E-002     2.6527485114126101E-030
  -9.6899999999999986E-002     6.9670280190140850E-029
  -9.5799999999999996E-002     2.5409374506219184E-028
  -9.4699999999999993E-002     3.9156838361442955E-028
  -9.3599999999999989E-002    -4.8146309154041941E-028
  -9.2499999999999999E-002    -4.3508959762506441E-027
  -9.1399999999999995E-002    -1.1436206108603972E-026
  -9.0299999999999991E-002    -1.0964841309424925E-026
  -8.9200000000000002E-002     2.9924293913380782E-026
  -8.8099999999999984E-002     1.5040267673001636E-025
  -8.6999999999999994E-002     3.0005212860577787E-025
  -8.5899999999999990E-002     1.5469973924492325E-025
  -8.4799999999999986E-002    -9.4832361247780265E-025
  -8.3699999999999997E-002    -3.3999258958805331E-024
  -8.2599999999999993E-002    -5.4781164620726713E-024
  -8.1499999999999989E-002    -1.0463711621042544E-024
  -8.0399999999999999E-002     1.9237312714111450E-023
  -7.9299999999999995E-002     5.6322288502152751E-023
  -7.8199999999999992E-002     7.8167767144982860E-023
  -7.7100000000000002E-002    -4.2489087779542712E-025
  -7.5999999999999984E-002    -2.8302948264706940E-022
  -7.4899999999999994E-002    -7.3878144721216710E-022
  -7.3799999999999991E-002    -9.4436887713646945E-022
  -7.2699999999999987E-002     5.0379324024698003E-023
  -7.1599999999999997E-002     3.2353297487332817E-021
  -7.0499999999999993E-002     8.0581129989294825E-021
  -6.9399999999999989E-002     1.0122969983145342E-020
  -6.8300000000000000E-002     4.2208921719963674E-022
  -6.7199999999999996E-002    -2.9768374711369634E-020
  -6.6099999999999992E-002    -7.5150633559247012E-020
  -6.5000000000000002E-002    -9.7992641178360115E-020
  -6.3899999999999985E-002    -2.3262482310429088E-020
  -6.2799999999999995E-002     2.2230850330034612E-019
  -6.1699999999999991E-002     6.0643640177293915E-019
  -6.0599999999999994E-002     8.5507278718603033E-019
  -5.9499999999999990E-002     4.1056383301481568E-019
  -5.8399999999999994E-002    -1.3119818046377124E-018
  -5.7299999999999990E-002    -4.2303041731926847E-018
  -5.6199999999999986E-002    -6.6552165792243942E-018
  -5.5099999999999996E-002    -4.8800837370375622E-018
  -5.3999999999999992E-002     5.4374408788422479E-018
  -5.2899999999999989E-002     2.5145172661453175E-017
  -5.1799999999999985E-002     4.5588101712681036E-017
  -5.0699999999999995E-002     4.4897160436455279E-017
  -4.9599999999999991E-002    -6.2054866031409074E-018
  -4.8499999999999988E-002    -1.2273615831927356E-016
  -4.7399999999999998E-002    -2.7034902201660011E-016
  -4.6299999999999994E-002    -3.3646003531364931E-016
  -4.5199999999999990E-002    -1.4529737472025648E-016
  -4.4099999999999986E-002     4.4398552409885649E-016
  -4.2999999999999997E-002     1.3531365615559948E-015
  -4.1899999999999993E-002     2.0929342650746474E-015
  -4.0799999999999989E-002     1.7406734391966952E-015
  -3.9699999999999985E-002    -6.9526406533699609E-016
  -3.8599999999999995E-002    -5.4256088326537482E-015
  -3.7499999999999992E-002    -1.0788832532839619E-014
  -3.6399999999999988E-002    -1.2648609727865118E-014
  -3.5299999999999984E-002    -5.3534916822554123E-015
  -3.4199999999999994E-002     1.4922981452797331E-014
  -3.3099999999999991E-002     4.4879506961395092E-014
  -3.1999999999999987E-002     6.9363836987223083E-014
  -3.0899999999999997E-002     6.1839855675047537E-014
  -2.9799999999999993E-002    -5.1335968855390210E-015
  -2.8699999999999989E-002    -1.3818601456192310E-013
  -2.7599999999999986E-002    -2.9697610779462816E-013
  -2.6499999999999996E-002    -3.8041876311780350E-013
  -2.5399999999999992E-002    -2.4796457111522860E-013
  -2.4299999999999988E-002     2.0814478910249575E-013
  -2.3199999999999985E-002     9.4890872667551220E-013
  -2.2099999999999995E-002     1.6824253222450459E-012
  -2.0999999999999991E-002     1.8527471108812157E-012
  -1.9899999999999987E-002     8.1535828615459850E-013
  -1.8799999999999983E-002    -1.7687849705719953E-012
  -1.7699999999999994E-002    -5.4213346965930835E-012
  -1.6599999999999990E-002    -8.4857883583443183E-012
  -1.5499999999999986E-002    -8.2988346601384466E-012
  -1.4399999999999996E-002    -2.2067650371609439E-012
  -1.3299999999999992E-002     1.0599394235003918E-011
  -1.2199999999999989E-002     2.7038870339524498E-011
  -1.1099999999999985E-002     3.9105158249683897E-011
  -9.9999999999999950E-003     3.5304197703497908E-011
  -8.8999999999999913E-003     5.4857136073987098E-012
  -7.7999999999999875E-003    -5.1558482662376731E-011
  -6.6999999999999837E-003    -1.2059642860967769E-010
  -5.5999999999999939E-003    -1.6740133885437802E-010
  -4.4999999999999901E-003    -1.4625594391711405E-010
  -3.3999999999999864E-003    -1.9885357355676429E-011
  -2.2999999999999826E-003     2.1186316321945048E-010
  -1.1999999999999927E-003     4.8606027281865489E-010
  -9.9999999999988987E-005     6.7081931705630598E-010
   1.0000000000000148E-003     5.9615455731522712E-010
   2.1000000000000185E-003     1.2722798014132397E-010
   3.2000000000000084E-003    -7.3542709432997140E-010
   4.3000000000000121E-003    -1.7690601659184177E-009
   5.4000000000000159E-003    -2.5123936147580500E-009
   6.5000000000000058E-003    -2.3714702298682412E-009
   7.6000000000000234E-003    -8.6186487399288172E-010
   8.7000000000000133E-003     2.0648424757786227E-009
   9.8000000000000032E-003     5.7371657532819940E-009
   1.0900000000000021E-002     8.6965531693566938E-009
   1.2000000000000011E-002     9.0015138836466201E-009
   1.3100000000000001E-002     4.9469742674865606E-009
   1.4200000000000018E-002    -3.9469849659654278E-009
   1.5300000000000008E-002    -1.6033375419579275E-008
   1.6400000000000026E-002    -2.7214457444132794E-008
   1.7500000000000016E-002    -3.1642376177756237E-008
   1.8600000000000005E-002    -2.3607367131098173E-008
   1.9700000000000023E-002    -2.8493801223936887E-010
   2.0800000000000013E-002     3.5541303764316111E-008
   2.1900000000000003E-002     7.4046569496498076E-008
   2.3000000000000020E-002     9.9446755695106671E-008
   2.4100000000000010E-002     9.4206935397103068E-008
   2.5200000000000000E-002     4.5855566016134037E-008
   2.6300000000000018E-002    -4.5459598925650683E-008
   2.7400000000000008E-002    -1.6158003318265771E-007
   2.8500000000000025E-002    -2.6620217604201807E-007
   2.9600000000000015E-002    -3.1205578811561684E-007
   3.0700000000000005E-002    -2.5522154861779998E-007
   3.1800000000000023E-002    -7.3530133175247454E-008
   3.2900000000000013E-002     2.1660130872010525E-007
   3.4000000000000002E-002     5.5173761614659369E-007
   3.5100000000000020E-002     8.2722765554883801E-007
   3.6200000000000010E-002     9.1966477045382168E-007
   3.7300000000000028E-002     7.2330018995882147E-007
   3.8400000000000017E-002     1.9225515601864053E-007
   3.9500000000000007E-002    -6.2362995945411966E-007
   4.0600000000000025E-002    -1.5624919844577017E-006
   4.1700000000000015E-002    -2.3641064301359507E-006
   4.2800000000000005E-002    -2.7176378198897993E-006
   4.3900000000000022E-002    -2.3390197842226195E-006
   4.5000000000000012E-002    -1.0645172494951229E-006
   4.6100000000000002E-002     1.0603582856266909E-006
   4.7200000000000020E-002     3.7214615382735123E-006
   4.8300000000000010E-002     6.3305244293401085E-006
   4.9400000000000027E-002     8.0921003585396225E-006
   5.0500000000000017E-002     8.1499829726993913E-006
   5.1600000000000007E-002     5.8032390586016346E-006
   5.2700000000000025E-002     7.6101580087556666E-007
   5.3800000000000014E-002    -6.6166779400177078E-006
   5.4900000000000004E-002    -1.5162641435127486E-005
   5.6000000000000022E-002    -2.2907131280115304E-005
   5.7100000000000012E-002    -2.7307117714359078E-005
   5.8200000000000002E-002    -2.5726825910627345E-005
   5.9300000000000019E-002    -1.6135821176517434E-005
   6.0400000000000009E-002     2.0843715921244687E-006
   6.1500000000000027E-002     2.7407284975538664E-005
   6.2600000000000017E-002     5.5732759133041633E-005
   6.3700000000000007E-002     8.0493906643239532E-005
   6.4800000000000024E-002     9.3468667859785142E-005
   6.5900000000000014E-002     8.6336108760309428E-005
   6.7000000000000004E-002     5.2837197732999451E-005
   6.8100000000000022E-002    -8.8012478736772833E-006
   6.9200000000000012E-002    -9.3699376899081699E-005
   7.0300000000000029E-002    -1.8904261497189778E-004
   7.1400000000000019E-002    -2.7431020556962046E-004
   7.2500000000000009E-002    -3.2349157327374978E-004
   7.3600000000000027E-002    -3.0946708606339991E-004
   7.4700000000000016E-002    -2.1028976931304177E-004
   7.5800000000000006E-002    -1.6571282892194476E-005
   7.6900000000000024E-002     2.6137029168934122E-004
   7.8000000000000014E-002     5.8838614682825841E-004
   7.9100000000000004E-002     9.0337971800972768E-004
   8.0200000000000021E-002     1.1239894073809551E-003
   8.1300000000000011E-002     1.1581694996816705E-003
   8.2400000000000029E-002     9.2253753394687008E-004
   8.3500000000000019E-002     3.6568225311555774E-004
   8.4600000000000009E-002    -5.0724572948597339E-004
   8.5700000000000026E-002    -1.6140146974973613E-003
   8.6800000000000016E-002    -2.7852106155120946E-003
   8.7900000000000006E-002    -3.7707245051233677E-003
   8.9000000000000024E-002    -4.2673014012792479E-003
   9.0100000000000013E-002    -3.9683118164735489E-003
   9.1200000000000003E-002    -2.6322425164925904E-003
   9.2300000000000021E-002    -1.6103529296849673E-004
   9.3400000000000011E-002     3.3256883836874120E-003
   9.4500000000000028E-002     7.4381129150653128E-003
   9.5600000000000018E-002     1.1504019355087909E-002
   9.6700000000000008E-002     1.4612896551087490E-002
   9.7800000000000026E-002     1.5725749782616084E-002
   9.8900000000000016E-002     1.3849464949411786E-002
  0.10000000000000001          8.2611410545164674E-003
  0.10110000000000002         -1.2468116051065849E-003
  0.10220000000000001         -1.4143337769710482E-002
  0.10330000000000003         -2.9008822136691047E-002
  0.10440000000000002         -4.3512186641754297E-002
  0.10550000000000001         -5.4560833550707316E-002
  0.10660000000000003         -5.8650366425101706E-002
  0.10770000000000002         -5.2411210512862662E-002
  0.10880000000000001         -3.3310896886758846E-002
  0.10990000000000003         -4.2853972223465064E-004
  0.11100000000000002          4.4821326720952563E-002
  0.11210000000000001          9.8166737950687144E-002
  0.11320000000000002         0.15231826314631167
  0.11430000000000001         0.19731351199416980
  0.11540000000000003         0.22146034763121780
  0.11650000000000002         0.21289380940727809
  0.11760000000000001         0.16165736957937368
  0.11870000000000003          6.2100957986120607E-002
  0.11980000000000002         -8.4727018239276211E-002
  0.12090000000000001        -0.26910801405100465
  0.12200000000000003        -0.47156243916372292
  0.12310000000000001        -0.66308065048101128
  0.12420000000000003        -0.80701880225959088
  0.12530000000000002        -0.86282165270704014
  0.12640000000000001        -0.79148009933293506
  0.12750000000000003        -0.56232699992708657
  0.12860000000000002        -0.16045793181022705
  0.12970000000000001         0.40621849619555345
  0.13080000000000003          1.1014911025506910
  0.13190000000000002          1.8581661050469940
  0.13300000000000001          2.5793289564283572
  0.13410000000000000          3.1443698921418424
  0.13520000000000004          3.4200962578581211
  0.13630000000000003          3.2766018819951266
  0.13740000000000002          2.6068193285355252
  0.13850000000000001          1.3479311294821332
  0.13960000000000000        -0.49783672184024191
  0.14070000000000005         -2.8459648509919497
  0.14180000000000004         -5.5190078318048954
  0.14290000000000003         -8.2454255753002439
  0.14400000000000002         -10.670089103846335
  0.14510000000000001         -12.377640297575349
  0.14620000000000000         -12.928532705623530
  0.14730000000000004         -11.906035710542776
  0.14840000000000003         -8.9709248893802460
  0.14950000000000002         -3.9192156247892860
  0.15060000000000001          3.2626614351455188
  0.15170000000000000          12.351206518874534
  0.15280000000000005          22.853313605889738
  0.15390000000000004          33.992293660944476
  0.15500000000000003          44.715012343526979
  0.15610000000000002          53.720215987028361
  0.15720000000000001          59.505287208822381
  0.15830000000000000          60.425792567999054
  0.15940000000000004          54.759595742388200
  0.16050000000000003          40.765335237054941
  0.16160000000000002          16.723973852901420
  0.16270000000000001         -19.047909682048214
  0.16380000000000000         -68.223351337262713
  0.16490000000000005         -132.53694457554130
  0.16600000000000004         -213.90883064400225
  0.16710000000000003         -314.62278131741806
  0.16820000000000002         -437.55711431327217
  0.16930000000000001         -586.46431066011075
  0.17040000000000000         -766.29318450377934
  0.17150000000000004         -983.54662197605194
  0.17260000000000003         -1246.6684564744144
  0.17370000000000002         -1566.4550163216534
  0.17480000000000001         -1956.4901201115945
  0.17590000000000000         -2433.6064848239680
  0.17700000000000005         -3018.3811878189081
  0.17810000000000004         -3735.6774270222108
  0.17920000000000003         -4615.2487646218578
  0.18030000000000002         -5692.4247723378176
  0.18140000000000001         -7008.8980915896464
  0.18250000000000000         -8613.6321300332274
  0.18360000000000004         -10563.905907246753
  0.18470000000000003         -12926.508135002228
  0.18580000000000002         -15779.086867613723
  0.18690000000000001         -19211.654512289890
  0.18800000000000000         -23328.241211630240
  0.18910000000000005         -28248.683094851036
  0.19020000000000004         -34110.525971416253
  0.19130000000000003         -41071.019812518934
  0.19240000000000002         -49309.174687025217
  0.19350000000000001         -59027.844327543011
  0.19460000000000005         -70455.798695817095
  0.19570000000000004         -83849.741250781124
  0.19680000000000003         -99496.219620248958
  0.19790000000000002         -117713.36972134083
  0.19900000000000001         -138852.42297313176
  0.20010000000000000         -163298.89426126130
  0.20120000000000005         -191473.35516685294
  0.20230000000000004         -223831.68330905764
  0.20340000000000003         -260864.66530736894
  0.20450000000000002         -303096.81881678005
  0.20560000000000000         -351084.28936979995
  0.20670000000000005         -405411.67142310715
  0.20780000000000004         -466687.60103187757
  0.20890000000000003         -535538.97079340974
