 -0.12000000000000000          0.0000000000000000
 -0.11889999999999999          0.0000000000000000
 -0.11780000000000000          0.0000000000000000
 -0.11670000000000000         -8.3645243578951599E-009
 -0.11559999999999999         -3.8913277678919987E-008
 -0.11449999999999999         -8.4363354505283449E-008
 -0.11340000000000000         -8.9501088065992737E-008
 -0.11230000000000000          2.8603731052404793E-008
 -0.11119999999999999          2.9530427076109916E-007
 -0.11009999999999999          5.8449298560892282E-007
 -0.10900000000000000          6.2509103472024793E-007
 -0.10790000000000000          1.7288160646162750E-007
 -0.10679999999999999         -7.3045021061764578E-007
 -0.10569999999999999         -1.6285985340114444E-006
 -0.10460000000000000         -1.8575097785933463E-006
 -0.10349999999999999         -1.0649183790079541E-006
 -0.10239999999999999          3.0607318602059587E-007
 -0.10130000000000000          1.0733824252751297E-006
 -0.10020000000000000          1.6854725226371097E-007
  -9.9099999999999994E-002    -2.0803135593609008E-006
  -9.7999999999999990E-002    -3.2194021039059209E-006
  -9.6899999999999986E-002     4.5661229767578552E-007
  -9.5799999999999996E-002     1.1194590566031323E-005
  -9.4699999999999993E-002     2.6446935454301217E-005
  -9.3599999999999989E-002     3.7311879835702581E-005
  -9.2499999999999999E-002     3.1038198365347128E-005
  -9.1399999999999995E-002    -2.0347630907947559E-006
  -9.0299999999999991E-002    -5.9800957467095507E-005
  -8.9200000000000002E-002    -1.2315165796206745E-004
  -8.8099999999999984E-002    -1.5925866115777172E-004
  -8.6999999999999994E-002    -1.3488071502334119E-004
  -8.5899999999999990E-002    -3.5303005294529278E-005
  -8.4799999999999986E-002     1.2059570883723841E-004
  -8.3699999999999997E-002     2.7942061715287005E-004
  -8.2599999999999993E-002     3.7134301565611301E-004
  -8.1499999999999989E-002     3.4205288735987728E-004
  -8.0399999999999999E-002     1.8382108389117295E-004
  -7.9299999999999995E-002    -5.2298198358441936E-005
  -7.8199999999999992E-002    -2.7426209143648495E-004
  -7.7100000000000002E-002    -3.9277867272901278E-004
  -7.5999999999999984E-002    -3.7063077712881274E-004
  -7.4899999999999994E-002    -2.4944547037343502E-004
  -7.3799999999999991E-002    -1.3321926772974629E-004
  -7.2699999999999987E-002    -1.2955767969493101E-004
  -7.1599999999999997E-002    -2.7557306373388469E-004
  -7.0499999999999993E-002    -4.9101549213417133E-004
  -6.9399999999999989E-002    -5.9475419195739417E-004
  -6.8300000000000000E-002    -3.9106977187793225E-004
  -6.7199999999999996E-002     2.0820666019817595E-004
  -6.6099999999999992E-002     1.0893906658377118E-003
  -6.5000000000000002E-002     1.9334108744462292E-003
  -6.3899999999999985E-002     2.3285805989659712E-003
  -6.2799999999999995E-002     1.9648724973281005E-003
  -6.1699999999999991E-002     8.2121622911897037E-004
  -6.0599999999999994E-002    -7.5803380611636948E-004
  -5.9499999999999990E-002    -2.1622431028197478E-003
  -5.8399999999999994E-002    -2.7717936638035072E-003
  -5.7299999999999990E-002    -2.2678949806783683E-003
  -5.6199999999999986E-002    -8.4216948190332923E-004
  -5.5099999999999996E-002     8.2025664714991818E-004
  -5.3999999999999992E-002     1.8125362155917994E-003
  -5.2899999999999989E-002     1.4328588132765455E-003
  -5.1799999999999985E-002    -4.2884529547787781E-004
  -5.0699999999999995E-002    -3.1462065200669681E-003
  -4.9599999999999991E-002    -5.5585264587081845E-003
  -4.8499999999999988E-002    -6.4603821595724843E-003
  -4.7399999999999998E-002    -5.1655111933880315E-003
  -4.6299999999999994E-002    -1.8694514671762851E-003
  -4.5199999999999990E-002     2.3923080082733747E-003
  -4.4099999999999986E-002     6.2095022064555987E-003
  -4.2999999999999997E-002     8.4913432237522964E-003
  -4.1899999999999993E-002     9.0610215809668344E-003
  -4.0799999999999989E-002     8.8427619122261117E-003
  -3.9699999999999985E-002     9.5144589408640984E-003
  -3.8599999999999995E-002     1.2760653073303686E-002
  -3.7499999999999992E-002     1.9475678433397526E-002
  -3.6399999999999988E-002     2.9320583025805789E-002
  -3.5299999999999984E-002     4.0889066613301869E-002
  -3.4199999999999994E-002     5.2447597654476201E-002
  -3.3099999999999991E-002     6.2921383239904705E-002
  -3.1999999999999987E-002     7.2651414004535161E-002
  -3.0899999999999997E-002     8.3533744632159582E-002
  -2.9799999999999993E-002     9.8441823992205940E-002
  -2.8699999999999989E-002    0.12019039108137519
  -2.7599999999999986E-002    0.15054587092039384
  -2.6499999999999996E-002    0.18979062932798976
  -2.5399999999999992E-002    0.23709251610073181
  -2.4299999999999988E-002    0.29153518541813228
  -2.3199999999999985E-002    0.35332565911960118
  -2.2099999999999995E-002    0.42459069436782587
  -2.0999999999999991E-002    0.50936677303638866
  -1.9899999999999987E-002    0.61279171412952560
  -1.8799999999999983E-002    0.73991736387030671
  -1.7699999999999994E-002    0.89476801250639559
  -1.6599999999999990E-002     1.0801531375240727
  -1.5499999999999986E-002     1.2983556775310150
  -1.4399999999999996E-002     1.5523541708346402
  -1.3299999999999992E-002     1.8469430592458360
  -1.2199999999999989E-002     2.1891547124502511
  -1.1099999999999985E-002     2.5877517316713057
  -9.9999999999999950E-003     3.0520646642681308
  -8.8999999999999913E-003     3.5908277528165455
  -7.7999999999999875E-003     4.2116984979106453
  -6.6999999999999837E-003     4.9217959536086138
  -5.5999999999999939E-003     5.7290261227819110
  -4.4999999999999901E-003     6.6434787352620939
  -3.3999999999999864E-003     7.6780525339705994
  -2.2999999999999826E-003     8.8477957781771153
  -1.1999999999999927E-003     10.168093294457650
  -9.9999999999988987E-005     11.652466596566910
   1.0000000000000148E-003     13.311033403481588
   2.1000000000000185E-003     15.150414214118236
   3.2000000000000084E-003     17.175166663651471
   4.3000000000000121E-003     19.390009436353935
   5.4000000000000159E-003     21.801589041253280
   6.5000000000000058E-003     24.418637051932702
   7.6000000000000234E-003     27.250061911573525
   8.7000000000000133E-003     30.301504866896515
   9.8000000000000032E-003     33.571680257634242
   1.0900000000000021E-002     37.050001541962509
   1.2000000000000011E-002     40.716438222569991
   1.3100000000000001E-002     44.543495927902121
   1.4200000000000018E-002     48.499167597046345
   1.5300000000000008E-002     52.549192860089974
   1.6400000000000026E-002     56.657263220293586
   1.7500000000000016E-002     60.782801991283883
   1.8600000000000005E-002     64.877157328607694
   1.9700000000000023E-002     68.879877059441483
   2.0800000000000013E-002     72.716763318684798
   2.1900000000000003E-002     76.300605446905848
   2.3000000000000020E-002     79.534251472955262
   2.4100000000000010E-002     82.314620420447753
   2.5200000000000000E-002     84.535915038603449
   2.6300000000000018E-002     86.090843617055882
   2.7400000000000008E-002     86.869820754521953
   2.8500000000000025E-002     86.759292055533692
   2.9600000000000015E-002     85.640904969472942
   3.0700000000000005E-002     83.392920432102883
   3.1800000000000023E-002     79.894191030192914
   3.2900000000000013E-002     75.029777195875766
   3.4000000000000002E-002     68.696496295860172
   3.5100000000000020E-002     60.806820994660022
   3.6200000000000010E-002     51.290511803956100
   3.7300000000000028E-002     40.094676299211429
   3.8400000000000017E-002     27.183887826273999
   3.9500000000000007E-002     12.542037680761789
   4.0600000000000025E-002    -3.8233286674867619
   4.1700000000000015E-002    -21.874873968955871
   4.2800000000000005E-002    -41.539403480147975
   4.3900000000000022E-002    -62.704032845811476
   4.5000000000000012E-002    -85.215928618315729
   4.6100000000000002E-002    -108.88540175307766
   4.7200000000000020E-002    -133.49062753002326
   4.8300000000000010E-002    -158.78161281868159
   4.9400000000000027E-002    -184.48162632868164
   5.0500000000000017E-002    -210.28590481364867
   5.1600000000000007E-002    -235.85926282890628
   5.2700000000000025E-002    -260.83532443156628
   5.3800000000000014E-002    -284.81984855050558
   5.4900000000000004E-002    -307.39908337742219
   5.6000000000000022E-002    -328.15197258273230
   5.7100000000000012E-002    -346.66338693929350
   5.8200000000000002E-002    -362.53521357036266
   5.9300000000000019E-002    -375.39331183734419
   6.0400000000000009E-002    -384.89048752476452
   6.1500000000000027E-002    -390.70768873166935
   6.2600000000000017E-002    -392.55655014702882
   6.3700000000000007E-002    -390.18571624870128
   6.4800000000000024E-002    -383.39137545650772
   6.5900000000000014E-002    -372.03011649293438
   6.7000000000000004E-002    -356.03073286172366
   6.8100000000000022E-002    -335.40170261715167
   6.9200000000000012E-002    -310.23271760244791
   7.0300000000000029E-002    -280.69100980729246
   7.1400000000000019E-002    -247.01513605496899
   7.2500000000000009E-002    -209.50938528573343
   7.3600000000000027E-002    -168.54083714696694
   7.4700000000000016E-002    -124.53893944688834
   7.5800000000000006E-002    -77.995425118029317
   7.6900000000000024E-002    -29.461534586755651
   7.8000000000000014E-002     20.459697602495215
   7.9100000000000004E-002     71.126299669314960
   8.0200000000000021E-002     121.87335867746712
   8.1300000000000011E-002     172.02892373218754
   8.2400000000000029E-002     220.92699223314034
   8.3500000000000019E-002     267.91658773108651
   8.4600000000000009E-002     312.36822032961862
   8.5700000000000026E-002     353.68051929481510
   8.6800000000000016E-002     391.28970264097762
   8.7900000000000006E-002     424.68281169434391
   8.9000000000000024E-002     453.41317132465662
   9.0100000000000013E-002     477.11464712104635
   9.1200000000000003E-002     495.51101357794437
   9.2300000000000021E-002     508.41835490021185
   9.3400000000000011E-002     515.74115072493476
   9.4500000000000028E-002     517.46519154077532
   9.5600000000000018E-002     513.65143178948495
   9.6700000000000008E-002     504.43377653076658
   9.7800000000000026E-002     490.02111690409691
   9.8900000000000016E-002     470.70101110642099
  0.10000000000000001          446.84074511918703
  0.10110000000000002          418.88199639032615
  0.10220000000000001          387.32778860882502
  0.10330000000000003          352.72368593824609
  0.10440000000000002          315.63762531092453
  0.10550000000000001          276.64320246095963
  0.10660000000000003          236.30939391838197
  0.10770000000000002          195.19652101791652
  0.10880000000000001          153.85532460379309
  0.10990000000000003          112.82477857394426
  0.11100000000000002          72.625323007961427
  0.11210000000000001          33.746976251363193
  0.11320000000000002         -3.3651493173167655
  0.11430000000000001         -38.323625463540345
  0.11540000000000003         -70.805891515386861
  0.11650000000000002         -100.55433122805300
  0.11760000000000001         -127.37083369944469
  0.11870000000000003         -151.10965230561999
  0.11980000000000002         -171.67258096077870
  0.12090000000000001         -189.00857205576904
  0.12200000000000003         -203.11694235845613
  0.12310000000000001         -214.05083869159006
  0.12420000000000003         -221.91699141526979
  0.12530000000000002         -226.86933995563041
  0.12640000000000001         -229.09708029339893
  0.12750000000000003         -228.81051208910594
  0.12860000000000002         -226.22925180183969
  0.12970000000000001         -221.57626051459076
  0.13080000000000003         -215.07823941868142
  0.13190000000000002         -206.96973810556383
  0.13300000000000001         -197.49645558822840
  0.13410000000000000         -186.91367765024091
  0.13520000000000004         -175.47838408567173
  0.13630000000000003         -163.43697315815973
  0.13740000000000002         -151.01304453956706
  0.13850000000000001         -138.39996440560702
  0.13960000000000000         -125.76083575396562
  0.14070000000000005         -113.23505892715487
  0.14180000000000004         -100.94762620857753
  0.14290000000000003         -89.016188657201980
  0.14400000000000002         -77.552317591866938
  0.14510000000000001         -66.656542673607632
  0.14620000000000000         -56.410064937826682
  0.14730000000000004         -46.867823703466904
  0.14840000000000003         -38.056941625026070
  0.14950000000000002         -29.981835568305851
  0.15060000000000001         -22.633883535511192
  0.15170000000000000         -16.001234569768371
  0.15280000000000005         -10.074324252668600
  0.15390000000000004         -4.8449190141601548
  0.15500000000000003        -0.29988505926682713
  0.15610000000000002          3.5863819899076659
  0.15720000000000001          6.8562374953817145
  0.15830000000000000          9.5668595424828542
  0.15940000000000004          11.782424017104077
  0.16050000000000003          13.563780131069072
  0.16160000000000002          14.960374527105630
  0.16270000000000001          16.008094913967710
  0.16380000000000000          16.733753010447721
  0.16490000000000005          17.163614380496391
  0.16600000000000004          17.331400221630222
  0.16710000000000003          17.281533821447894
  0.16820000000000002          17.065884706127928
  0.16930000000000001          16.735592039183139
  0.17040000000000000          16.332022439167645
  0.17150000000000004          15.881291149254851
  0.17260000000000003          15.394895303370456
  0.17370000000000002          14.875875581820864
  0.17480000000000001          14.327165062008451
  0.17590000000000000          13.757808516178464
  0.17700000000000005          13.184006918706370
  0.17810000000000004          12.624757499984691
  0.17920000000000003          12.094728392381695
  0.18030000000000002          11.598432978421799
  0.18140000000000001          11.129027914907843
  0.18250000000000000          10.672564298337313
  0.18360000000000004          10.215598212127734
  0.18470000000000003          9.7522524150832979
  0.18580000000000002          9.2870637421243778
  0.18690000000000001          8.8321218176543734
  0.18800000000000000          8.3999717406196464
  0.18910000000000005          7.9959748304319138
  0.19020000000000004          7.6141466416435888
  0.19130000000000003          7.2387519201647406
  0.19240000000000002          6.8510252070158950
  0.19350000000000001          6.4377903116949717
  0.19460000000000005          5.9977852202874908
  0.19570000000000004          5.5426328299716054
  0.19680000000000003          5.0920346808909391
  0.19790000000000002          4.6655602051628309
  0.19900000000000001          4.2749634965288461
  0.20010000000000000          3.9205456547506388
  0.20120000000000005          3.5929678206569613
  0.20230000000000004          3.2792249155509157
  0.20340000000000003          2.9695784497959496
  0.20450000000000002          2.6620316102273205
  0.20560000000000000          2.3624254721289031
  0.20670000000000005          2.0805872501408125
  0.20780000000000004          1.8249219532390069
  0.20890000000000003          1.5984252783771644
